TITLE     = "Visualization of the solution"
VARIABLES = "x"
"y"
"Mach"
ZONE T="Zone"
 STRANDID=0, SOLUTIONTIME=0
 Nodes=12128, Elements=23676, ZONETYPE=FEQuadrilateral
 DATAPACKING=POINT
 DT=(DOUBLE DOUBLE DOUBLE )
 1.000264049E+00 5.101865390E-04 5.423538777E-01
 9.856193066E-01 3.398045432E-03 6.561808365E-01
 9.718300104E-01 6.029961631E-03 6.791597194E-01
 9.553837776E-01 9.193874896E-03 7.001248991E-01
 9.408265948E-01 1.201443281E-02 7.176696862E-01
 9.278847575E-01 1.454013307E-02 7.356559160E-01
 9.164888263E-01 1.673752628E-02 7.502974199E-01
 9.044700265E-01 1.900318265E-02 7.617271403E-01
 8.928760290E-01 2.116246708E-02 7.739483874E-01
 8.806890249E-01 2.338912338E-02 7.866235854E-01
 8.684204817E-01 2.555430681E-02 7.934634471E-01
 8.562293649E-01 2.768427692E-02 8.042825895E-01
 8.442074060E-01 2.975419536E-02 8.172862563E-01
 8.325518966E-01 3.164974228E-02 8.154767519E-01
 8.211452365E-01 3.355063125E-02 8.286345031E-01
 8.089101911E-01 3.552612290E-02 8.361639242E-01
 7.963948250E-01 3.752799332E-02 8.479604998E-01
 7.845756412E-01 3.934678063E-02 8.525835740E-01
 7.726849318E-01 4.117642343E-02 8.655423761E-01
 7.610845566E-01 4.286957160E-02 8.663749789E-01
 7.486731410E-01 4.470176622E-02 8.807656397E-01
 7.351884842E-01 4.659018666E-02 8.835837740E-01
 7.246745825E-01 4.806733876E-02 8.962801693E-01
 7.136223912E-01 4.957056418E-02 9.044512501E-01
 7.020614147E-01 5.108905956E-02 9.098361364E-01
 6.889790893E-01 5.278764293E-02 9.261290289E-01
 6.764100194E-01 5.433979258E-02 9.340795543E-01
 6.658425927E-01 5.557984859E-02 9.382365368E-01
 6.544702053E-01 5.690939352E-02 9.526755097E-01
 6.433261037E-01 5.811443552E-02 9.497268316E-01
 6.317465901E-01 5.935666338E-02 9.661523239E-01
 6.205937266E-01 6.050600111E-02 9.770924219E-01
 6.100424528E-01 6.150184199E-02 9.570177532E-01
 5.981901288E-01 6.258725375E-02 9.512466975E-01
 5.864183307E-01 6.357500702E-02 1.051566998E+00
 5.729251504E-01 6.463050097E-02 1.127683166E+00
 5.600323081E-01 6.554941088E-02 1.111453343E+00
 5.473027825E-01 6.637042761E-02 1.104241464E+00
 5.359495282E-01 6.702023745E-02 1.101312871E+00
 5.239809752E-01 6.765112281E-02 1.095964281E+00
 5.111455321E-01 6.821699440E-02 1.091340097E+00
 5.002340078E-01 6.865964085E-02 1.086191653E+00
 4.868469536E-01 6.908421963E-02 1.075836671E+00
 4.735983908E-01 6.942465901E-02 1.069194764E+00
 4.593114257E-01 6.968154758E-02 1.063731294E+00
 4.455173016E-01 6.986242533E-02 1.057251286E+00
 4.321772754E-01 6.991569698E-02 1.043043189E+00
 4.189606905E-01 6.989216059E-02 1.038609944E+00
 4.062974155E-01 6.979184598E-02 1.034052739E+00
 3.932812512E-01 6.962134689E-02 1.027687667E+00
 3.808849156E-01 6.936874986E-02 1.016264629E+00
 3.693207204E-01 6.907341629E-02 1.011003595E+00
 3.559286892E-01 6.866861880E-02 1.009062987E+00
 3.433007300E-01 6.819874793E-02 1.003819199E+00
 3.304955661E-01 6.765632331E-02 9.965378960E-01
 3.199302554E-01 6.712114066E-02 9.854085136E-01
 3.076743782E-01 6.648290902E-02 9.871978303E-01
 2.946507037E-01 6.569282711E-02 9.758883284E-01
 2.808461785E-01 6.477233768E-02 9.686135081E-01
 2.685125172E-01 6.387554854E-02 9.647048581E-01
 2.565950155E-01 6.294376403E-02 9.600716599E-01
 2.442017198E-01 6.187770143E-02 9.508129821E-01
 2.315880656E-01 6.072631106E-02 9.467998815E-01
 2.194161415E-01 5.951476097E-02 9.385229847E-01
 2.075988054E-01 5.827235430E-02 9.345687006E-01
 1.959747672E-01 5.695400015E-02 9.257456594E-01
 1.836750507E-01 5.547491089E-02 9.196940030E-01
 1.720205396E-01 5.397327989E-02 9.115436722E-01
 1.603750437E-01 5.238359421E-02 9.042657039E-01
 1.488036066E-01 5.069841072E-02 8.958112163E-01
 1.380703449E-01 4.905261099E-02 8.900209653E-01
 1.269547045E-01 4.724073410E-02 8.827987376E-01
 1.158225387E-01 4.529966041E-02 8.738793986E-01
 1.054449826E-01 4.337333888E-02 8.619910795E-01
 9.579275548E-02 4.148155078E-02 8.560272497E-01
 8.529508859E-02 3.928799555E-02 8.459894402E-01
 7.406385243E-02 3.675537556E-02 8.329995366E-01
 6.441412121E-02 3.440883756E-02 8.202939662E-01
 5.483410880E-02 3.187388182E-02 8.057588073E-01
 4.585992917E-02 2.930417657E-02 7.922230764E-01
 3.814556077E-02 2.689009719E-02 7.766116943E-01
 3.129107878E-02 2.453693561E-02 7.590661171E-01
 2.548522875E-02 2.235514671E-02 7.438073887E-01
 2.120823227E-02 2.059524134E-02 7.257521495E-01
 1.708032005E-02 1.874129102E-02 7.075347425E-01
 1.401571650E-02 1.723781787E-02 6.890987169E-01
 1.131688897E-02 1.578833722E-02 6.689810873E-01
 9.299254976E-03 1.461069193E-02 6.498118751E-01
 7.479954977E-03 1.344812848E-02 6.297415652E-01
 5.809274968E-03 1.229323354E-02 5.971126998E-01
 3.686186392E-03 1.061022654E-02 5.489531542E-01
 1.889196108E-03 8.920301683E-03 4.984511700E-01
 3.611303982E-04 7.121908478E-03 4.156353669E-01
 -1.102791983E-03 4.663687665E-03 2.995726508E-01
 -1.743438654E-03 2.805316588E-03 1.882055262E-01
 -1.975676743E-03 1.315240399E-03 8.543850958E-02
 -1.940352842E-03 -4.900885397E-04 2.994560526E-02
 -1.503414591E-03 -2.490657382E-03 1.555243821E-01
 -5.159784923E-04 -4.813241307E-03 2.738005089E-01
 1.055122004E-03 -7.264917716E-03 3.728020829E-01
 3.249751171E-03 -9.809726849E-03 4.584515850E-01
 5.203898530E-03 -1.167105418E-02 5.184565018E-01
 7.449955214E-03 -1.352189388E-02 5.617304625E-01
 9.159477428E-03 -1.479207072E-02 5.971040516E-01
 1.126846205E-02 -1.622787118E-02 6.271973727E-01
 1.374500804E-02 -1.776539162E-02 6.558527013E-01
 1.702096872E-02 -1.962432452E-02 6.864693337E-01
 2.015792020E-02 -2.124373429E-02 7.136378751E-01
 2.420238219E-02 -2.315362357E-02 7.349262374E-01
 2.963755466E-02 -2.547245473E-02 7.586320953E-01
 3.540746868E-02 -2.769487165E-02 7.819513743E-01
 4.241315275E-02 -3.013054468E-02 8.022398325E-01
 4.993418977E-02 -3.249815851E-02 8.193093148E-01
 5.868865922E-02 -3.499099985E-02 8.339260214E-01
 6.733234972E-02 -3.724310920E-02 8.465624102E-01
 7.761985064E-02 -3.968704119E-02 8.583271709E-01
 8.733721077E-02 -4.180942848E-02 8.650402424E-01
 9.785631299E-02 -4.394785687E-02 8.772606577E-01
 1.089394391E-01 -4.602992907E-02 8.851090732E-01
 1.204139888E-01 -4.803092033E-02 8.937116087E-01
 1.319118142E-01 -4.989595339E-02 9.015059787E-01
 1.421970129E-01 -5.145450681E-02 9.086364882E-01
 1.533031464E-01 -5.304227397E-02 9.167428475E-01
 1.649889499E-01 -5.459140241E-02 9.221189383E-01
 1.765470654E-01 -5.603739247E-02 9.319511143E-01
 1.881153136E-01 -5.737895519E-02 9.394618021E-01
 1.985301077E-01 -5.850772932E-02 9.468953932E-01
 2.097006887E-01 -5.963720009E-02 9.552518019E-01
 2.218520492E-01 -6.076992303E-02 9.639707496E-01
 2.340563089E-01 -6.180541962E-02 9.722528506E-01
 2.459176481E-01 -6.272278726E-02 9.825368204E-01
 2.581231594E-01 -6.357069314E-02 9.942878790E-01
 2.690337002E-01 -6.423377991E-02 1.003844978E+00
 2.815691531E-01 -6.490500271E-02 1.015700140E+00
 2.935149372E-01 -6.542181969E-02 1.025721424E+00
 3.065052330E-01 -6.587695330E-02 1.033531265E+00
 3.182010651E-01 -6.618034840E-02 1.045089534E+00
 3.308570981E-01 -6.638592482E-02 1.053313383E+00
 3.414870501E-01 -6.646618247E-02 1.067400076E+00
 3.529438972E-01 -6.644053012E-02 1.076556329E+00
 3.639535606E-01 -6.631655246E-02 1.082238335E+00
 3.747001290E-01 -6.610385329E-02 1.091035273E+00
 3.865343332E-01 -6.574999541E-02 1.110246945E+00
 3.993404806E-01 -6.520619243E-02 1.091737894E+00
 4.116775095E-01 -6.456946582E-02 9.924739652E-01
 4.245837331E-01 -6.377972662E-02 9.715653091E-01
 4.371084571E-01 -6.286260486E-02 9.796931208E-01
 4.499337077E-01 -6.178663671E-02 9.613973557E-01
 4.622842669E-01 -6.063494086E-02 9.410702250E-01
 4.746319056E-01 -5.937980860E-02 9.249655446E-01
 4.866823256E-01 -5.807195231E-02 9.129756602E-01
 4.991492629E-01 -5.658991635E-02 8.897513076E-01
 5.128090382E-01 -5.490191281E-02 8.731101749E-01
 5.262871385E-01 -5.315806344E-02 8.587853125E-01
 5.391377211E-01 -5.141675845E-02 8.429789006E-01
 5.525138974E-01 -4.955768585E-02 8.296064527E-01
 5.655699372E-01 -4.767876491E-02 8.157081481E-01
 5.785223842E-01 -4.574887455E-02 7.987447856E-01
 5.912951231E-01 -4.384209588E-02 7.864867737E-01
 6.041287184E-01 -4.192703962E-02 7.782872714E-01
 6.176475883E-01 -3.985336795E-02 7.636062800E-01
 6.317833066E-01 -3.771222383E-02 7.547170912E-01
 6.458442211E-01 -3.556686267E-02 7.457806646E-01
 6.588599086E-01 -3.353954852E-02 7.323307446E-01
 6.724205613E-01 -3.145876527E-02 7.235599934E-01
 6.849616170E-01 -2.954857796E-02 7.150915893E-01
 6.974652410E-01 -2.766200528E-02 7.080625650E-01
 7.123499513E-01 -2.541657351E-02 6.984755000E-01
 7.254869342E-01 -2.345163748E-02 6.906482687E-01
 7.368158698E-01 -2.175142244E-02 6.809622570E-01
 7.498922944E-01 -1.984302327E-02 6.742622881E-01
 7.627478242E-01 -1.798159443E-02 6.649152791E-01
 7.761707306E-01 -1.610905305E-02 6.597851037E-01
 7.883818150E-01 -1.440135110E-02 6.508223674E-01
 8.010264635E-01 -1.265958883E-02 6.404532306E-01
 8.123363256E-01 -1.119625475E-02 6.361917203E-01
 8.236902356E-01 -9.748630226E-03 6.283643213E-01
 8.362208605E-01 -8.232571185E-03 6.229327226E-01
 8.484121561E-01 -6.781933364E-03 6.125654287E-01
 8.606818914E-01 -5.449747201E-03 6.073938810E-01
 8.717889786E-01 -4.311180208E-03 6.000668639E-01
 8.834342360E-01 -3.239546670E-03 5.964006302E-01
 8.957991004E-01 -2.183211502E-03 5.885968250E-01
 9.059050679E-01 -1.446699956E-03 5.850725126E-01
 9.163889885E-01 -7.926460821E-04 5.822214066E-01
 9.264451861E-01 -2.823797986E-04 5.811298307E-01
 9.360054731E-01 1.128454314E-04 5.797213613E-01
 9.481763840E-01 4.868396500E-04 5.784456892E-01
 9.619879127E-01 7.359802257E-04 5.772373033E-01
 9.769579768E-01 8.068651077E-04 5.737399095E-01
 9.897382259E-01 7.008121465E-04 5.631335549E-01
 -5.000000000E-01 -1.000000000E+00 7.234486710E-01
 3.500000000E+00 -1.000000000E+00 7.276653589E-01
 3.500000000E+00 1.000000000E+00 7.106660420E-01
 -5.000000000E-01 1.000000000E+00 7.236959403E-01
 9.929416776E-01 1.954115985E-03 6.363927280E-01
 9.787246585E-01 4.714003531E-03 6.684796518E-01
 9.636068940E-01 7.611918263E-03 6.900475543E-01
 9.481051862E-01 1.060415385E-02 7.090817312E-01
 9.343556762E-01 1.327728294E-02 7.269457781E-01
 9.221867919E-01 1.563882967E-02 7.433819276E-01
 9.104794264E-01 1.787035447E-02 7.560150804E-01
 8.986730278E-01 2.008282486E-02 7.678487553E-01
 8.867825270E-01 2.227579523E-02 7.807584150E-01
 8.745547533E-01 2.447171509E-02 7.900118584E-01
 8.623249233E-01 2.661929186E-02 7.981745048E-01
 8.502183855E-01 2.871923614E-02 8.125376184E-01
 8.383796513E-01 3.070196882E-02 8.151677750E-01
 8.268485665E-01 3.260018677E-02 8.225333811E-01
 8.150277138E-01 3.453837708E-02 8.318358924E-01
 8.026525080E-01 3.652705811E-02 8.429573227E-01
 7.904852331E-01 3.843738697E-02 8.491731755E-01
 7.786302865E-01 4.026160203E-02 8.605558787E-01
 7.668847442E-01 4.202299751E-02 8.643324867E-01
 7.548788488E-01 4.378566891E-02 8.749220608E-01
 7.419308126E-01 4.564597644E-02 8.812429127E-01
 7.299315333E-01 4.732876271E-02 8.899880667E-01
 7.191484869E-01 4.881895147E-02 9.012425584E-01
 7.078419030E-01 5.032981187E-02 9.060128315E-01
 6.955202520E-01 5.193835124E-02 9.179001597E-01
 6.826945543E-01 5.356371775E-02 9.316736353E-01
 6.711263061E-01 5.495982058E-02 9.338712602E-01
 6.601563990E-01 5.624462105E-02 9.481178204E-01
 6.488981545E-01 5.751191452E-02 9.498161217E-01
 6.375363469E-01 5.873554945E-02 9.562295174E-01
 6.261701584E-01 5.993133225E-02 9.754585211E-01
 6.153180897E-01 6.100392155E-02 9.687533881E-01
 6.041162908E-01 6.204454787E-02 9.482773815E-01
 5.923042297E-01 6.308113039E-02 9.839738744E-01
 5.796717405E-01 6.410275400E-02 1.109626268E+00
 5.664787292E-01 6.508995593E-02 1.121335834E+00
 5.536675453E-01 6.595991924E-02 1.106551946E+00
 5.416261554E-01 6.669533253E-02 1.102168028E+00
 5.299652517E-01 6.733568013E-02 1.100505941E+00
 5.175632536E-01 6.793405861E-02 1.091171158E+00
 5.056897700E-01 6.843831763E-02 1.091763458E+00
 4.935404807E-01 6.887193024E-02 1.079307085E+00
 4.802226722E-01 6.925443932E-02 1.073505490E+00
 4.664549083E-01 6.955310330E-02 1.064813857E+00
 4.524143636E-01 6.977198645E-02 1.062836544E+00
 4.388472885E-01 6.988906115E-02 1.048683206E+00
 4.255689830E-01 6.990392879E-02 1.040523011E+00
 4.126290530E-01 6.984200329E-02 1.036083235E+00
 3.997893333E-01 6.970659643E-02 1.032108000E+00
 3.870830834E-01 6.949504837E-02 1.021374688E+00
 3.751028180E-01 6.922108307E-02 1.012816281E+00
 3.626247048E-01 6.887101755E-02 1.010591451E+00
 3.496147096E-01 6.843368337E-02 1.006103094E+00
 3.368981481E-01 6.792753562E-02 1.001680010E+00
 3.252129108E-01 6.738873199E-02 9.883228619E-01
 3.138023168E-01 6.680202484E-02 9.880518243E-01
 3.011625409E-01 6.608786806E-02 9.816515803E-01
 2.877484411E-01 6.523258239E-02 9.716390613E-01
 2.746793479E-01 6.432394311E-02 9.660938821E-01
 2.625537664E-01 6.340965629E-02 9.637049177E-01
 2.503983676E-01 6.241073273E-02 9.544410086E-01
 2.378948927E-01 6.130200624E-02 9.495390953E-01
 2.255021036E-01 6.012053601E-02 9.419354384E-01
 2.135074735E-01 5.889355764E-02 9.370943432E-01
 2.017867863E-01 5.761317723E-02 9.301201153E-01
 1.898249090E-01 5.621445552E-02 9.227486087E-01
 1.778477952E-01 5.472409539E-02 9.156222611E-01
 1.661977917E-01 5.317843705E-02 9.081560127E-01
 1.545893252E-01 5.154100247E-02 8.995671470E-01
 1.434369758E-01 4.987551086E-02 8.930761469E-01
 1.325125247E-01 4.814667255E-02 8.867967622E-01
 1.213886216E-01 4.627019726E-02 8.781738080E-01
 1.106337607E-01 4.433649965E-02 8.687441727E-01
 9.054392204E-02 4.038477316E-02 8.514591384E-01
 7.967947051E-02 3.802168556E-02 8.406050596E-01
 7.247610018E-02 -3.846507519E-02 8.539175110E-01
 9.259676188E-02 -4.287864268E-02 8.723273259E-01
 1.033978760E-01 -4.498889297E-02 8.810093675E-01
 1.146767139E-01 -4.703042470E-02 8.895681507E-01
 1.261629015E-01 -4.896343686E-02 8.974892865E-01
 1.370544136E-01 -5.067523010E-02 9.057115087E-01
 1.477500796E-01 -5.224839039E-02 9.121565514E-01
 1.591460481E-01 -5.381683819E-02 9.198433270E-01
 1.707680076E-01 -5.531439744E-02 9.263363118E-01
 1.823311895E-01 -5.670817383E-02 9.362545905E-01
 1.933227107E-01 -5.794334225E-02 9.431206978E-01
 2.041153982E-01 -5.907246470E-02 9.509584775E-01
 2.157763690E-01 -6.020356156E-02 9.595059862E-01
 2.279541790E-01 -6.128767133E-02 9.680842430E-01
 2.399869785E-01 -6.226410344E-02 9.771607525E-01
 2.520204037E-01 -6.314674020E-02 9.880860113E-01
 2.635784298E-01 -6.390223652E-02 1.000015894E+00
 2.753014266E-01 -6.456939131E-02 1.008474231E+00
 2.875420451E-01 -6.516341120E-02 1.022189751E+00
 3.000100851E-01 -6.564938650E-02 1.028713998E+00
 3.123531491E-01 -6.602865085E-02 1.039734936E+00
 3.245290816E-01 -6.628313661E-02 1.048927133E+00
 3.361720741E-01 -6.642605364E-02 1.060166942E+00
 3.472154737E-01 -6.645335630E-02 1.072530624E+00
 3.584487289E-01 -6.637854129E-02 1.079752643E+00
 3.693268448E-01 -6.621020287E-02 1.085671893E+00
 3.806172311E-01 -6.592692435E-02 1.099345322E+00
 3.929374069E-01 -6.547809392E-02 1.112969820E+00
 4.055089951E-01 -6.488782912E-02 1.042387002E+00
 4.181306213E-01 -6.417459622E-02 9.705390355E-01
 4.308460951E-01 -6.332116574E-02 9.784921485E-01
 4.435210824E-01 -6.232462078E-02 9.727717425E-01
 4.561089873E-01 -6.121078879E-02 9.504218993E-01
 4.684580863E-01 -6.000737473E-02 9.327528768E-01
 4.806571156E-01 -5.872588046E-02 9.190476387E-01
 4.929157943E-01 -5.733093433E-02 9.023162477E-01
 5.059791505E-01 -5.574591458E-02 8.802720431E-01
 5.195480883E-01 -5.402998812E-02 8.661059245E-01
 5.327124298E-01 -5.228741094E-02 8.509793648E-01
 5.458258092E-01 -5.048722215E-02 8.361548504E-01
 5.590419173E-01 -4.861822538E-02 8.227029531E-01
 5.720461607E-01 -4.671381973E-02 8.074829661E-01
 5.849087536E-01 -4.479548521E-02 7.919818250E-01
 5.977119207E-01 -4.288456775E-02 7.823389429E-01
 6.108881533E-01 -4.089020379E-02 7.713937112E-01
 6.247154474E-01 -3.878279589E-02 7.586040815E-01
 6.388137639E-01 -3.663954325E-02 7.504997730E-01
 6.523520648E-01 -3.455320559E-02 7.390364542E-01
 6.656402349E-01 -3.249915689E-02 7.276435639E-01
 6.786910892E-01 -3.050367162E-02 7.192185306E-01
 6.912134290E-01 -2.860529162E-02 7.115829718E-01
 7.049075961E-01 -2.653928939E-02 7.035131549E-01
 7.189184427E-01 -2.443410549E-02 6.943972344E-01
 7.311514020E-01 -2.260152996E-02 6.858556791E-01
 7.433540821E-01 -2.079722285E-02 6.775760351E-01
 7.563200593E-01 -1.891230885E-02 6.695962247E-01
 7.694592774E-01 -1.704532374E-02 6.622262343E-01
 7.822762728E-01 -1.525520207E-02 6.556270531E-01
 7.947041392E-01 -1.353046997E-02 6.456923463E-01
 8.066813946E-01 -1.192792179E-02 6.378780771E-01
 8.180132806E-01 -1.047244249E-02 6.323362869E-01
 8.299555480E-01 -8.990600705E-03 6.258335878E-01
 8.423165083E-01 -7.507252274E-03 6.178687146E-01
 8.545470238E-01 -6.115840282E-03 6.098760974E-01
 8.662354350E-01 -4.880463704E-03 6.035375313E-01
 8.776116073E-01 -3.775363439E-03 5.982026632E-01
 8.896166682E-01 -2.711379086E-03 5.928186860E-01
 9.008520842E-01 -1.814955729E-03 5.862525240E-01
 9.111470282E-01 -1.119673019E-03 5.835022577E-01
 9.420909286E-01 2.998425407E-04 5.790221626E-01
 9.550821483E-01 6.114099378E-04 5.780537675E-01
 9.694729447E-01 7.714226667E-04 5.763237575E-01
 9.833481014E-01 7.538386271E-04 5.690649874E-01
 9.950011373E-01 6.054993428E-04 5.584132445E-01
 -5.000000000E-01 9.500000000E-01 7.211467813E-01
 -5.000000000E-01 9.000000000E-01 7.171583844E-01
 -5.000000000E-01 8.500000000E-01 7.141230147E-01
 -5.000000000E-01 8.000000000E-01 7.114425383E-01
 -5.000000000E-01 7.500000000E-01 7.088735434E-01
 -5.000000000E-01 7.000000000E-01 7.063789767E-01
 -5.000000000E-01 6.500000000E-01 7.038417137E-01
 -5.000000000E-01 6.000000000E-01 7.012428937E-01
 -5.000000000E-01 5.500000000E-01 6.985869783E-01
 -5.000000000E-01 5.000000000E-01 6.958955174E-01
 -5.000000000E-01 4.500000000E-01 6.931700811E-01
 -5.000000000E-01 4.000000000E-01 6.904191037E-01
 -5.000000000E-01 3.500000000E-01 6.877262076E-01
 -5.000000000E-01 3.000000000E-01 6.851571758E-01
 -5.000000000E-01 2.500000000E-01 6.827711202E-01
 -5.000000000E-01 2.000000000E-01 6.806369998E-01
 -5.000000000E-01 1.500000000E-01 6.788534277E-01
 -5.000000000E-01 1.000000000E-01 6.775186970E-01
 -5.000000000E-01 5.000000000E-02 6.766681775E-01
 -5.000000000E-01 2.752242878E-12 6.763270926E-01
 -5.000000000E-01 -5.000000000E-02 6.765404452E-01
 -5.000000000E-01 -1.000000000E-01 6.773080540E-01
 -5.000000000E-01 -1.500000000E-01 6.786036019E-01
 -5.000000000E-01 -2.000000000E-01 6.802751442E-01
 -5.000000000E-01 -2.500000000E-01 6.822907029E-01
 -5.000000000E-01 -3.000000000E-01 6.846085687E-01
 -5.000000000E-01 -3.500000000E-01 6.871142035E-01
 -5.000000000E-01 -4.000000000E-01 6.897326552E-01
 -5.000000000E-01 -4.500000000E-01 6.924254540E-01
 -5.000000000E-01 -5.000000000E-01 6.951247140E-01
 -5.000000000E-01 -5.500000000E-01 6.977884626E-01
 -5.000000000E-01 -6.000000000E-01 7.004220670E-01
 -5.000000000E-01 -6.500000000E-01 7.030152728E-01
 -5.000000000E-01 -7.000000000E-01 7.055585427E-01
 -5.000000000E-01 -7.500000000E-01 7.081146911E-01
 -5.000000000E-01 -8.000000000E-01 7.107031171E-01
 -5.000000000E-01 -8.500000000E-01 7.134694234E-01
 -5.000000000E-01 -9.000000000E-01 7.166176365E-01
 -5.000000000E-01 -9.500000000E-01 7.207834953E-01
 -4.500000000E-01 -1.000000000E+00 7.205909712E-01
 -4.000000000E-01 -1.000000000E+00 7.165880893E-01
 -3.500000000E-01 -1.000000000E+00 7.140037322E-01
 -3.000000000E-01 -1.000000000E+00 7.123166070E-01
 -2.500000000E-01 -1.000000000E+00 7.113515506E-01
 -2.000000000E-01 -1.000000000E+00 7.110539681E-01
 -1.500000000E-01 -1.000000000E+00 7.114490876E-01
 -1.000000000E-01 -1.000000000E+00 7.126085639E-01
 -5.000000000E-02 -1.000000000E+00 7.143924665E-01
 -9.424683256E-13 -1.000000000E+00 7.167062811E-01
 5.000000000E-02 -1.000000000E+00 7.197372924E-01
 1.000000000E-01 -1.000000000E+00 7.232694280E-01
 1.500000000E-01 -1.000000000E+00 7.271227338E-01
 2.000000000E-01 -1.000000000E+00 7.311826859E-01
 2.500000000E-01 -1.000000000E+00 7.353085697E-01
 3.000000000E-01 -1.000000000E+00 7.392152559E-01
 3.500000000E-01 -1.000000000E+00 7.425005082E-01
 4.000000000E-01 -1.000000000E+00 7.451372500E-01
 4.500000000E-01 -1.000000000E+00 7.469575411E-01
 5.000000000E-01 -1.000000000E+00 7.478351208E-01
 5.500000000E-01 -1.000000000E+00 7.477677014E-01
 6.000000000E-01 -1.000000000E+00 7.470521537E-01
 6.500000000E-01 -1.000000000E+00 7.455132826E-01
 7.000000000E-01 -1.000000000E+00 7.436006505E-01
 7.500000000E-01 -1.000000000E+00 7.410499738E-01
 8.000000000E-01 -1.000000000E+00 7.382867225E-01
 8.500000000E-01 -1.000000000E+00 7.352036069E-01
 9.000000000E-01 -1.000000000E+00 7.322500780E-01
 9.500000000E-01 -1.000000000E+00 7.293279090E-01
 1.000000000E+00 -1.000000000E+00 7.265350745E-01
 1.050000000E+00 -1.000000000E+00 7.239898668E-01
 1.100000000E+00 -1.000000000E+00 7.216219652E-01
 1.150000000E+00 -1.000000000E+00 7.196131525E-01
 1.200000000E+00 -1.000000000E+00 7.178488354E-01
 1.250000000E+00 -1.000000000E+00 7.164526381E-01
 1.300000000E+00 -1.000000000E+00 7.154074141E-01
 1.350000000E+00 -1.000000000E+00 7.146148688E-01
 1.400000000E+00 -1.000000000E+00 7.140352330E-01
 1.450000000E+00 -1.000000000E+00 7.136366128E-01
 1.500000000E+00 -1.000000000E+00 7.134306544E-01
 1.550000000E+00 -1.000000000E+00 7.133743909E-01
 1.600000000E+00 -1.000000000E+00 7.133813644E-01
 1.650000000E+00 -1.000000000E+00 7.135374260E-01
 1.700000000E+00 -1.000000000E+00 7.137664201E-01
 1.750000000E+00 -1.000000000E+00 7.141197642E-01
 1.800000000E+00 -1.000000000E+00 7.144464529E-01
 1.850000000E+00 -1.000000000E+00 7.148157218E-01
 1.900000000E+00 -1.000000000E+00 7.152173698E-01
 1.950000000E+00 -1.000000000E+00 7.156583522E-01
 2.000000000E+00 -1.000000000E+00 7.160799406E-01
 2.050000000E+00 -1.000000000E+00 7.165132083E-01
 2.100000000E+00 -1.000000000E+00 7.169381911E-01
 2.150000000E+00 -1.000000000E+00 7.173316280E-01
 2.200000000E+00 -1.000000000E+00 7.177520383E-01
 2.250000000E+00 -1.000000000E+00 7.181523779E-01
 2.300000000E+00 -1.000000000E+00 7.185098723E-01
 2.350000000E+00 -1.000000000E+00 7.189237618E-01
 2.400000000E+00 -1.000000000E+00 7.192831338E-01
 2.450000000E+00 -1.000000000E+00 7.196168564E-01
 2.500000000E+00 -1.000000000E+00 7.199221511E-01
 2.550000000E+00 -1.000000000E+00 7.202294554E-01
 2.600000000E+00 -1.000000000E+00 7.204748540E-01
 2.650000000E+00 -1.000000000E+00 7.207470648E-01
 2.700000000E+00 -1.000000000E+00 7.209586340E-01
 2.750000000E+00 -1.000000000E+00 7.211428923E-01
 2.800000000E+00 -1.000000000E+00 7.213423745E-01
 2.850000000E+00 -1.000000000E+00 7.215091620E-01
 2.900000000E+00 -1.000000000E+00 7.216902358E-01
 2.950000000E+00 -1.000000000E+00 7.217936713E-01
 3.000000000E+00 -1.000000000E+00 7.219931793E-01
 3.050000000E+00 -1.000000000E+00 7.220918815E-01
 3.100000000E+00 -1.000000000E+00 7.221527240E-01
 3.150000000E+00 -1.000000000E+00 7.223047092E-01
 3.200000000E+00 -1.000000000E+00 7.224348622E-01
 3.250000000E+00 -1.000000000E+00 7.225756872E-01
 3.300000000E+00 -1.000000000E+00 7.227898354E-01
 3.350000000E+00 -1.000000000E+00 7.231532764E-01
 3.400000000E+00 -1.000000000E+00 7.235977107E-01
 3.450000000E+00 -1.000000000E+00 7.249190653E-01
 3.500000000E+00 -9.500000000E-01 7.294328244E-01
 3.500000000E+00 -9.000000000E-01 7.304306552E-01
 3.500000000E+00 -8.500000000E-01 7.310788972E-01
 3.500000000E+00 -8.000000000E-01 7.314979397E-01
 3.500000000E+00 -7.500000000E-01 7.317873540E-01
 3.500000000E+00 -7.000000000E-01 7.320549594E-01
 3.500000000E+00 -6.500000000E-01 7.323742397E-01
 3.500000000E+00 -6.000000000E-01 7.327026469E-01
 3.500000000E+00 -5.500000000E-01 7.330691645E-01
 3.500000000E+00 -5.000000000E-01 7.334635102E-01
 3.500000000E+00 -4.500000000E-01 7.338436417E-01
 3.500000000E+00 -4.000000000E-01 7.342042327E-01
 3.500000000E+00 -3.500000000E-01 7.345718484E-01
 3.500000000E+00 -3.000000000E-01 7.349426986E-01
 3.500000000E+00 -2.500000000E-01 7.352990312E-01
 3.500000000E+00 -2.000000000E-01 7.355743833E-01
 3.500000000E+00 -1.500000000E-01 7.357274977E-01
 3.500000000E+00 -1.000000000E-01 7.357732170E-01
 3.500000000E+00 -5.000000000E-02 7.357609837E-01
 3.500000000E+00 -2.752242878E-12 7.357378716E-01
 3.500000000E+00 5.000000000E-02 7.356956833E-01
 3.500000000E+00 1.000000000E-01 7.355672016E-01
 3.500000000E+00 1.500000000E-01 7.353206512E-01
 3.500000000E+00 2.000000000E-01 7.349733539E-01
 3.500000000E+00 2.500000000E-01 7.345940889E-01
 3.500000000E+00 3.000000000E-01 7.342024956E-01
 3.500000000E+00 3.500000000E-01 7.338278462E-01
 3.500000000E+00 4.000000000E-01 7.334565634E-01
 3.500000000E+00 4.500000000E-01 7.330464579E-01
 3.500000000E+00 5.000000000E-01 7.325851251E-01
 3.500000000E+00 5.500000000E-01 7.321360445E-01
 3.500000000E+00 6.000000000E-01 7.319193806E-01
 3.500000000E+00 6.500000000E-01 7.321022318E-01
 3.500000000E+00 7.000000000E-01 7.324691349E-01
 3.500000000E+00 7.500000000E-01 7.323598651E-01
 3.500000000E+00 8.000000000E-01 7.312344001E-01
 3.500000000E+00 8.500000000E-01 7.283685446E-01
 3.500000000E+00 9.000000000E-01 7.238686172E-01
 3.500000000E+00 9.500000000E-01 7.182568184E-01
 3.450000000E+00 1.000000000E+00 6.993329567E-01
 3.400000000E+00 1.000000000E+00 6.944580235E-01
 3.350000000E+00 1.000000000E+00 6.932022004E-01
 3.300000000E+00 1.000000000E+00 6.927384215E-01
 3.250000000E+00 1.000000000E+00 6.926412039E-01
 3.200000000E+00 1.000000000E+00 6.925897215E-01
 3.150000000E+00 1.000000000E+00 6.927240728E-01
 3.100000000E+00 1.000000000E+00 6.930667234E-01
 3.050000000E+00 1.000000000E+00 6.936111394E-01
 3.000000000E+00 1.000000000E+00 6.943577559E-01
 2.950000000E+00 1.000000000E+00 6.948408860E-01
 2.900000000E+00 1.000000000E+00 6.946327170E-01
 2.850000000E+00 1.000000000E+00 6.949252678E-01
 2.800000000E+00 1.000000000E+00 6.951563696E-01
 2.750000000E+00 1.000000000E+00 6.957471833E-01
 2.700000000E+00 1.000000000E+00 6.963930520E-01
 2.650000000E+00 1.000000000E+00 6.968481985E-01
 2.600000000E+00 1.000000000E+00 6.973448957E-01
 2.550000000E+00 1.000000000E+00 6.978603293E-01
 2.500000000E+00 1.000000000E+00 6.983283929E-01
 2.450000000E+00 1.000000000E+00 6.988215683E-01
 2.400000000E+00 1.000000000E+00 6.992780320E-01
 2.350000000E+00 1.000000000E+00 6.996061357E-01
 2.300000000E+00 1.000000000E+00 7.001735836E-01
 2.250000000E+00 1.000000000E+00 7.004926305E-01
 2.200000000E+00 1.000000000E+00 7.012004124E-01
 2.150000000E+00 1.000000000E+00 7.018085194E-01
 2.100000000E+00 1.000000000E+00 7.025035547E-01
 2.050000000E+00 1.000000000E+00 7.031110782E-01
 2.000000000E+00 1.000000000E+00 7.036295302E-01
 1.950000000E+00 1.000000000E+00 7.042728017E-01
 1.900000000E+00 1.000000000E+00 7.050963260E-01
 1.850000000E+00 1.000000000E+00 7.058986139E-01
 1.800000000E+00 1.000000000E+00 7.067671249E-01
 1.750000000E+00 1.000000000E+00 7.077079742E-01
 1.700000000E+00 1.000000000E+00 7.087502745E-01
 1.650000000E+00 1.000000000E+00 7.098227948E-01
 1.600000000E+00 1.000000000E+00 7.109907702E-01
 1.550000000E+00 1.000000000E+00 7.122370793E-01
 1.500000000E+00 1.000000000E+00 7.139273544E-01
 1.450000000E+00 1.000000000E+00 7.161379073E-01
 1.400000000E+00 1.000000000E+00 7.178025933E-01
 1.350000000E+00 1.000000000E+00 7.212857663E-01
 1.300000000E+00 1.000000000E+00 7.240477950E-01
 1.250000000E+00 1.000000000E+00 7.269199048E-01
 1.200000000E+00 1.000000000E+00 7.302346911E-01
 1.150000000E+00 1.000000000E+00 7.336650626E-01
 1.100000000E+00 1.000000000E+00 7.372980341E-01
 1.050000000E+00 1.000000000E+00 7.410656051E-01
 1.000000000E+00 1.000000000E+00 7.450046800E-01
 9.500000000E-01 1.000000000E+00 7.491710603E-01
 9.000000000E-01 1.000000000E+00 7.546876728E-01
 8.500000000E-01 1.000000000E+00 7.585194057E-01
 8.000000000E-01 1.000000000E+00 7.619912130E-01
 7.500000000E-01 1.000000000E+00 7.655056167E-01
 7.000000000E-01 1.000000000E+00 7.682311831E-01
 6.500000000E-01 1.000000000E+00 7.699183147E-01
 6.000000000E-01 1.000000000E+00 7.712614295E-01
 5.500000000E-01 1.000000000E+00 7.703745807E-01
 5.000000000E-01 1.000000000E+00 7.675210960E-01
 4.500000000E-01 1.000000000E+00 7.647124871E-01
 4.000000000E-01 1.000000000E+00 7.606223000E-01
 3.500000000E-01 1.000000000E+00 7.560051691E-01
 3.000000000E-01 1.000000000E+00 7.506248777E-01
 2.500000000E-01 1.000000000E+00 7.448514814E-01
 2.000000000E-01 1.000000000E+00 7.390540558E-01
 1.500000000E-01 1.000000000E+00 7.334759930E-01
 1.000000000E-01 1.000000000E+00 7.282335892E-01
 5.000000000E-02 1.000000000E+00 7.236831995E-01
 1.733724275E-12 1.000000000E+00 7.198730155E-01
 -5.000000000E-02 1.000000000E+00 7.168247017E-01
 -1.000000000E-01 1.000000000E+00 7.145868658E-01
 -1.500000000E-01 1.000000000E+00 7.130751618E-01
 -2.000000000E-01 1.000000000E+00 7.123644940E-01
 -2.500000000E-01 1.000000000E+00 7.124675077E-01
 -3.000000000E-01 1.000000000E+00 7.132551819E-01
 -3.500000000E-01 1.000000000E+00 7.147319505E-01
 -4.000000000E-01 1.000000000E+00 7.171612087E-01
 -4.500000000E-01 1.000000000E+00 7.209952286E-01
 9.038847024E-01 -6.122466465E-03 5.887868759E-01
 9.865780522E-01 -4.089326094E-03 5.730287095E-01
 8.333900730E-01 -1.495885768E-02 6.266038863E-01
 7.602399040E-01 -2.383654861E-02 6.689742608E-01
 6.880818955E-01 -3.519710602E-02 7.147289655E-01
 6.229227782E-01 -4.511818356E-02 7.609426921E-01
 5.562476017E-01 -5.484064892E-02 8.255788401E-01
 4.905166653E-01 -6.269452897E-02 9.042981680E-01
 4.343169610E-01 -6.846476187E-02 9.745507253E-01
 3.772316508E-01 -7.086569646E-02 1.087973285E+00
 3.221672637E-01 -7.061988092E-02 1.043067046E+00
 2.611081389E-01 -6.896415860E-02 9.933578879E-01
 2.058217743E-01 -6.425460524E-02 9.491736111E-01
 1.496413942E-01 -5.708785574E-02 9.102390562E-01
 9.945475229E-02 -4.893215580E-02 8.733416087E-01
 6.138160436E-02 -4.265462463E-02 8.257367785E-01
 2.512206954E-02 -2.852702207E-02 7.253952823E-01
 1.972762639E+00 -9.572170487E-01 7.182955884E-01
 1.971866576E+00 9.585209416E-01 7.133948327E-01
 9.455171314E-01 -4.867341057E-03 5.822499379E-01