TITLE     = "Visualization of the solution"
VARIABLES = "x"
"y"
"Mach"
ZONE T="Zone"
 STRANDID=0, SOLUTIONTIME=0
 Nodes=11945, Elements=23309, ZONETYPE=FEQuadrilateral
 DATAPACKING=POINT
 DT=(DOUBLE DOUBLE DOUBLE )
 1.000092983E+00 5.129636847E-04 5.171114032E-01
 9.891878963E-01 2.801975934E-03 6.201882639E-01
 9.768233299E-01 5.382170901E-03 6.569623383E-01
 9.595890641E-01 8.972780779E-03 6.870823995E-01
 9.440802932E-01 1.213491242E-02 7.017716726E-01
 9.289410114E-01 1.536840014E-02 7.317191160E-01
 9.171388745E-01 1.777875610E-02 7.449109809E-01
 9.057196975E-01 2.007353865E-02 7.560191831E-01
 8.940421343E-01 2.240033448E-02 7.680843632E-01
 8.825942874E-01 2.466737106E-02 7.828296862E-01
 8.703082204E-01 2.705298178E-02 7.989874738E-01
 8.574226499E-01 2.944710851E-02 8.081045175E-01
 8.449164033E-01 3.169227764E-02 8.131178481E-01
 8.344624043E-01 3.358238935E-02 8.272271252E-01
 8.226566911E-01 3.564275056E-02 8.354541224E-01
 8.098719716E-01 3.780810907E-02 8.423140574E-01
 7.971792221E-01 3.991924599E-02 8.511193615E-01
 7.843928933E-01 4.201396927E-02 8.634789410E-01
 7.721304297E-01 4.395158589E-02 8.704739266E-01
 7.605711222E-01 4.573715851E-02 8.773817402E-01
 7.474313974E-01 4.772036150E-02 8.848740166E-01
 7.339175940E-01 4.973071814E-02 8.992328713E-01
 7.231525183E-01 5.127010494E-02 9.063928660E-01
 7.120026946E-01 5.282303318E-02 9.132767355E-01
 7.001487613E-01 5.442469195E-02 9.203631165E-01
 6.866539717E-01 5.620715767E-02 9.329445662E-01
 6.736962199E-01 5.783122033E-02 9.407752231E-01
 6.635351181E-01 5.906904861E-02 9.477311227E-01
 6.516746283E-01 6.043228880E-02 9.481032333E-01
 6.394334435E-01 6.179559231E-02 9.396877754E-01
 6.276813745E-01 6.304585189E-02 9.147666320E-01
 6.155921221E-01 6.422346085E-02 1.045370198E+00
 6.048574448E-01 6.522671878E-02 1.159385939E+00
 5.926634073E-01 6.631999463E-02 1.137155913E+00
 5.812839270E-01 6.725550443E-02 1.128895777E+00
 5.680611134E-01 6.825327128E-02 1.124364749E+00
 5.558397770E-01 6.907184422E-02 1.115276902E+00
 5.440316200E-01 6.978891045E-02 1.113223123E+00
 5.334922671E-01 7.039130479E-02 1.106413180E+00
 5.221687555E-01 7.093644887E-02 1.093604526E+00
 5.102973580E-01 7.143904269E-02 1.093681628E+00
 4.993831217E-01 7.187328488E-02 1.087306608E+00
 4.863244891E-01 7.226770371E-02 1.071203501E+00
 4.726597965E-01 7.257872820E-02 1.064944182E+00
 4.591953158E-01 7.280788571E-02 1.060210123E+00
 4.464133382E-01 7.294824719E-02 1.050636669E+00
 4.340149760E-01 7.299081236E-02 1.042855330E+00
 4.220053256E-01 7.299248874E-02 1.039230939E+00
 4.098159075E-01 7.290066779E-02 1.028746815E+00
 3.977688253E-01 7.275611162E-02 1.026026232E+00
 3.856130838E-01 7.254824042E-02 1.020815007E+00
 3.739434183E-01 7.227485627E-02 1.011154851E+00
 3.611527383E-01 7.191073149E-02 1.009479157E+00
 3.483383060E-01 7.148857415E-02 1.005653267E+00
 3.347772956E-01 7.092926651E-02 9.956053675E-01
 3.235582411E-01 7.041840255E-02 9.932270577E-01
 3.107849061E-01 6.976513565E-02 9.876243815E-01
 2.975309193E-01 6.899038702E-02 9.786851040E-01
 2.836176753E-01 6.809854507E-02 9.748072790E-01
 2.717052996E-01 6.724778563E-02 9.659035596E-01
 2.597620189E-01 6.632940471E-02 9.608567462E-01
 2.474022806E-01 6.531217694E-02 9.588248548E-01
 2.351054400E-01 6.420542300E-02 9.521600307E-01
 2.226603776E-01 6.298734993E-02 9.435218625E-01
 2.104153037E-01 6.170476228E-02 9.371255492E-01
 1.982569546E-01 6.034054607E-02 9.296199137E-01
 1.856490672E-01 5.882274732E-02 9.229359148E-01
 1.738033742E-01 5.730293691E-02 9.170830456E-01
 1.621696949E-01 5.569246039E-02 9.072362258E-01
 1.502914727E-01 5.395162851E-02 9.012605286E-01
 1.394394636E-01 5.223808810E-02 8.899600113E-01
 1.275572330E-01 5.026073009E-02 8.840434203E-01
 1.163076982E-01 4.822470248E-02 8.711472358E-01
 1.058673263E-01 4.622621089E-02 8.602633936E-01
 9.601397067E-02 4.420994967E-02 8.518163810E-01
 8.525741845E-02 4.184820876E-02 8.376184542E-01
 7.396767288E-02 3.917305917E-02 8.218199815E-01
 6.429352611E-02 3.667659312E-02 8.070675369E-01
 5.463175476E-02 3.398091719E-02 7.900918619E-01
 4.629948735E-02 3.144359589E-02 7.718741365E-01
 3.908623382E-02 2.905822732E-02 7.528131655E-01
 3.263251856E-02 2.672648430E-02 7.313747250E-01
 2.702733874E-02 2.452775463E-02 7.123082294E-01
 2.290813439E-02 2.277662978E-02 6.917730273E-01
 1.890747249E-02 2.093157731E-02 6.681043648E-01
 1.556742284E-02 1.925446838E-02 6.411241601E-01
 1.245544758E-02 1.755185053E-02 6.153431718E-01
 1.017246582E-02 1.618853770E-02 5.925548606E-01
 8.226009086E-03 1.492523588E-02 5.682033229E-01
 6.458747666E-03 1.366844494E-02 5.351557233E-01
 4.214522429E-03 1.186613552E-02 4.846200162E-01
 2.237078967E-03 9.971733205E-03 4.273750856E-01
 6.171221030E-04 8.032298647E-03 3.320096406E-01
 -9.756378713E-04 5.155183375E-03 1.932900117E-01
 -1.526357955E-03 3.097214503E-03 5.723848879E-02
 -1.602213597E-03 1.464252826E-03 6.459503359E-02
 -1.367725083E-03 -1.647230238E-04 1.851303899E-01
 -8.862287505E-04 -1.621582895E-03 2.910625153E-01
 6.075744386E-05 -3.435490886E-03 3.892196600E-01
 1.417965628E-03 -5.266243126E-03 4.815951015E-01
 3.260244383E-03 -7.172893267E-03 5.548832105E-01
 4.964537453E-03 -8.621713147E-03 6.076598384E-01
 6.833157968E-03 -9.999836795E-03 6.446913352E-01
 8.466878906E-03 -1.107749902E-02 6.742741125E-01
 1.053196937E-02 -1.231177710E-02 6.990696607E-01
 1.280733850E-02 -1.354340836E-02 7.212701843E-01
 1.602809690E-02 -1.511707529E-02 7.438442981E-01
 1.879234798E-02 -1.634066738E-02 7.659868186E-01
 2.240561880E-02 -1.780555397E-02 7.799256316E-01
 2.761370316E-02 -1.970228739E-02 7.934046659E-01
 3.327836841E-02 -2.155533433E-02 8.062518288E-01
 4.006458819E-02 -2.354350686E-02 8.173777627E-01
 4.762481153E-02 -2.554745972E-02 8.265446623E-01
 5.656976998E-02 -2.769249119E-02 8.339234892E-01
 6.519036740E-02 -2.957660146E-02 8.402788935E-01
 7.516118884E-02 -3.158340603E-02 8.457376353E-01
 8.522028476E-02 -3.345941380E-02 8.522839553E-01
 9.539257735E-02 -3.520964086E-02 8.551657007E-01
 1.066920832E-01 -3.703538701E-02 8.605787984E-01
 1.180566996E-01 -3.874886036E-02 8.659813697E-01
 1.299158186E-01 -4.042275622E-02 8.707065501E-01
 1.407275647E-01 -4.186280444E-02 8.765109147E-01
 1.519680321E-01 -4.328003526E-02 8.827729499E-01
 1.641974151E-01 -4.472121969E-02 8.872585274E-01
 1.759317666E-01 -4.602856562E-02 8.938934668E-01
 1.880344301E-01 -4.729836807E-02 9.011258785E-01
 1.990206242E-01 -4.837458208E-02 9.071011414E-01
 2.102500647E-01 -4.940994456E-02 9.132479978E-01
 2.226192206E-01 -5.047220737E-02 9.207462688E-01
 2.355036736E-01 -5.149021000E-02 9.286287264E-01
 2.478045076E-01 -5.237900466E-02 9.368894053E-01
 2.598468959E-01 -5.316439271E-02 9.439857588E-01
 2.711996436E-01 -5.382916331E-02 9.504140896E-01
 2.837293446E-01 -5.448493361E-02 9.602671640E-01
 2.961798906E-01 -5.503772572E-02 9.702108597E-01
 3.092341721E-01 -5.550788343E-02 9.782121845E-01
 3.213680983E-01 -5.583892018E-02 9.851616122E-01
 3.342367709E-01 -5.607817695E-02 9.880559794E-01
 3.455651104E-01 -5.620326474E-02 9.962034319E-01
 3.572746813E-01 -5.623510107E-02 1.005305910E+00
 3.680586219E-01 -5.615553260E-02 1.006658408E+00
 3.790863156E-01 -5.598152056E-02 1.001744447E+00
 3.910397589E-01 -5.568042770E-02 9.949040136E-01
 4.047822952E-01 -5.519054458E-02 9.851971418E-01
 4.174909294E-01 -5.459640175E-02 9.757204694E-01
 4.300231934E-01 -5.387300625E-02 9.595691539E-01
 4.425011575E-01 -5.304479226E-02 9.478741120E-01
 4.541543424E-01 -5.214124918E-02 9.317895563E-01
 4.657906890E-01 -5.116007850E-02 9.188656130E-01
 4.777110219E-01 -5.003410578E-02 8.996104066E-01
 4.893827140E-01 -4.888467863E-02 8.907288174E-01
 5.020965338E-01 -4.750342295E-02 8.722203267E-01
 5.157757998E-01 -4.592343420E-02 8.537112372E-01
 5.289350152E-01 -4.433768988E-02 8.385860015E-01
 5.420098305E-01 -4.269131273E-02 8.227663759E-01
 5.541009307E-01 -4.114426672E-02 8.120350055E-01
 5.676088333E-01 -3.936007619E-02 7.985686876E-01
 5.802022219E-01 -3.766078502E-02 7.869217419E-01
 5.921060443E-01 -3.602279350E-02 7.748165029E-01
 6.047928333E-01 -3.426982090E-02 7.635595850E-01
 6.197145581E-01 -3.220511973E-02 7.534511271E-01
 6.340136528E-01 -3.018985130E-02 7.406741607E-01
 6.492939591E-01 -2.803388610E-02 7.275413960E-01
 6.621428728E-01 -2.627182193E-02 7.222438868E-01
 6.753948331E-01 -2.443665452E-02 7.132413327E-01
 6.876460910E-01 -2.274704911E-02 7.058397778E-01
 6.997542977E-01 -2.106460184E-02 6.958137271E-01
 7.138829231E-01 -1.913054101E-02 6.858143025E-01
 7.268945575E-01 -1.739745960E-02 6.780331220E-01
 7.394509912E-01 -1.579087414E-02 6.744092820E-01
 7.531196475E-01 -1.403184794E-02 6.661722476E-01
 7.647761106E-01 -1.253566798E-02 6.564482536E-01
 7.781156301E-01 -1.089159865E-02 6.486603871E-01
 7.899570465E-01 -9.500592016E-03 6.431903109E-01
 8.033003211E-01 -7.994136773E-03 6.376072897E-01
 8.141388893E-01 -6.799723953E-03 6.310781226E-01
 8.256884813E-01 -5.581341684E-03 6.245843211E-01
 8.386809826E-01 -4.274800420E-03 6.166936608E-01
 8.510901928E-01 -3.124224721E-03 6.106082471E-01
 8.631153107E-01 -2.093833406E-03 6.035875328E-01
 8.745504022E-01 -1.234412310E-03 5.998090609E-01
 8.864158988E-01 -4.631643533E-04 5.972620015E-01
 8.989769816E-01 2.545834286E-04 5.919782319E-01
 9.091045260E-01 7.144613774E-04 5.899544133E-01
 9.198234677E-01 1.084873569E-03 5.894097320E-01
 9.291332960E-01 1.325265272E-03 5.885080033E-01
 9.376640916E-01 1.470351708E-03 5.881951055E-01
 9.488252997E-01 1.558995107E-03 5.889450997E-01
 9.613736272E-01 1.528006047E-03 5.894580087E-01
 9.757019877E-01 1.321727759E-03 5.895946818E-01
 9.883427620E-01 9.935109410E-04 5.838554092E-01
 -5.000000000E-01 -1.000000000E+00 7.236778194E-01
 3.500000000E+00 -1.000000000E+00 7.284797790E-01
 3.500000000E+00 1.000000000E+00 7.089160709E-01
 -5.000000000E-01 1.000000000E+00 7.239652586E-01
 9.946404397E-01 1.657469809E-03 5.983035973E-01
 9.830056131E-01 4.092073417E-03 6.398867254E-01
 9.682061970E-01 7.177475840E-03 6.727213111E-01
 9.518346786E-01 1.055384660E-02 6.944492370E-01
 9.365106523E-01 1.375165628E-02 7.171120929E-01
 9.230399430E-01 1.657357812E-02 7.393544663E-01
 9.114292860E-01 1.892614737E-02 7.504479221E-01
 8.998809159E-01 2.123693656E-02 7.618437342E-01
 8.883182108E-01 2.353385277E-02 7.752446548E-01
 8.764512539E-01 2.586017642E-02 7.914065888E-01
 8.638654351E-01 2.825004514E-02 8.042763109E-01
 8.511695266E-01 3.056969307E-02 8.097509205E-01
 8.396894038E-01 3.263733350E-02 8.205987675E-01
 8.285595477E-01 3.461256996E-02 8.317330218E-01
 8.162643313E-01 3.672542982E-02 8.387194017E-01
 8.035255969E-01 3.886367753E-02 8.462701434E-01
 7.907860577E-01 4.096660763E-02 8.576735656E-01
 7.782616615E-01 4.298277758E-02 8.670778932E-01
 7.663507760E-01 4.484437220E-02 8.741378583E-01
 7.540012598E-01 4.672876000E-02 8.803892610E-01
 7.406744957E-01 4.872553982E-02 8.922311098E-01
 7.285350561E-01 5.050041154E-02 9.031152169E-01
 7.175776064E-01 5.204656906E-02 9.102183398E-01
 7.060757279E-01 5.362386256E-02 9.158672321E-01
 6.934013665E-01 5.531592481E-02 9.274566214E-01
 6.801750958E-01 5.701918900E-02 9.360387769E-01
 6.686156690E-01 5.845013447E-02 9.461033943E-01
 6.576048732E-01 5.975066870E-02 9.471683156E-01
 6.455540359E-01 6.111394055E-02 9.479547242E-01
 6.335574090E-01 6.242072210E-02 9.229395436E-01
 6.216367483E-01 6.363465637E-02 9.472924683E-01
 6.102247834E-01 6.472508982E-02 1.136519217E+00
 5.987604260E-01 6.577335671E-02 1.150572757E+00
 5.869736671E-01 6.678774953E-02 1.130659228E+00
 5.746725202E-01 6.775438786E-02 1.127776008E+00
 5.619504452E-01 6.866255775E-02 1.119157352E+00
 5.499356985E-01 6.943037733E-02 1.113101620E+00
 5.387619436E-01 7.009010762E-02 1.112544964E+00
 5.278305113E-01 7.066387683E-02 1.098389970E+00
 5.162330568E-01 7.118774578E-02 1.092147885E+00
 5.048402399E-01 7.165616378E-02 1.094315413E+00
 4.928538054E-01 7.207049429E-02 1.077827137E+00
 4.794921428E-01 7.242321596E-02 1.067177678E+00
 4.659275562E-01 7.269330695E-02 1.062923871E+00
 4.528043270E-01 7.287806645E-02 1.056316526E+00
 4.402141571E-01 7.296952978E-02 1.044664316E+00
 4.280101508E-01 7.299165055E-02 1.043069185E+00
 4.159106165E-01 7.294657826E-02 1.032793071E+00
 4.037923664E-01 7.282838970E-02 1.027257602E+00
 3.916909546E-01 7.265217602E-02 1.024344460E+00
 3.797782511E-01 7.241154835E-02 1.015699027E+00
 3.675480783E-01 7.209279388E-02 1.009091740E+00
 3.547455221E-01 7.169965282E-02 1.009763553E+00
 3.415578008E-01 7.120892033E-02 9.990342407E-01
 3.291677684E-01 7.067383453E-02 9.946098696E-01
 3.171715736E-01 7.009176910E-02 9.913675508E-01
 3.041579127E-01 6.937776133E-02 9.825170872E-01
 2.905742973E-01 6.854446605E-02 9.768550136E-01
 2.776614875E-01 6.767316535E-02 9.704983532E-01
 2.657336593E-01 6.678859517E-02 9.626854455E-01
 2.535821497E-01 6.582079083E-02 9.602498135E-01
 2.412538603E-01 6.475879997E-02 9.560725590E-01
 2.288829088E-01 6.359638646E-02 9.475132514E-01
 2.165378407E-01 6.234605610E-02 9.403464828E-01
 2.043361291E-01 6.102265418E-02 9.336205490E-01
 1.919530109E-01 5.958164670E-02 9.256523358E-01
 1.797262207E-01 5.806284212E-02 9.208295440E-01
 1.679865345E-01 5.649769865E-02 9.115991016E-01
 1.562305838E-01 5.482204445E-02 9.047412275E-01
 1.448654681E-01 5.309485830E-02 8.951729238E-01
 1.334983483E-01 5.124940909E-02 8.878585639E-01
 1.219324656E-01 4.924271628E-02 8.768353121E-01
 1.110875122E-01 4.722545668E-02 8.672368511E-01
 9.063569456E-02 4.302907921E-02 8.447260560E-01
 7.961254567E-02 4.051063396E-02 8.313221686E-01
 7.017577812E-02 -3.058000375E-02 8.437263643E-01
 8.019073680E-02 -3.252140991E-02 8.488618003E-01
 9.030643106E-02 -3.433452733E-02 8.544371821E-01
 1.010423303E-01 -3.612251393E-02 8.572614453E-01
 1.123743914E-01 -3.789212368E-02 8.635427420E-01
 1.239862591E-01 -3.958580829E-02 8.681312098E-01
 1.353216916E-01 -4.114278033E-02 8.738578196E-01
 1.463477984E-01 -4.257141985E-02 8.795227068E-01
 1.580827236E-01 -4.400062747E-02 8.849850581E-01
 1.700645909E-01 -4.537489265E-02 8.904485456E-01
 1.819830984E-01 -4.666346684E-02 8.972940975E-01
 1.935275272E-01 -4.783647507E-02 9.046139656E-01
 2.046353444E-01 -4.889226332E-02 9.099154258E-01
 2.164346427E-01 -4.994107597E-02 9.168323643E-01
 2.290614471E-01 -5.098120868E-02 9.245127096E-01
 2.416540906E-01 -5.193460733E-02 9.328073449E-01
 2.538257018E-01 -5.277169868E-02 9.405854194E-01
 2.655232698E-01 -5.349677801E-02 9.473384958E-01
 2.774644941E-01 -5.415704846E-02 9.544751666E-01
 2.899546176E-01 -5.476132967E-02 9.658336719E-01
 3.027070314E-01 -5.527280457E-02 9.739241199E-01
 3.153011352E-01 -5.567340180E-02 9.824111894E-01
 3.278024346E-01 -5.595854856E-02 9.864344063E-01
 3.399009407E-01 -5.614072084E-02 9.917024684E-01
 3.514198959E-01 -5.621918291E-02 1.000653782E+00
 3.626666516E-01 -5.619531684E-02 1.007795838E+00
 3.735724688E-01 -5.606852658E-02 1.004297300E+00
 3.850630373E-01 -5.583097413E-02 9.986729529E-01
 3.979110271E-01 -5.543548614E-02 9.896449658E-01
 4.111366123E-01 -5.489347316E-02 9.811423363E-01
 4.237570614E-01 -5.423470400E-02 9.682433430E-01
 4.362621754E-01 -5.345889926E-02 9.528036867E-01
 4.483277500E-01 -5.259302072E-02 9.411138596E-01
 4.599725157E-01 -5.165066384E-02 9.245810057E-01
 4.717508554E-01 -5.059709214E-02 9.098964429E-01
 4.835468680E-01 -4.945939220E-02 8.940878738E-01
 4.957396239E-01 -4.819405079E-02 8.827835928E-01
 5.089361668E-01 -4.671342857E-02 8.623711228E-01
 5.223554075E-01 -4.513056204E-02 8.461733271E-01
 5.354724228E-01 -4.351450130E-02 8.304777845E-01
 5.480553806E-01 -4.191778973E-02 8.171223945E-01
 5.608548820E-01 -4.025217146E-02 8.053754412E-01
 5.739055276E-01 -3.851043060E-02 7.926552689E-01
 5.861541331E-01 -3.684178926E-02 7.808851662E-01
 5.984494388E-01 -3.514630720E-02 7.689946772E-01
 6.122536957E-01 -3.323747031E-02 7.585117968E-01
 6.268641055E-01 -3.119748551E-02 7.472998684E-01
 6.416538060E-01 -2.911186870E-02 7.338511560E-01
 6.557184160E-01 -2.715285402E-02 7.243274579E-01
 6.687688529E-01 -2.535423823E-02 7.180275876E-01
 6.815204620E-01 -2.359185182E-02 7.094735860E-01
 6.937001944E-01 -2.190582547E-02 7.010340522E-01
 7.068186104E-01 -2.009757143E-02 6.908359574E-01
 7.203887403E-01 -1.826400030E-02 6.815640743E-01
 7.331727743E-01 -1.659416687E-02 6.760350940E-01
 7.462853193E-01 -1.491136104E-02 6.707114279E-01
 7.589478791E-01 -1.328375796E-02 6.612546776E-01
 7.714458704E-01 -1.171363331E-02 6.525521356E-01
 7.840363383E-01 -1.019609533E-02 6.455582076E-01
 7.966286838E-01 -8.747364394E-03 6.406106207E-01
 8.087196052E-01 -7.396930363E-03 6.342227870E-01
 8.199136853E-01 -6.190532818E-03 6.279353167E-01
 8.321847320E-01 -4.928071052E-03 6.207623158E-01
 8.448855877E-01 -3.699512570E-03 6.135899348E-01
 8.571027517E-01 -2.609029063E-03 6.071022677E-01
 8.688328564E-01 -1.664122858E-03 6.012557771E-01
 8.804831505E-01 -8.487883315E-04 5.985722598E-01
 8.926964402E-01 -1.042904623E-04 5.949465683E-01
 9.040407538E-01 4.845224030E-04 5.902876044E-01
 9.144639969E-01 8.996674733E-04 5.898122105E-01
 9.432446957E-01 1.514673408E-03 5.886854454E-01
 9.550994635E-01 1.543500577E-03 5.892499628E-01
 9.685378075E-01 1.424866903E-03 5.899365076E-01
 9.820223749E-01 1.157619350E-03 5.866837560E-01
 9.942178726E-01 7.532373129E-04 5.834685645E-01
 -5.000000000E-01 9.500000000E-01 7.215445633E-01
 -5.000000000E-01 9.000000000E-01 7.177516214E-01
 -5.000000000E-01 8.500000000E-01 7.148491331E-01
 -5.000000000E-01 8.000000000E-01 7.122605646E-01
 -5.000000000E-01 7.500000000E-01 7.098475154E-01
 -5.000000000E-01 7.000000000E-01 7.074454672E-01
 -5.000000000E-01 6.500000000E-01 7.050278139E-01
 -5.000000000E-01 6.000000000E-01 7.025746625E-01
 -5.000000000E-01 5.500000000E-01 7.000026525E-01
 -5.000000000E-01 5.000000000E-01 6.974158722E-01
 -5.000000000E-01 4.500000000E-01 6.948484916E-01
 -5.000000000E-01 4.000000000E-01 6.922743985E-01
 -5.000000000E-01 3.500000000E-01 6.897380967E-01
 -5.000000000E-01 3.000000000E-01 6.872955197E-01
 -5.000000000E-01 2.500000000E-01 6.850706793E-01
 -5.000000000E-01 2.000000000E-01 6.831151816E-01
 -5.000000000E-01 1.500000000E-01 6.814887903E-01
 -5.000000000E-01 1.000000000E-01 6.802633244E-01
 -5.000000000E-01 5.000000000E-02 6.795750690E-01
 -5.000000000E-01 2.752242878E-12 6.793100823E-01
 -5.000000000E-01 -5.000000000E-02 6.795743206E-01
 -5.000000000E-01 -1.000000000E-01 6.803381168E-01
 -5.000000000E-01 -1.500000000E-01 6.815668768E-01
 -5.000000000E-01 -2.000000000E-01 6.831774983E-01
 -5.000000000E-01 -2.500000000E-01 6.850824665E-01
 -5.000000000E-01 -3.000000000E-01 6.872470868E-01
 -5.000000000E-01 -3.500000000E-01 6.895983989E-01
 -5.000000000E-01 -4.000000000E-01 6.920064491E-01
 -5.000000000E-01 -4.500000000E-01 6.945267246E-01
 -5.000000000E-01 -5.000000000E-01 6.969959127E-01
 -5.000000000E-01 -5.500000000E-01 6.994716546E-01
 -5.000000000E-01 -6.000000000E-01 7.019107533E-01
 -5.000000000E-01 -6.500000000E-01 7.043268844E-01
 -5.000000000E-01 -7.000000000E-01 7.067115814E-01
 -5.000000000E-01 -7.500000000E-01 7.090877595E-01
 -5.000000000E-01 -8.000000000E-01 7.115398680E-01
 -5.000000000E-01 -8.500000000E-01 7.141511911E-01
 -5.000000000E-01 -9.000000000E-01 7.171637764E-01
 -5.000000000E-01 -9.500000000E-01 7.211305305E-01
 -4.500000000E-01 -1.000000000E+00 7.209546229E-01
 -4.000000000E-01 -1.000000000E+00 7.170446001E-01
 -3.500000000E-01 -1.000000000E+00 7.145256800E-01
 -3.000000000E-01 -1.000000000E+00 7.128376903E-01
 -2.500000000E-01 -1.000000000E+00 7.117965251E-01
 -2.000000000E-01 -1.000000000E+00 7.113833067E-01
 -1.500000000E-01 -1.000000000E+00 7.115699913E-01
 -1.000000000E-01 -1.000000000E+00 7.123095059E-01
 -5.000000000E-02 -1.000000000E+00 7.136264253E-01
 -9.424683256E-13 -1.000000000E+00 7.155651156E-01
 5.000000000E-02 -1.000000000E+00 7.179394351E-01
 1.000000000E-01 -1.000000000E+00 7.206619056E-01
 1.500000000E-01 -1.000000000E+00 7.237450922E-01
 2.000000000E-01 -1.000000000E+00 7.269503741E-01
 2.500000000E-01 -1.000000000E+00 7.301756966E-01
 3.000000000E-01 -1.000000000E+00 7.332378725E-01
 3.500000000E-01 -1.000000000E+00 7.358418825E-01
 4.000000000E-01 -1.000000000E+00 7.378716315E-01
 4.500000000E-01 -1.000000000E+00 7.393608950E-01
 5.000000000E-01 -1.000000000E+00 7.400722866E-01
 5.500000000E-01 -1.000000000E+00 7.401811545E-01
 6.000000000E-01 -1.000000000E+00 7.395811850E-01
 6.500000000E-01 -1.000000000E+00 7.383773749E-01
 7.000000000E-01 -1.000000000E+00 7.366720416E-01
 7.500000000E-01 -1.000000000E+00 7.346059089E-01
 8.000000000E-01 -1.000000000E+00 7.322463878E-01
 8.500000000E-01 -1.000000000E+00 7.298120484E-01
 9.000000000E-01 -1.000000000E+00 7.273150220E-01
 9.500000000E-01 -1.000000000E+00 7.248123056E-01
 1.000000000E+00 -1.000000000E+00 7.224837218E-01
 1.050000000E+00 -1.000000000E+00 7.203069551E-01
 1.100000000E+00 -1.000000000E+00 7.184314747E-01
 1.150000000E+00 -1.000000000E+00 7.168378520E-01
 1.200000000E+00 -1.000000000E+00 7.155070983E-01
 1.250000000E+00 -1.000000000E+00 7.144639427E-01
 1.300000000E+00 -1.000000000E+00 7.136852688E-01
 1.350000000E+00 -1.000000000E+00 7.130860847E-01
 1.400000000E+00 -1.000000000E+00 7.128072401E-01
 1.450000000E+00 -1.000000000E+00 7.126601428E-01
 1.500000000E+00 -1.000000000E+00 7.126172596E-01
 1.550000000E+00 -1.000000000E+00 7.127169569E-01
 1.600000000E+00 -1.000000000E+00 7.129079719E-01
 1.650000000E+00 -1.000000000E+00 7.132026742E-01
 1.700000000E+00 -1.000000000E+00 7.135896005E-01
 1.750000000E+00 -1.000000000E+00 7.140415500E-01
 1.800000000E+00 -1.000000000E+00 7.145136339E-01
 1.850000000E+00 -1.000000000E+00 7.149748176E-01
 1.900000000E+00 -1.000000000E+00 7.154323018E-01
 1.950000000E+00 -1.000000000E+00 7.159190946E-01
 2.000000000E+00 -1.000000000E+00 7.164525393E-01
 2.050000000E+00 -1.000000000E+00 7.169302415E-01
 2.100000000E+00 -1.000000000E+00 7.174308830E-01
 2.150000000E+00 -1.000000000E+00 7.179586430E-01
 2.200000000E+00 -1.000000000E+00 7.184655091E-01
 2.250000000E+00 -1.000000000E+00 7.188989231E-01
 2.300000000E+00 -1.000000000E+00 7.193250813E-01
 2.350000000E+00 -1.000000000E+00 7.197664901E-01
 2.400000000E+00 -1.000000000E+00 7.201420371E-01
 2.450000000E+00 -1.000000000E+00 7.205023809E-01
 2.500000000E+00 -1.000000000E+00 7.208547648E-01
 2.550000000E+00 -1.000000000E+00 7.211964578E-01
 2.600000000E+00 -1.000000000E+00 7.215002282E-01
 2.650000000E+00 -1.000000000E+00 7.217773633E-01
 2.700000000E+00 -1.000000000E+00 7.220572758E-01
 2.750000000E+00 -1.000000000E+00 7.223199178E-01
 2.800000000E+00 -1.000000000E+00 7.225236174E-01
 2.850000000E+00 -1.000000000E+00 7.227155993E-01
 2.900000000E+00 -1.000000000E+00 7.228773366E-01
 2.950000000E+00 -1.000000000E+00 7.230547477E-01
 3.000000000E+00 -1.000000000E+00 7.232263297E-01
 3.050000000E+00 -1.000000000E+00 7.233734361E-01
 3.100000000E+00 -1.000000000E+00 7.235177219E-01
 3.150000000E+00 -1.000000000E+00 7.236685627E-01
 3.200000000E+00 -1.000000000E+00 7.238376887E-01
 3.250000000E+00 -1.000000000E+00 7.240196186E-01
 3.300000000E+00 -1.000000000E+00 7.242608513E-01
 3.350000000E+00 -1.000000000E+00 7.246054759E-01
 3.400000000E+00 -1.000000000E+00 7.251079287E-01
 3.450000000E+00 -1.000000000E+00 7.262629013E-01
 3.500000000E+00 -9.500000000E-01 7.298097108E-01
 3.500000000E+00 -9.000000000E-01 7.304960001E-01
 3.500000000E+00 -8.500000000E-01 7.309916282E-01
 3.500000000E+00 -8.000000000E-01 7.313577017E-01
 3.500000000E+00 -7.500000000E-01 7.316532832E-01
 3.500000000E+00 -7.000000000E-01 7.319574980E-01
 3.500000000E+00 -6.500000000E-01 7.322697590E-01
 3.500000000E+00 -6.000000000E-01 7.325913028E-01
 3.500000000E+00 -5.500000000E-01 7.329219352E-01
 3.500000000E+00 -5.000000000E-01 7.332549583E-01
 3.500000000E+00 -4.500000000E-01 7.336030295E-01
 3.500000000E+00 -4.000000000E-01 7.339514183E-01
 3.500000000E+00 -3.500000000E-01 7.342973914E-01
 3.500000000E+00 -3.000000000E-01 7.346569031E-01
 3.500000000E+00 -2.500000000E-01 7.349738182E-01
 3.500000000E+00 -2.000000000E-01 7.352053629E-01
 3.500000000E+00 -1.500000000E-01 7.352961974E-01
 3.500000000E+00 -1.000000000E-01 7.353095736E-01
 3.500000000E+00 -5.000000000E-02 7.352986461E-01
 3.500000000E+00 -2.752242878E-12 7.352930158E-01
 3.500000000E+00 5.000000000E-02 7.352902103E-01
 3.500000000E+00 1.000000000E-01 7.352131847E-01
 3.500000000E+00 1.500000000E-01 7.349905971E-01
 3.500000000E+00 2.000000000E-01 7.346328661E-01
 3.500000000E+00 2.500000000E-01 7.342266069E-01
 3.500000000E+00 3.000000000E-01 7.338466562E-01
 3.500000000E+00 3.500000000E-01 7.334981974E-01
 3.500000000E+00 4.000000000E-01 7.331743059E-01
 3.500000000E+00 4.500000000E-01 7.327876825E-01
 3.500000000E+00 5.000000000E-01 7.323286176E-01
 3.500000000E+00 5.500000000E-01 7.319064357E-01
 3.500000000E+00 6.000000000E-01 7.317776891E-01
 3.500000000E+00 6.500000000E-01 7.320910246E-01
 3.500000000E+00 7.000000000E-01 7.325803490E-01
 3.500000000E+00 7.500000000E-01 7.324554103E-01
 3.500000000E+00 8.000000000E-01 7.309462053E-01
 3.500000000E+00 8.500000000E-01 7.276819784E-01
 3.500000000E+00 9.000000000E-01 7.227393030E-01
 3.500000000E+00 9.500000000E-01 7.167803170E-01
 3.450000000E+00 1.000000000E+00 6.968150461E-01
 3.400000000E+00 1.000000000E+00 6.908930011E-01
 3.350000000E+00 1.000000000E+00 6.894511295E-01
 3.300000000E+00 1.000000000E+00 6.889371281E-01
 3.250000000E+00 1.000000000E+00 6.891177031E-01
 3.200000000E+00 1.000000000E+00 6.896489266E-01
 3.150000000E+00 1.000000000E+00 6.897126129E-01
 3.100000000E+00 1.000000000E+00 6.898007700E-01
 3.050000000E+00 1.000000000E+00 6.901604340E-01
 3.000000000E+00 1.000000000E+00 6.904680207E-01
 2.950000000E+00 1.000000000E+00 6.909804275E-01
 2.900000000E+00 1.000000000E+00 6.917070556E-01
 2.850000000E+00 1.000000000E+00 6.921913372E-01
 2.800000000E+00 1.000000000E+00 6.927537372E-01
 2.750000000E+00 1.000000000E+00 6.931674488E-01
 2.700000000E+00 1.000000000E+00 6.932877980E-01
 2.650000000E+00 1.000000000E+00 6.931723564E-01
 2.600000000E+00 1.000000000E+00 6.933207463E-01
 2.550000000E+00 1.000000000E+00 6.937492856E-01
 2.500000000E+00 1.000000000E+00 6.946897711E-01
 2.450000000E+00 1.000000000E+00 6.950537016E-01
 2.400000000E+00 1.000000000E+00 6.957036447E-01
 2.350000000E+00 1.000000000E+00 6.960924635E-01
 2.300000000E+00 1.000000000E+00 6.965467734E-01
 2.250000000E+00 1.000000000E+00 6.973963948E-01
 2.200000000E+00 1.000000000E+00 6.980111744E-01
 2.150000000E+00 1.000000000E+00 6.985685299E-01
 2.100000000E+00 1.000000000E+00 6.991285139E-01
 2.050000000E+00 1.000000000E+00 6.998708943E-01
 2.000000000E+00 1.000000000E+00 7.005008858E-01
 1.950000000E+00 1.000000000E+00 7.012719349E-01
 1.900000000E+00 1.000000000E+00 7.020019802E-01
 1.850000000E+00 1.000000000E+00 7.027836379E-01
 1.800000000E+00 1.000000000E+00 7.037975816E-01
 1.750000000E+00 1.000000000E+00 7.045777845E-01
 1.700000000E+00 1.000000000E+00 7.061575417E-01
 1.650000000E+00 1.000000000E+00 7.074460147E-01
 1.600000000E+00 1.000000000E+00 7.087417703E-01
 1.550000000E+00 1.000000000E+00 7.103330490E-01
 1.500000000E+00 1.000000000E+00 7.123474735E-01
 1.450000000E+00 1.000000000E+00 7.141961275E-01
 1.400000000E+00 1.000000000E+00 7.162251393E-01
 1.350000000E+00 1.000000000E+00 7.185510145E-01
 1.300000000E+00 1.000000000E+00 7.217738916E-01
 1.250000000E+00 1.000000000E+00 7.250481194E-01
 1.200000000E+00 1.000000000E+00 7.285121214E-01
 1.150000000E+00 1.000000000E+00 7.320996443E-01
 1.100000000E+00 1.000000000E+00 7.358956920E-01
 1.050000000E+00 1.000000000E+00 7.399962084E-01
 1.000000000E+00 1.000000000E+00 7.451520450E-01
 9.500000000E-01 1.000000000E+00 7.491774282E-01
 9.000000000E-01 1.000000000E+00 7.538716929E-01
 8.500000000E-01 1.000000000E+00 7.578377790E-01
 8.000000000E-01 1.000000000E+00 7.624140010E-01
 7.500000000E-01 1.000000000E+00 7.661264241E-01
 7.000000000E-01 1.000000000E+00 7.685578441E-01
 6.500000000E-01 1.000000000E+00 7.699273512E-01
 6.000000000E-01 1.000000000E+00 7.710724556E-01
 5.500000000E-01 1.000000000E+00 7.710459043E-01
 5.000000000E-01 1.000000000E+00 7.686485793E-01
 4.500000000E-01 1.000000000E+00 7.658696579E-01
 4.000000000E-01 1.000000000E+00 7.619149106E-01
 3.500000000E-01 1.000000000E+00 7.568429892E-01
 3.000000000E-01 1.000000000E+00 7.512260757E-01
 2.500000000E-01 1.000000000E+00 7.460232368E-01
 2.000000000E-01 1.000000000E+00 7.401607899E-01
 1.500000000E-01 1.000000000E+00 7.346139000E-01
 1.000000000E-01 1.000000000E+00 7.292768918E-01
 5.000000000E-02 1.000000000E+00 7.247698908E-01
 1.733724275E-12 1.000000000E+00 7.209458401E-01
 -5.000000000E-02 1.000000000E+00 7.178638787E-01
 -1.000000000E-01 1.000000000E+00 7.156163594E-01
 -1.500000000E-01 1.000000000E+00 7.141076069E-01
 -2.000000000E-01 1.000000000E+00 7.133538826E-01
 -2.500000000E-01 1.000000000E+00 7.133308413E-01
 -3.000000000E-01 1.000000000E+00 7.140665961E-01
 -3.500000000E-01 1.000000000E+00 7.154875900E-01
 -4.000000000E-01 1.000000000E+00 7.177840870E-01
 -4.500000000E-01 1.000000000E+00 7.214166640E-01
 9.067717729E-01 -3.785863475E-03 5.931448312E-01
 8.293477828E-01 -1.004754610E-02 6.247008207E-01
 7.565859335E-01 -1.896096934E-02 6.647694606E-01
 6.853960786E-01 -2.827972877E-02 7.078977856E-01
 9.848744653E-01 -4.492782823E-03 5.927712212E-01
 6.169089424E-01 -3.908668775E-02 7.560558042E-01
 5.462547249E-01 -4.736275154E-02 8.187851816E-01
 4.869625076E-01 -5.422602636E-02 8.895719543E-01
 4.333820391E-01 -5.935828055E-02 9.517545965E-01
 3.762838092E-01 -6.085178573E-02 9.986569301E-01
 3.238336374E-01 -6.112806204E-02 9.819721616E-01
 2.620372061E-01 -5.881272850E-02 9.425632946E-01
 2.017549046E-01 -5.324400124E-02 9.063538926E-01
 1.429902485E-01 -4.674111566E-02 8.755197534E-01
 8.720080463E-02 -3.814861022E-02 8.491655126E-01
 5.091871366E-02 -3.336144269E-02 8.160788386E-01
 1.951097259E-02 -1.998478535E-02 7.513099057E-01
 1.978251142E+00 -9.570356061E-01 7.178049133E-01
 1.975857910E+00 9.574803304E-01 7.109046590E-01