TITLE     = "Visualization of the solution"
VARIABLES = "x"
"y"
"Mach"
ZONE T="Zone"
 STRANDID=0, SOLUTIONTIME=0
 Nodes=12436, Elements=24290, ZONETYPE=FEQuadrilateral
 DATAPACKING=POINT
 DT=(DOUBLE DOUBLE DOUBLE )
 9.999152422E-01 5.134252715E-04 5.234000831E-01
 9.873098731E-01 3.079826478E-03 6.453628200E-01
 9.747845531E-01 5.579483695E-03 6.686700559E-01
 9.591314197E-01 8.798760362E-03 6.966674307E-01
 9.447451234E-01 1.173251588E-02 7.185784108E-01
 9.309145808E-01 1.448900346E-02 7.307380927E-01
 9.196822047E-01 1.678611897E-02 7.533680389E-01
 9.078925252E-01 1.907658018E-02 7.614354235E-01
 8.965841532E-01 2.127463929E-02 7.756455855E-01
 8.849294186E-01 2.349391580E-02 7.893453340E-01
 8.727228045E-01 2.572607622E-02 7.943535548E-01
 8.607362509E-01 2.794865519E-02 8.139307396E-01
 8.483365774E-01 3.013106622E-02 8.233499675E-01
 8.370537162E-01 3.202410415E-02 8.234705846E-01
 8.255786896E-01 3.397489712E-02 8.370136006E-01
 8.128160834E-01 3.604638577E-02 8.405032786E-01
 7.999990582E-01 3.812115639E-02 8.524193758E-01
 7.874754071E-01 4.008443281E-02 8.593072347E-01
 7.749660611E-01 4.200029373E-02 8.663860033E-01
 7.634583116E-01 4.375695437E-02 8.802226727E-01
 7.502124310E-01 4.567282274E-02 8.825242376E-01
 7.364270687E-01 4.765055329E-02 8.943772299E-01
 7.257543802E-01 4.914389178E-02 9.044029383E-01
 7.146469951E-01 5.064448342E-02 9.096758748E-01
 7.029965520E-01 5.218062550E-02 9.173781782E-01
 6.896961331E-01 5.389723554E-02 9.302138188E-01
 6.768242717E-01 5.548174679E-02 9.404144792E-01
 6.665853262E-01 5.669943988E-02 9.487262187E-01
 6.551717520E-01 5.799221247E-02 9.498745049E-01
 6.435873508E-01 5.925831944E-02 9.564969902E-01
 6.318803430E-01 6.051135436E-02 9.693970756E-01
 6.203066111E-01 6.166594848E-02 9.588478180E-01
 6.098719835E-01 6.266112626E-02 9.362738495E-01
 5.974051356E-01 6.376436353E-02 1.027294789E+00
 5.858690143E-01 6.472706050E-02 1.133088152E+00
 5.721883178E-01 6.577700377E-02 1.118984559E+00
 5.596570969E-01 6.667637080E-02 1.113242051E+00
 5.470999479E-01 6.747446954E-02 1.106535887E+00
 5.359674096E-01 6.810101867E-02 1.102655857E+00
 5.242890716E-01 6.871188432E-02 1.098998800E+00
 5.117342472E-01 6.927330792E-02 1.092063531E+00
 5.006383061E-01 6.971292198E-02 1.084371766E+00
 4.872626960E-01 7.014409453E-02 1.078396271E+00
 4.737683237E-01 7.051425427E-02 1.072612149E+00
 4.596271813E-01 7.079107314E-02 1.059293895E+00
 4.457898736E-01 7.094275206E-02 1.049382830E+00
 4.328604639E-01 7.101964206E-02 1.045303660E+00
 4.199142158E-01 7.100641727E-02 1.038875899E+00
 4.074726999E-01 7.092794031E-02 1.034906449E+00
 3.949805498E-01 7.077223063E-02 1.031616588E+00
 3.829068840E-01 7.056813687E-02 1.026393127E+00
 3.714870512E-01 7.029020041E-02 1.013925932E+00
 3.581103683E-01 6.990582496E-02 1.007151406E+00
 3.453685641E-01 6.944900751E-02 9.998780723E-01
 3.322480619E-01 6.892437488E-02 1.000942313E+00
 3.214719892E-01 6.841862947E-02 9.944849224E-01
 3.086556196E-01 6.775292009E-02 9.882265148E-01
 2.956269085E-01 6.697785854E-02 9.766303468E-01
 2.815459371E-01 6.605637074E-02 9.713258759E-01
 2.692943513E-01 6.518437713E-02 9.688503162E-01
 2.575125098E-01 6.426595151E-02 9.627102841E-01
 2.451096326E-01 6.320948154E-02 9.529522218E-01
 2.325647175E-01 6.206036732E-02 9.468962615E-01
 2.203169316E-01 6.086578593E-02 9.430183245E-01
 2.084709704E-01 5.960639566E-02 9.337126232E-01
 1.968230903E-01 5.829971656E-02 9.287713717E-01
 1.845186800E-01 5.681493506E-02 9.217103746E-01
 1.727975607E-01 5.529918149E-02 9.135815213E-01
 1.615415365E-01 5.374486372E-02 9.033963890E-01
 1.498412192E-01 5.203763768E-02 8.965455848E-01
 1.392861009E-01 5.040832236E-02 8.909676018E-01
 1.279056221E-01 4.853194579E-02 8.813868097E-01
 1.166864187E-01 4.654489458E-02 8.707081611E-01
 1.063293293E-01 4.460999370E-02 8.614362862E-01
 9.673248976E-02 4.268841445E-02 8.528495545E-01
 8.595412970E-02 4.039160535E-02 8.396095810E-01
 7.435303926E-02 3.771968931E-02 8.251065275E-01
 6.441827863E-02 3.523993120E-02 8.116044605E-01
 5.455155671E-02 3.256531060E-02 7.925695092E-01
 4.570069537E-02 2.994643152E-02 7.767574054E-01
 3.809557110E-02 2.749199979E-02 7.586464047E-01
 3.131107241E-02 2.509198524E-02 7.381942569E-01
 2.557732724E-02 2.287022024E-02 7.196302834E-01
 2.134975977E-02 2.109081298E-02 7.007766978E-01
 1.731981337E-02 1.924492419E-02 6.789538492E-01
 1.421712618E-02 1.768918522E-02 6.542355098E-01
 1.140533295E-02 1.615790837E-02 6.305997451E-01
 9.303829633E-03 1.491089817E-02 6.107056723E-01
 7.474835031E-03 1.372579578E-02 5.835497075E-01
 5.815493409E-03 1.255892869E-02 5.486267176E-01
 3.680239664E-03 1.085729897E-02 5.036725197E-01
 1.844453858E-03 9.120141156E-03 4.553322182E-01
 2.755131864E-04 7.276517339E-03 3.626140092E-01
 -1.222323626E-03 4.715891089E-03 2.354610326E-01
 -1.829652349E-03 2.803989220E-03 1.095056925E-01
 -1.997492276E-03 1.319532632E-03 3.257509592E-03
 -1.874010544E-03 -3.505755158E-04 1.190621316E-01
 -1.416907529E-03 -2.043798566E-03 2.328784776E-01
 -4.436968593E-04 -4.059791565E-03 3.436858426E-01
 1.021166798E-03 -6.102154963E-03 4.437477327E-01
 3.036992857E-03 -8.221275173E-03 5.199648822E-01
 4.879581742E-03 -9.808137082E-03 5.769328642E-01
 6.964198314E-03 -1.135812700E-02 6.153926520E-01
 8.615214378E-03 -1.245474163E-02 6.459424761E-01
 1.069176104E-02 -1.371231303E-02 6.711933824E-01
 1.309177093E-02 -1.503884606E-02 6.953978853E-01
 1.637530327E-02 -1.668390445E-02 7.196614751E-01
 1.931102760E-02 -1.801760867E-02 7.426320095E-01
 2.319361828E-02 -1.963699050E-02 7.586996848E-01
 2.851581573E-02 -2.163677663E-02 7.752590881E-01
 3.431817144E-02 -2.360617183E-02 7.923851769E-01
 4.132219031E-02 -2.574873343E-02 8.060522421E-01
 4.879268631E-02 -2.781519480E-02 8.162936176E-01
 5.762503296E-02 -3.004349396E-02 8.257118014E-01
 6.623111665E-02 -3.202840313E-02 8.349301580E-01
 7.646358013E-02 -3.420589492E-02 8.435803702E-01
 8.620408177E-02 -3.612108901E-02 8.489857257E-01
 9.633999318E-02 -3.798647970E-02 8.582412838E-01
 1.074653864E-01 -3.988507763E-02 8.621396057E-01
 1.186483949E-01 -4.168402776E-02 8.705261895E-01
 1.303359270E-01 -4.343806207E-02 8.767655984E-01
 1.407019198E-01 -4.490088299E-02 8.828083994E-01
 1.517165154E-01 -4.637307674E-02 8.895942687E-01
 1.637368500E-01 -4.787832499E-02 8.956011756E-01
 1.752830744E-01 -4.924008995E-02 9.029347805E-01
 1.869556308E-01 -5.053081363E-02 9.100544177E-01
 1.975498050E-01 -5.163577572E-02 9.186201648E-01
 2.086003125E-01 -5.270941556E-02 9.244960164E-01
 2.206575722E-01 -5.380205065E-02 9.320346517E-01
 2.331040651E-01 -5.484427139E-02 9.417737475E-01
 2.453405857E-01 -5.577475950E-02 9.511358784E-01
 2.576923072E-01 -5.661738664E-02 9.592985698E-01
 2.687151730E-01 -5.728922412E-02 9.677054824E-01
 2.811209261E-01 -5.795419216E-02 9.744260224E-01
 2.934037149E-01 -5.852303654E-02 9.858629268E-01
 3.064214587E-01 -5.901181325E-02 9.977271269E-01
 3.183001876E-01 -5.934106559E-02 1.003863987E+00
 3.309797049E-01 -5.959590152E-02 1.011610016E+00
 3.419696391E-01 -5.971573293E-02 1.025988722E+00
 3.534477949E-01 -5.972516164E-02 1.030375028E+00
 3.642674685E-01 -5.963996425E-02 1.028207958E+00
 3.749414980E-01 -5.946036801E-02 1.020982646E+00
 3.864591718E-01 -5.916688964E-02 1.012019062E+00
 3.998361230E-01 -5.868599564E-02 1.002655746E+00
 4.122704864E-01 -5.808741972E-02 9.879236673E-01
 4.251302481E-01 -5.735630542E-02 9.771469697E-01
 4.375920296E-01 -5.648104846E-02 9.544911296E-01
 4.498483241E-01 -5.554036051E-02 9.436859473E-01
 4.619012773E-01 -5.447432026E-02 9.246638305E-01
 4.745350778E-01 -5.327509344E-02 9.104731768E-01
 4.862554669E-01 -5.205952004E-02 8.953152588E-01
 4.991463721E-01 -5.062307045E-02 8.770075742E-01
 5.130107403E-01 -4.898145050E-02 8.592972364E-01
 5.266636014E-01 -4.727509618E-02 8.412848315E-01
 5.401079059E-01 -4.554896057E-02 8.279815045E-01
 5.530614853E-01 -4.382431507E-02 8.139885872E-01
 5.665156245E-01 -4.199187830E-02 8.016928659E-01
 5.793354511E-01 -4.017009959E-02 7.836649644E-01
 5.918787718E-01 -3.841258585E-02 7.750289960E-01
 6.047867537E-01 -3.658798710E-02 7.658444148E-01
 6.191113591E-01 -3.452025726E-02 7.528426221E-01
 6.335302591E-01 -3.242691234E-02 7.398142835E-01
 6.485180259E-01 -3.029849567E-02 7.330157734E-01
 6.612673998E-01 -2.843149751E-02 7.191633621E-01
 6.748778224E-01 -2.649988048E-02 7.128669143E-01
 6.873934865E-01 -2.472802997E-02 7.056751953E-01
 6.995865703E-01 -2.299419045E-02 6.956700298E-01
 7.145042419E-01 -2.092331275E-02 6.876691656E-01
 7.276265025E-01 -1.911665127E-02 6.792641732E-01
 7.395985126E-01 -1.751592755E-02 6.749121256E-01
 7.525485754E-01 -1.574654877E-02 6.621554802E-01
 7.653560638E-01 -1.411299594E-02 6.598712089E-01
 7.783968449E-01 -1.241494715E-02 6.475752904E-01
 7.907729745E-01 -1.091587637E-02 6.443062034E-01
 8.039025068E-01 -9.353154339E-03 6.377116148E-01
 8.148502111E-01 -8.061842062E-03 6.291457525E-01
 8.261240721E-01 -6.793721579E-03 6.219509393E-01
 8.389385939E-01 -5.451025907E-03 6.162265078E-01
 8.514135480E-01 -4.225892946E-03 6.104106218E-01
 8.634833694E-01 -3.107564524E-03 6.028823296E-01
 8.747783899E-01 -2.165332669E-03 5.979268247E-01
 8.864699602E-01 -1.298079966E-03 5.937021684E-01
 8.990128040E-01 -4.805792996E-04 5.882504082E-01
 9.091785550E-01 6.095150457E-05 5.857512558E-01
 9.196037054E-01 5.083210417E-04 5.843265707E-01
 9.287102222E-01 8.258381858E-04 5.826899189E-01
 9.374430180E-01 1.046263380E-03 5.815666372E-01
 9.488446116E-01 1.221972983E-03 5.813809004E-01
 9.613405466E-01 1.276293886E-03 5.807554697E-01
 9.762235284E-01 1.155506237E-03 5.784032718E-01
 9.889037013E-01 8.812063606E-04 5.690614642E-01
 -5.000000000E-01 -1.000000000E+00 7.236213692E-01
 3.500000000E+00 -1.000000000E+00 7.283176052E-01
 3.500000000E+00 1.000000000E+00 7.093322010E-01
 -5.000000000E-01 1.000000000E+00 7.239491649E-01
 9.936125576E-01 1.796625875E-03 6.173483109E-01
 9.810472131E-01 4.329655087E-03 6.567660916E-01
 9.669579864E-01 7.189122029E-03 6.832045226E-01
 9.519382715E-01 1.026563812E-02 7.084708533E-01
 9.378298521E-01 1.311075967E-02 7.243581448E-01
 9.252983928E-01 1.563756121E-02 7.430286903E-01
 9.137873650E-01 1.793134958E-02 7.572296871E-01
 9.022383392E-01 2.017560974E-02 7.682551608E-01
 8.907567859E-01 2.238427754E-02 7.835651974E-01
 8.788261116E-01 2.460999601E-02 7.906151314E-01
 8.667295277E-01 2.683736570E-02 8.045143756E-01
 8.545364141E-01 2.903986070E-02 8.199746093E-01
 8.426951468E-01 3.107758518E-02 8.221113145E-01
 8.313162029E-01 3.299950063E-02 8.312170194E-01
 8.191973865E-01 3.501064144E-02 8.380539874E-01
 8.064075708E-01 3.708377108E-02 8.465733337E-01
 7.937372327E-01 3.910279460E-02 8.563074114E-01
 7.812207341E-01 4.104236327E-02 8.616414309E-01
 7.692121863E-01 4.287862405E-02 8.749317393E-01
 7.568353713E-01 4.471488856E-02 8.805675897E-01
 7.433197498E-01 4.666168801E-02 8.879857689E-01
 7.310907245E-01 4.839722253E-02 9.001996644E-01
 7.202006876E-01 4.989418760E-02 9.071181622E-01
 7.088217735E-01 5.141255446E-02 9.128138488E-01
 6.963463426E-01 5.303893052E-02 9.241105314E-01
 6.832602024E-01 5.468949117E-02 9.348769167E-01
 6.717047989E-01 5.609059334E-02 9.458807119E-01
 6.608785391E-01 5.734582618E-02 9.494897695E-01
 6.493795514E-01 5.862526596E-02 9.513846062E-01
 6.377338469E-01 5.988483690E-02 9.647441437E-01
 6.260934770E-01 6.108865142E-02 9.670395255E-01
 6.150892973E-01 6.216353737E-02 9.453484994E-01
 6.036385596E-01 6.321274489E-02 9.563217549E-01
 5.916370749E-01 6.424571201E-02 1.105611655E+00
 5.790286660E-01 6.525203213E-02 1.127593415E+00
 5.659227073E-01 6.622668728E-02 1.115694613E+00
 5.533785224E-01 6.707542017E-02 1.109756687E+00
 5.415336788E-01 6.778774410E-02 1.103491900E+00
 5.301282406E-01 6.840645149E-02 1.102477325E+00
 5.180116594E-01 6.899259612E-02 1.094418608E+00
 5.061862767E-01 6.949311495E-02 1.089477549E+00
 4.939505011E-01 6.992850825E-02 1.079947803E+00
 4.805155098E-01 7.032917440E-02 1.077068429E+00
 4.666977525E-01 7.065266371E-02 1.066355115E+00
 4.527085274E-01 7.086691260E-02 1.052541368E+00
 4.393251687E-01 7.098119706E-02 1.048160891E+00
 4.263873398E-01 7.101302966E-02 1.041428963E+00
 4.136934578E-01 7.096717879E-02 1.037192037E+00
 4.012266248E-01 7.085008547E-02 1.032499248E+00
 3.889437169E-01 7.067018375E-02 1.030826041E+00
 3.771969676E-01 7.042916864E-02 1.019187421E+00
 3.647987098E-01 7.009801269E-02 1.011211731E+00
 3.517394662E-01 6.967741624E-02 1.001939034E+00
 3.388083130E-01 6.918669119E-02 1.000980993E+00
 3.268600255E-01 6.867150217E-02 9.978940309E-01
 3.150638044E-01 6.808577478E-02 9.922556120E-01
 3.021412641E-01 6.736538932E-02 9.821948280E-01
 2.885864228E-01 6.651711464E-02 9.729949044E-01
 2.754201442E-01 6.562037393E-02 9.703381592E-01
 2.634034306E-01 6.472516432E-02 9.665030457E-01
 2.513110712E-01 6.373771653E-02 9.578705553E-01
 2.388371751E-01 6.263492443E-02 9.489381184E-01
 2.264408246E-01 6.146307662E-02 9.460201180E-01
 2.143939510E-01 6.023609079E-02 9.376421512E-01
 2.026470304E-01 5.895305611E-02 9.317628899E-01
 1.906708851E-01 5.755732581E-02 9.250834071E-01
 1.786581203E-01 5.605705827E-02 9.178789631E-01
 1.671695486E-01 5.452202260E-02 9.086168523E-01
 1.556913778E-01 5.289125070E-02 8.992226491E-01
 1.445636600E-01 5.122298002E-02 8.943466246E-01
 1.335958615E-01 4.947013408E-02 8.867410759E-01
 1.222960204E-01 4.753842019E-02 8.749705681E-01
 1.115078740E-01 4.557744414E-02 8.678459645E-01
 9.134330973E-02 4.154000990E-02 8.464353547E-01
 8.015358448E-02 3.905564733E-02 8.319547627E-01
 6.938565895E-02 3.647981025E-02 8.186456620E-01
 5.948491767E-02 3.390262090E-02 8.042538461E-01
 7.134734839E-02 -3.311714903E-02 8.401162537E-01
 9.127203748E-02 -3.705378436E-02 8.545657436E-01
 1.019026898E-01 -3.893577866E-02 8.601917608E-01
 1.130568907E-01 -4.078455269E-02 8.660442942E-01
 1.244921610E-01 -4.256104492E-02 8.737682237E-01
 1.355189234E-01 -4.416947253E-02 8.801635044E-01
 1.462092176E-01 -4.563697986E-02 8.859033252E-01
 1.577266827E-01 -4.712570086E-02 8.926228012E-01
 1.695099622E-01 -4.855920747E-02 8.992030889E-01
 1.811193526E-01 -4.988545179E-02 9.063876487E-01
 1.922527179E-01 -5.108329467E-02 9.144769519E-01
 2.030750588E-01 -5.217259564E-02 9.218517394E-01
 2.146289423E-01 -5.325573310E-02 9.276951003E-01
 2.268808186E-01 -5.432316102E-02 9.368313903E-01
 2.392223254E-01 -5.530951545E-02 9.466660936E-01
 2.515164465E-01 -5.619607307E-02 9.550571781E-01
 2.632037401E-01 -5.695330538E-02 9.640385675E-01
 2.749180496E-01 -5.762170814E-02 9.706517172E-01
 2.872623205E-01 -5.823861435E-02 9.796151136E-01
 2.999125868E-01 -5.876742490E-02 9.918515566E-01
 3.123608232E-01 -5.917643942E-02 1.002034875E+00
 3.246399462E-01 -5.946848355E-02 1.006045934E+00
 3.364746720E-01 -5.965581723E-02 1.019281589E+00
 3.477087170E-01 -5.972044729E-02 1.029540610E+00
 3.588576317E-01 -5.968256295E-02 1.029878359E+00
 3.696044832E-01 -5.955016613E-02 1.025260941E+00
 3.807003349E-01 -5.931362882E-02 1.016434618E+00
 3.931476474E-01 -5.892644264E-02 1.006966209E+00
 4.060533047E-01 -5.838670768E-02 9.966409039E-01
 4.187003672E-01 -5.772186257E-02 9.815329414E-01
 4.313611388E-01 -5.691867694E-02 9.677543200E-01
 4.437201768E-01 -5.601070449E-02 9.474270289E-01
 4.558748007E-01 -5.500734039E-02 9.358567456E-01
 4.682181776E-01 -5.387470685E-02 9.161274341E-01
 4.803952724E-01 -5.266730674E-02 9.039864582E-01
 4.927009195E-01 -5.134129524E-02 8.860072798E-01
 5.060785562E-01 -4.980226047E-02 8.680912974E-01
 5.198371708E-01 -4.812827334E-02 8.503153574E-01
 5.333857536E-01 -4.641202837E-02 8.340712018E-01
 5.465846956E-01 -4.468663782E-02 8.213569195E-01
 5.597885549E-01 -4.290809669E-02 8.076198180E-01
 5.729255378E-01 -4.108098894E-02 7.928360246E-01
 5.856071115E-01 -3.929134272E-02 7.785459058E-01
 5.983327627E-01 -3.750028647E-02 7.707644909E-01
 6.119490564E-01 -3.555412218E-02 7.595470230E-01
 6.263208091E-01 -3.347358480E-02 7.462288192E-01
 6.410241425E-01 -3.136270400E-02 7.361268838E-01
 6.548927128E-01 -2.936499659E-02 7.263724961E-01
 6.680726111E-01 -2.746568900E-02 7.155276040E-01
 6.811356544E-01 -2.561395522E-02 7.094087764E-01
 6.934900284E-01 -2.386111021E-02 7.009179806E-01
 7.070454061E-01 -2.195875160E-02 6.916170801E-01
 7.210653722E-01 -2.001998201E-02 6.834357958E-01
 7.336125076E-01 -1.831628941E-02 6.768936631E-01
 7.460735440E-01 -1.663123816E-02 6.688598069E-01
 7.589523196E-01 -1.492977235E-02 6.606400160E-01
 7.718764544E-01 -1.326397154E-02 6.541545443E-01
 7.845849097E-01 -1.166541176E-02 6.454283980E-01
 7.973377407E-01 -1.013451535E-02 6.413063450E-01
 8.093763590E-01 -8.707498200E-03 6.334649169E-01
 8.204871416E-01 -7.427781820E-03 6.253558327E-01
 8.325313330E-01 -6.122373743E-03 6.192719951E-01
 8.451760709E-01 -4.838459427E-03 6.132714471E-01
 8.574484587E-01 -3.666728735E-03 6.066377126E-01
 8.691308796E-01 -2.636448597E-03 6.001736142E-01
 8.806241751E-01 -1.731706318E-03 5.958282356E-01
 8.927413821E-01 -8.893296326E-04 5.912548725E-01
 9.040956795E-01 -2.098138975E-04 5.863988924E-01
 9.143911302E-01 2.846362731E-04 5.852104217E-01
 9.431438148E-01 1.134118182E-03 5.814920068E-01
 9.550925791E-01 1.249133435E-03 5.810681702E-01
 9.687820375E-01 1.215900062E-03 5.803300295E-01
 9.825636148E-01 1.018356299E-03 5.744847938E-01
 9.944094718E-01 6.973158161E-04 5.665471896E-01
 -5.000000000E-01 9.500000000E-01 7.215235014E-01
 -5.000000000E-01 9.000000000E-01 7.177500059E-01
 -5.000000000E-01 8.500000000E-01 7.148365990E-01
 -5.000000000E-01 8.000000000E-01 7.122955050E-01
 -5.000000000E-01 7.500000000E-01 7.098416441E-01
 -5.000000000E-01 7.000000000E-01 7.074306015E-01
 -5.000000000E-01 6.500000000E-01 7.050031966E-01
 -5.000000000E-01 6.000000000E-01 7.025252406E-01
 -5.000000000E-01 5.500000000E-01 6.999698524E-01
 -5.000000000E-01 5.000000000E-01 6.974117475E-01
 -5.000000000E-01 4.500000000E-01 6.947716288E-01
 -5.000000000E-01 4.000000000E-01 6.921454287E-01
 -5.000000000E-01 3.500000000E-01 6.895762716E-01
 -5.000000000E-01 3.000000000E-01 6.871337997E-01
 -5.000000000E-01 2.500000000E-01 6.848701503E-01
 -5.000000000E-01 2.000000000E-01 6.828256901E-01
 -5.000000000E-01 1.500000000E-01 6.811686073E-01
 -5.000000000E-01 1.000000000E-01 6.799357673E-01
 -5.000000000E-01 5.000000000E-02 6.791543323E-01
 -5.000000000E-01 2.752242878E-12 6.788323997E-01
 -5.000000000E-01 -5.000000000E-02 6.790719921E-01
 -5.000000000E-01 -1.000000000E-01 6.798309257E-01
 -5.000000000E-01 -1.500000000E-01 6.810252784E-01
 -5.000000000E-01 -2.000000000E-01 6.826211454E-01
 -5.000000000E-01 -2.500000000E-01 6.845384609E-01
 -5.000000000E-01 -3.000000000E-01 6.867176437E-01
 -5.000000000E-01 -3.500000000E-01 6.890839252E-01
 -5.000000000E-01 -4.000000000E-01 6.915547867E-01
 -5.000000000E-01 -4.500000000E-01 6.940691061E-01
 -5.000000000E-01 -5.000000000E-01 6.965988169E-01
 -5.000000000E-01 -5.500000000E-01 6.991014187E-01
 -5.000000000E-01 -6.000000000E-01 7.016030576E-01
 -5.000000000E-01 -6.500000000E-01 7.040378209E-01
 -5.000000000E-01 -7.000000000E-01 7.064538916E-01
 -5.000000000E-01 -7.500000000E-01 7.088632774E-01
 -5.000000000E-01 -8.000000000E-01 7.113733845E-01
 -5.000000000E-01 -8.500000000E-01 7.140051082E-01
 -5.000000000E-01 -9.000000000E-01 7.170410848E-01
 -5.000000000E-01 -9.500000000E-01 7.210500910E-01
 -4.500000000E-01 -1.000000000E+00 7.208751972E-01
 -4.000000000E-01 -1.000000000E+00 7.169575847E-01
 -3.500000000E-01 -1.000000000E+00 7.144466435E-01
 -3.000000000E-01 -1.000000000E+00 7.127544323E-01
 -2.500000000E-01 -1.000000000E+00 7.116995039E-01
 -2.000000000E-01 -1.000000000E+00 7.112965442E-01
 -1.500000000E-01 -1.000000000E+00 7.115346983E-01
 -1.000000000E-01 -1.000000000E+00 7.124084171E-01
 -5.000000000E-02 -1.000000000E+00 7.138656591E-01
 -9.424683256E-13 -1.000000000E+00 7.159077692E-01
 5.000000000E-02 -1.000000000E+00 7.184632121E-01
 1.000000000E-01 -1.000000000E+00 7.214577762E-01
 1.500000000E-01 -1.000000000E+00 7.246704028E-01
 2.000000000E-01 -1.000000000E+00 7.280264067E-01
 2.500000000E-01 -1.000000000E+00 7.315128581E-01
 3.000000000E-01 -1.000000000E+00 7.347854132E-01
 3.500000000E-01 -1.000000000E+00 7.374110274E-01
 4.000000000E-01 -1.000000000E+00 7.396257820E-01
 4.500000000E-01 -1.000000000E+00 7.412268555E-01
 5.000000000E-01 -1.000000000E+00 7.419997825E-01
 5.500000000E-01 -1.000000000E+00 7.420876860E-01
 6.000000000E-01 -1.000000000E+00 7.414262480E-01
 6.500000000E-01 -1.000000000E+00 7.401335902E-01
 7.000000000E-01 -1.000000000E+00 7.383080193E-01
 7.500000000E-01 -1.000000000E+00 7.361191725E-01
 8.000000000E-01 -1.000000000E+00 7.337907547E-01
 8.500000000E-01 -1.000000000E+00 7.311558012E-01
 9.000000000E-01 -1.000000000E+00 7.284373989E-01
 9.500000000E-01 -1.000000000E+00 7.257899082E-01
 1.000000000E+00 -1.000000000E+00 7.232789825E-01
 1.050000000E+00 -1.000000000E+00 7.210252683E-01
 1.100000000E+00 -1.000000000E+00 7.190407249E-01
 1.150000000E+00 -1.000000000E+00 7.173220428E-01
 1.200000000E+00 -1.000000000E+00 7.159091387E-01
 1.250000000E+00 -1.000000000E+00 7.146939462E-01
 1.300000000E+00 -1.000000000E+00 7.138314475E-01
 1.350000000E+00 -1.000000000E+00 7.132551400E-01
 1.400000000E+00 -1.000000000E+00 7.128844549E-01
 1.450000000E+00 -1.000000000E+00 7.126695402E-01
 1.500000000E+00 -1.000000000E+00 7.126236110E-01
 1.550000000E+00 -1.000000000E+00 7.127135418E-01
 1.600000000E+00 -1.000000000E+00 7.129228217E-01
 1.650000000E+00 -1.000000000E+00 7.131836319E-01
 1.700000000E+00 -1.000000000E+00 7.134544487E-01
 1.750000000E+00 -1.000000000E+00 7.138980357E-01
 1.800000000E+00 -1.000000000E+00 7.143681356E-01
 1.850000000E+00 -1.000000000E+00 7.148645844E-01
 1.900000000E+00 -1.000000000E+00 7.153462131E-01
 1.950000000E+00 -1.000000000E+00 7.158293052E-01
 2.000000000E+00 -1.000000000E+00 7.163226077E-01
 2.050000000E+00 -1.000000000E+00 7.168086890E-01
 2.100000000E+00 -1.000000000E+00 7.173199737E-01
 2.150000000E+00 -1.000000000E+00 7.177612531E-01
 2.200000000E+00 -1.000000000E+00 7.182108363E-01
 2.250000000E+00 -1.000000000E+00 7.186910565E-01
 2.300000000E+00 -1.000000000E+00 7.191317202E-01
 2.350000000E+00 -1.000000000E+00 7.195388273E-01
 2.400000000E+00 -1.000000000E+00 7.199125463E-01
 2.450000000E+00 -1.000000000E+00 7.203178528E-01
 2.500000000E+00 -1.000000000E+00 7.206767957E-01
 2.550000000E+00 -1.000000000E+00 7.210127158E-01
 2.600000000E+00 -1.000000000E+00 7.213119838E-01
 2.650000000E+00 -1.000000000E+00 7.215933530E-01
 2.700000000E+00 -1.000000000E+00 7.218351787E-01
 2.750000000E+00 -1.000000000E+00 7.221066768E-01
 2.800000000E+00 -1.000000000E+00 7.223170605E-01
 2.850000000E+00 -1.000000000E+00 7.225233512E-01
 2.900000000E+00 -1.000000000E+00 7.227222496E-01
 2.950000000E+00 -1.000000000E+00 7.227801998E-01
 3.000000000E+00 -1.000000000E+00 7.229660609E-01
 3.050000000E+00 -1.000000000E+00 7.231270108E-01
 3.100000000E+00 -1.000000000E+00 7.232709114E-01
 3.150000000E+00 -1.000000000E+00 7.234170366E-01
 3.200000000E+00 -1.000000000E+00 7.235797011E-01
 3.250000000E+00 -1.000000000E+00 7.238081039E-01
 3.300000000E+00 -1.000000000E+00 7.239709182E-01
 3.350000000E+00 -1.000000000E+00 7.242824134E-01
 3.400000000E+00 -1.000000000E+00 7.247735465E-01
 3.450000000E+00 -1.000000000E+00 7.259329157E-01
 3.500000000E+00 -9.500000000E-01 7.297874768E-01
 3.500000000E+00 -9.000000000E-01 7.305119889E-01
 3.500000000E+00 -8.500000000E-01 7.309884009E-01
 3.500000000E+00 -8.000000000E-01 7.313788114E-01
 3.500000000E+00 -7.500000000E-01 7.317042090E-01
 3.500000000E+00 -7.000000000E-01 7.319804979E-01
 3.500000000E+00 -6.500000000E-01 7.322798463E-01
 3.500000000E+00 -6.000000000E-01 7.326213318E-01
 3.500000000E+00 -5.500000000E-01 7.329639430E-01
 3.500000000E+00 -5.000000000E-01 7.333042782E-01
 3.500000000E+00 -4.500000000E-01 7.336467417E-01
 3.500000000E+00 -4.000000000E-01 7.340026400E-01
 3.500000000E+00 -3.500000000E-01 7.343621378E-01
 3.500000000E+00 -3.000000000E-01 7.347128934E-01
 3.500000000E+00 -2.500000000E-01 7.350481142E-01
 3.500000000E+00 -2.000000000E-01 7.352847329E-01
 3.500000000E+00 -1.500000000E-01 7.353765260E-01
 3.500000000E+00 -1.000000000E-01 7.353832785E-01
 3.500000000E+00 -5.000000000E-02 7.353922904E-01
 3.500000000E+00 -2.752242878E-12 7.353896693E-01
 3.500000000E+00 5.000000000E-02 7.353606803E-01
 3.500000000E+00 1.000000000E-01 7.352304025E-01
 3.500000000E+00 1.500000000E-01 7.349781025E-01
 3.500000000E+00 2.000000000E-01 7.346310396E-01
 3.500000000E+00 2.500000000E-01 7.342553629E-01
 3.500000000E+00 3.000000000E-01 7.338990253E-01
 3.500000000E+00 3.500000000E-01 7.335537595E-01
 3.500000000E+00 4.000000000E-01 7.332029623E-01
 3.500000000E+00 4.500000000E-01 7.328169761E-01
 3.500000000E+00 5.000000000E-01 7.323669477E-01
 3.500000000E+00 5.500000000E-01 7.319206442E-01
 3.500000000E+00 6.000000000E-01 7.317249840E-01
 3.500000000E+00 6.500000000E-01 7.319608638E-01
 3.500000000E+00 7.000000000E-01 7.324569988E-01
 3.500000000E+00 7.500000000E-01 7.324665031E-01
 3.500000000E+00 8.000000000E-01 7.310934304E-01
 3.500000000E+00 8.500000000E-01 7.278280092E-01
 3.500000000E+00 9.000000000E-01 7.230155432E-01
 3.500000000E+00 9.500000000E-01 7.172105868E-01
 3.450000000E+00 1.000000000E+00 6.973555123E-01
 3.400000000E+00 1.000000000E+00 6.919425122E-01
 3.350000000E+00 1.000000000E+00 6.905854717E-01
 3.300000000E+00 1.000000000E+00 6.901815355E-01
 3.250000000E+00 1.000000000E+00 6.907291994E-01
 3.200000000E+00 1.000000000E+00 6.910545147E-01
 3.150000000E+00 1.000000000E+00 6.912760729E-01
 3.100000000E+00 1.000000000E+00 6.915110378E-01
 3.050000000E+00 1.000000000E+00 6.919869841E-01
 3.000000000E+00 1.000000000E+00 6.924836105E-01
 2.950000000E+00 1.000000000E+00 6.929491247E-01
 2.900000000E+00 1.000000000E+00 6.925451845E-01
 2.850000000E+00 1.000000000E+00 6.928992081E-01
 2.800000000E+00 1.000000000E+00 6.935560141E-01
 2.750000000E+00 1.000000000E+00 6.940819784E-01
 2.700000000E+00 1.000000000E+00 6.947330272E-01
 2.650000000E+00 1.000000000E+00 6.949691283E-01
 2.600000000E+00 1.000000000E+00 6.955532432E-01
 2.550000000E+00 1.000000000E+00 6.959432073E-01
 2.500000000E+00 1.000000000E+00 6.965644065E-01
 2.450000000E+00 1.000000000E+00 6.970460420E-01
 2.400000000E+00 1.000000000E+00 6.974733100E-01
 2.350000000E+00 1.000000000E+00 6.978990309E-01
 2.300000000E+00 1.000000000E+00 6.984290203E-01
 2.250000000E+00 1.000000000E+00 6.987980047E-01
 2.200000000E+00 1.000000000E+00 6.993770556E-01
 2.150000000E+00 1.000000000E+00 6.999486008E-01
 2.100000000E+00 1.000000000E+00 7.005356953E-01
 2.050000000E+00 1.000000000E+00 7.012107390E-01
 2.000000000E+00 1.000000000E+00 7.018396460E-01
 1.950000000E+00 1.000000000E+00 7.025482342E-01
 1.900000000E+00 1.000000000E+00 7.032517506E-01
 1.850000000E+00 1.000000000E+00 7.041821402E-01
 1.800000000E+00 1.000000000E+00 7.056597471E-01
 1.750000000E+00 1.000000000E+00 7.069623281E-01
 1.700000000E+00 1.000000000E+00 7.081230392E-01
 1.650000000E+00 1.000000000E+00 7.091419067E-01
 1.600000000E+00 1.000000000E+00 7.095844018E-01
 1.550000000E+00 1.000000000E+00 7.108713037E-01
 1.500000000E+00 1.000000000E+00 7.137426660E-01
 1.450000000E+00 1.000000000E+00 7.155104562E-01
 1.400000000E+00 1.000000000E+00 7.178204560E-01
 1.350000000E+00 1.000000000E+00 7.203409416E-01
 1.300000000E+00 1.000000000E+00 7.231389279E-01
 1.250000000E+00 1.000000000E+00 7.263573510E-01
 1.200000000E+00 1.000000000E+00 7.298891881E-01
 1.150000000E+00 1.000000000E+00 7.337071768E-01
 1.100000000E+00 1.000000000E+00 7.371944255E-01
 1.050000000E+00 1.000000000E+00 7.410678061E-01
 1.000000000E+00 1.000000000E+00 7.455293901E-01
 9.500000000E-01 1.000000000E+00 7.500448658E-01
 9.000000000E-01 1.000000000E+00 7.545705560E-01
 8.500000000E-01 1.000000000E+00 7.583638811E-01
 8.000000000E-01 1.000000000E+00 7.625145589E-01
 7.500000000E-01 1.000000000E+00 7.659349816E-01
 7.000000000E-01 1.000000000E+00 7.686148988E-01
 6.500000000E-01 1.000000000E+00 7.699701544E-01
 6.000000000E-01 1.000000000E+00 7.708297114E-01
 5.500000000E-01 1.000000000E+00 7.705693411E-01
 5.000000000E-01 1.000000000E+00 7.688744199E-01
 4.500000000E-01 1.000000000E+00 7.653391774E-01
 4.000000000E-01 1.000000000E+00 7.615129106E-01
 3.500000000E-01 1.000000000E+00 7.568866031E-01
 3.000000000E-01 1.000000000E+00 7.516500886E-01
 2.500000000E-01 1.000000000E+00 7.460010392E-01
 2.000000000E-01 1.000000000E+00 7.401020718E-01
 1.500000000E-01 1.000000000E+00 7.343085837E-01
 1.000000000E-01 1.000000000E+00 7.292490058E-01
 5.000000000E-02 1.000000000E+00 7.247508432E-01
 1.733724275E-12 1.000000000E+00 7.208643204E-01
 -5.000000000E-02 1.000000000E+00 7.178064102E-01
 -1.000000000E-01 1.000000000E+00 7.155663026E-01
 -1.500000000E-01 1.000000000E+00 7.141230090E-01
 -2.000000000E-01 1.000000000E+00 7.133858118E-01
 -2.500000000E-01 1.000000000E+00 7.133524242E-01
 -3.000000000E-01 1.000000000E+00 7.140745997E-01
 -3.500000000E-01 1.000000000E+00 7.154605983E-01
 -4.000000000E-01 1.000000000E+00 7.177698651E-01
 -4.500000000E-01 1.000000000E+00 7.213896275E-01
 9.066110155E-01 -4.553288988E-03 5.892870770E-01
 8.303524427E-01 -1.105741491E-02 6.222905941E-01
 9.857686600E-01 -3.558467865E-03 5.787745127E-01
 7.570119332E-01 -2.061211739E-02 6.627778104E-01
 6.850219495E-01 -3.052082401E-02 7.076268229E-01
 6.172918089E-01 -4.102952824E-02 7.554455789E-01
 5.427771841E-01 -4.987469080E-02 8.248272428E-01
 4.841488602E-01 -5.736625296E-02 8.962841015E-01
 4.290173196E-01 -6.316961568E-02 9.664939795E-01
 3.731588548E-01 -6.406574583E-02 1.017863485E+00
 3.209182278E-01 -6.481927404E-02 1.000880584E+00
 2.601571095E-01 -6.155838690E-02 9.585265136E-01
 2.051874444E-01 -5.719778532E-02 9.202417622E-01
 1.486457980E-01 -5.102578709E-02 8.850883409E-01
 1.036768295E-01 -4.415254895E-02 8.571014806E-01
 6.016218103E-02 -3.699526095E-02 8.198033567E-01
 2.440689521E-02 -2.468059641E-02 7.476779221E-01
 1.974769296E+00 -9.621633219E-01 7.175782414E-01