TITLE     = "Visualization of the solution"
VARIABLES = "x"
"y"
"Mach"
ZONE T="Zone"
 STRANDID=0, SOLUTIONTIME=0
 Nodes=11988, Elements=23398, ZONETYPE=FEQuadrilateral
 DATAPACKING=POINT
 DT=(DOUBLE DOUBLE DOUBLE )
 1.000301719E+00 5.201262538E-04 5.493690001E-01
 9.876962900E-01 2.852151170E-03 6.578174793E-01
 9.754719138E-01 5.116025917E-03 6.864221163E-01
 9.603791833E-01 7.851598784E-03 7.051385032E-01
 9.464372993E-01 1.041590422E-02 7.273124531E-01
 9.329125881E-01 1.285422780E-02 7.444630921E-01
 9.215329289E-01 1.487646531E-02 7.591804339E-01
 9.089309573E-01 1.705706492E-02 7.725936720E-01
 8.971952200E-01 1.903803460E-02 7.839177315E-01
 8.848676682E-01 2.107531950E-02 7.979926790E-01
 8.722600341E-01 2.307311445E-02 8.078647176E-01
 8.596713543E-01 2.495964058E-02 8.088277048E-01
 8.471327424E-01 2.685306780E-02 8.218029249E-01
 8.355058432E-01 2.854281850E-02 8.287069357E-01
 8.235093355E-01 3.022299148E-02 8.325439137E-01
 8.105130792E-01 3.201421350E-02 8.395683546E-01
 7.972322702E-01 3.378020972E-02 8.424697905E-01
 7.853209972E-01 3.537285328E-02 8.528222472E-01
 7.729079127E-01 3.694877774E-02 8.530822648E-01
 7.611258030E-01 3.847628459E-02 8.666038918E-01
 7.481814623E-01 4.006594792E-02 8.696206626E-01
 7.343550920E-01 4.175047576E-02 8.804011998E-01
 7.235744596E-01 4.302250594E-02 8.870559562E-01
 7.124670148E-01 4.428812489E-02 8.901467944E-01
 7.008056641E-01 4.560705647E-02 8.996505847E-01
 6.870771646E-01 4.710839689E-02 9.093564754E-01
 6.740437150E-01 4.847034439E-02 9.173044782E-01
 6.641496420E-01 4.947432131E-02 9.224148558E-01
 6.526326537E-01 5.060680956E-02 9.326453096E-01
 6.415095925E-01 5.166112632E-02 9.418681194E-01
 6.296921372E-01 5.271965265E-02 9.493154511E-01
 6.186122298E-01 5.367324501E-02 9.605791548E-01
 6.077901125E-01 5.454139784E-02 9.648504024E-01
 5.952185392E-01 5.549046770E-02 9.718651940E-01
 5.833833218E-01 5.632818490E-02 9.807745297E-01
 5.700100660E-01 5.720260739E-02 9.916453334E-01
 5.573583841E-01 5.794903263E-02 9.982841075E-01
 5.450365543E-01 5.859673768E-02 1.004598737E+00
 5.341874361E-01 5.911369249E-02 1.014273228E+00
 5.226031542E-01 5.960302427E-02 1.020177456E+00
 5.097562671E-01 6.005989388E-02 1.020804665E+00
 4.986198246E-01 6.038815528E-02 1.018382423E+00
 4.854454100E-01 6.070743501E-02 1.016625881E+00
 4.722650349E-01 6.093917415E-02 1.009514664E+00
 4.576959908E-01 6.109745800E-02 1.008261733E+00
 4.440686703E-01 6.118415296E-02 1.007402511E+00
 4.309359789E-01 6.115633622E-02 9.980321977E-01
 4.182133973E-01 6.107535958E-02 9.961745314E-01
 4.058505297E-01 6.092046946E-02 9.891005092E-01
 3.934272826E-01 6.069187820E-02 9.807294327E-01
 3.812966645E-01 6.040941924E-02 9.756686569E-01
 3.703980148E-01 6.011012569E-02 9.729515408E-01
 3.574169576E-01 5.968863517E-02 9.664637590E-01
 3.451827466E-01 5.920565873E-02 9.570804199E-01
 3.326340914E-01 5.868503451E-02 9.578619864E-01
 3.219652474E-01 5.815875903E-02 9.474963958E-01
 3.095342517E-01 5.750976503E-02 9.436250470E-01
 2.964619398E-01 5.675493553E-02 9.374732443E-01
 2.825199068E-01 5.587054789E-02 9.309627172E-01
 2.697860897E-01 5.499302596E-02 9.250528985E-01
 2.576112449E-01 5.409714952E-02 9.207602872E-01
 2.450583577E-01 5.310134962E-02 9.144580063E-01
 2.321506292E-01 5.200317875E-02 9.083322169E-01
 2.197584361E-01 5.088159069E-02 9.029669722E-01
 2.078636438E-01 4.973241687E-02 8.964303155E-01
 1.963654160E-01 4.856960848E-02 8.918875097E-01
 1.836424172E-01 4.719312862E-02 8.844896391E-01
 1.716463864E-01 4.583320394E-02 8.805203300E-01
 1.598664075E-01 4.440350831E-02 8.720095301E-01
 1.478524506E-01 4.287708551E-02 8.668963904E-01
 1.369614899E-01 4.141602665E-02 8.612686226E-01
 1.254847199E-01 3.978670016E-02 8.542755262E-01
 1.138650328E-01 3.804921359E-02 8.499650990E-01
 1.032033414E-01 3.634648025E-02 8.410993624E-01
 9.337756038E-02 3.468673676E-02 8.358292739E-01
 8.226270229E-02 3.269098699E-02 8.276130656E-01
 7.032978535E-02 3.038389608E-02 8.184643010E-01
 6.054083258E-02 2.833049744E-02 8.096558596E-01
 5.076276883E-02 2.610907331E-02 8.002294266E-01
 4.194217920E-02 2.391621470E-02 7.904551967E-01
 3.450148180E-02 2.187654190E-02 7.794575221E-01
 2.802154422E-02 1.993221603E-02 7.671747418E-01
 2.253456041E-02 1.810337603E-02 7.544736890E-01
 1.857766695E-02 1.665075310E-02 7.381593186E-01
 1.484034583E-02 1.513652597E-02 7.209297768E-01
 1.216117200E-02 1.394731272E-02 7.043967233E-01
 9.787548333E-03 1.278463937E-02 6.867762337E-01
 8.052535355E-03 1.185941510E-02 6.679385739E-01
 6.488858256E-03 1.094774250E-02 6.489979233E-01
 5.068984814E-03 1.004499849E-02 6.218228032E-01
 3.216201207E-03 8.705519140E-03 5.785461010E-01
 1.604663674E-03 7.313811220E-03 5.246422518E-01
 1.976369676E-04 5.795907695E-03 4.390862997E-01
 -1.138047548E-03 3.744595451E-03 3.204861685E-01
 -1.736296108E-03 2.161068609E-03 1.965744928E-01
 -1.950229285E-03 9.006278706E-04 7.433726084E-02
 -1.924482174E-03 -5.795226316E-04 5.513433507E-02
 -1.548242057E-03 -2.218818292E-03 1.701479236E-01
 -6.904860493E-04 -4.102200270E-03 2.910273688E-01
 7.119884249E-04 -6.097910926E-03 4.036337819E-01
 2.743005054E-03 -8.214079775E-03 4.931029827E-01
 4.533679690E-03 -9.722074494E-03 5.541922742E-01
 6.601137575E-03 -1.122163236E-02 5.961379008E-01
 8.162565529E-03 -1.223470178E-02 6.279779944E-01
 1.015206985E-02 -1.340767276E-02 6.530747297E-01
 1.249893196E-02 -1.467169169E-02 6.795859071E-01
 1.567811891E-02 -1.621846110E-02 7.057661712E-01
 1.866737753E-02 -1.753117144E-02 7.281364026E-01
 2.256064676E-02 -1.909801364E-02 7.453436773E-01
 2.799115703E-02 -2.105945162E-02 7.641942734E-01
 3.379669785E-02 -2.293881774E-02 7.816150854E-01
 4.120249301E-02 -2.508993819E-02 7.965037029E-01
 4.877489805E-02 -2.707559988E-02 8.086884386E-01
 5.760533363E-02 -2.917646989E-02 8.171633071E-01
 6.630337238E-02 -3.107147478E-02 8.256309874E-01
 7.654927671E-02 -3.312569112E-02 8.338281264E-01
 8.641607314E-02 -3.495760635E-02 8.392395101E-01
 9.684448689E-02 -3.675536066E-02 8.466655258E-01
 1.076015532E-01 -3.849431127E-02 8.526561177E-01
 1.192272156E-01 -4.025291279E-02 8.593355978E-01
 1.306294054E-01 -4.186517373E-02 8.649913626E-01
 1.411229819E-01 -4.326851293E-02 8.718778460E-01
 1.520952582E-01 -4.464980215E-02 8.769795833E-01
 1.638077199E-01 -4.604069889E-02 8.826130405E-01
 1.754689366E-01 -4.735097662E-02 8.900700650E-01
 1.874368638E-01 -4.861206934E-02 8.971827604E-01
 1.979633719E-01 -4.965170100E-02 9.034075032E-01
 2.091319114E-01 -5.069429800E-02 9.108489523E-01
 2.214296907E-01 -5.175599828E-02 9.171806122E-01
 2.342239320E-01 -5.278263614E-02 9.265446643E-01
 2.466345280E-01 -5.368703231E-02 9.352259365E-01
 2.592961490E-01 -5.451678857E-02 9.418615818E-01
 2.704901099E-01 -5.518712103E-02 9.530382520E-01
 2.833879292E-01 -5.585316941E-02 9.603047804E-01
 2.960752547E-01 -5.641608685E-02 9.701036408E-01
 3.091527522E-01 -5.687957257E-02 9.773722227E-01
 3.209391534E-01 -5.720674619E-02 9.843666472E-01
 3.336030841E-01 -5.746610835E-02 9.969822653E-01
 3.444656134E-01 -5.757948756E-02 1.006434982E+00
 3.558913171E-01 -5.760177225E-02 1.008148499E+00
 3.668498695E-01 -5.753074214E-02 1.010465021E+00
 3.774466515E-01 -5.736513436E-02 1.009496685E+00
 3.889952004E-01 -5.708502978E-02 1.004701842E+00
 4.017677307E-01 -5.663727224E-02 9.933039377E-01
 4.142317772E-01 -5.608797446E-02 9.875465582E-01
 4.272409379E-01 -5.534356087E-02 9.703938845E-01
 4.399431944E-01 -5.450423062E-02 9.561648391E-01
 4.526897669E-01 -5.352363363E-02 9.416232466E-01
 4.650743604E-01 -5.245517939E-02 9.264456102E-01
 4.773301482E-01 -5.127071217E-02 9.073009493E-01
 4.890449941E-01 -5.006432161E-02 8.936428683E-01
 5.014131069E-01 -4.868326336E-02 8.751206316E-01
 5.151734352E-01 -4.706831649E-02 8.587496129E-01
 5.289564133E-01 -4.535275325E-02 8.414930124E-01
 5.423191190E-01 -4.362514243E-02 8.260795074E-01
 5.557663441E-01 -4.183865711E-02 8.133655533E-01
 5.684978366E-01 -4.007844627E-02 7.977869189E-01
 5.814677477E-01 -3.825921193E-02 7.833469463E-01
 5.936089754E-01 -3.656608239E-02 7.759194227E-01
 6.056041121E-01 -3.483904153E-02 7.624779214E-01
 6.192407012E-01 -3.288819641E-02 7.509914745E-01
 6.336351633E-01 -3.083070740E-02 7.401808403E-01
 6.477316618E-01 -2.883659117E-02 7.329804184E-01
 6.609366536E-01 -2.692536823E-02 7.207232380E-01
 6.743634939E-01 -2.500686608E-02 7.106966059E-01
 6.869021058E-01 -2.325914055E-02 7.045900842E-01
 6.993771791E-01 -2.153073251E-02 6.974783744E-01
 7.139214277E-01 -1.951774769E-02 6.878854907E-01
 7.266401052E-01 -1.777033322E-02 6.774751614E-01
 7.385419011E-01 -1.622516289E-02 6.756920983E-01
 7.505567074E-01 -1.462396514E-02 6.648923322E-01
 7.629431486E-01 -1.303654537E-02 6.585152285E-01
 7.756366134E-01 -1.145514380E-02 6.514395091E-01
 7.873514891E-01 -1.003633346E-02 6.448323801E-01
 8.000265956E-01 -8.553346619E-03 6.375868227E-01
 8.112531900E-01 -7.308310363E-03 6.331085923E-01
 8.226557374E-01 -6.064719986E-03 6.246714543E-01
 8.353220820E-01 -4.795468412E-03 6.200670017E-01
 8.478356600E-01 -3.621720476E-03 6.143258756E-01
 8.598779440E-01 -2.569772303E-03 6.078344044E-01
 8.717825413E-01 -1.628285740E-03 6.029163805E-01
 8.838259578E-01 -7.870974368E-04 5.980251659E-01
 8.970865011E-01 -1.802633233E-05 5.947977438E-01
 9.071645737E-01 4.629730247E-04 5.924541984E-01
 9.173758030E-01 8.468526066E-04 5.917636689E-01
 9.263901114E-01 1.112872269E-03 5.908120345E-01
 9.350914955E-01 1.291921944E-03 5.905229251E-01
 9.472857714E-01 1.426240196E-03 5.912880370E-01
 9.607168436E-01 1.424940769E-03 5.919112410E-01
 9.763461947E-01 1.237703487E-03 5.907607377E-01
 9.891208410E-01 9.175946470E-04 5.848238898E-01
 -5.000000000E-01 -1.000000000E+00 7.243457626E-01
 3.500000000E+00 -1.000000000E+00 7.282372542E-01
 3.500000000E+00 1.000000000E+00 7.136968732E-01
 -5.000000000E-01 1.000000000E+00 7.247241021E-01
 9.939990044E-01 1.686138712E-03 6.313617094E-01
 9.815841019E-01 3.984088544E-03 6.716470272E-01
 9.679255486E-01 6.483812351E-03 6.954592710E-01
 9.534082413E-01 9.133751504E-03 7.164820299E-01
 9.396749437E-01 1.163506601E-02 7.362248103E-01
 9.272227585E-01 1.386534655E-02 7.521424452E-01
 9.152319431E-01 1.596676512E-02 7.660226673E-01
 9.030630887E-01 1.804754976E-02 7.781975330E-01
 8.910314441E-01 2.005667705E-02 7.911173276E-01
 8.785638511E-01 2.207421698E-02 8.041175396E-01
 8.659656942E-01 2.401637752E-02 8.074467692E-01
 8.534020483E-01 2.590635419E-02 8.153334895E-01
 8.413192928E-01 2.769794315E-02 8.259626976E-01
 8.295075893E-01 2.938290499E-02 8.302602015E-01
 8.170112073E-01 3.111860249E-02 8.366300551E-01
 8.038726747E-01 3.289721161E-02 8.399723523E-01
 7.912766337E-01 3.457653150E-02 8.490790815E-01
 7.791144550E-01 3.616081551E-02 8.515245055E-01
 7.670168579E-01 3.771253116E-02 8.607638002E-01
 7.546536326E-01 3.927111626E-02 8.675804409E-01
 7.412682772E-01 4.090821184E-02 8.746912870E-01
 7.289647758E-01 4.238649085E-02 8.846519848E-01
 7.180207372E-01 4.365531541E-02 8.879261287E-01
 7.066363394E-01 4.494759068E-02 8.947622629E-01
 6.939414144E-01 4.635772668E-02 9.047546159E-01
 6.805604398E-01 4.778937064E-02 9.128476660E-01
 6.583911479E-01 5.004056543E-02 9.273934052E-01
 6.470711231E-01 5.113396794E-02 9.379703815E-01
 6.356008649E-01 5.219038948E-02 9.446465521E-01
 6.241521835E-01 5.319644883E-02 9.557272610E-01
 6.132011712E-01 5.410732143E-02 9.629650337E-01
 6.015043259E-01 5.501593277E-02 9.678334694E-01
 5.893009305E-01 5.590932630E-02 9.761999171E-01
 5.766966939E-01 5.676539615E-02 9.862637060E-01
 5.636842251E-01 5.757582001E-02 9.956063927E-01
 5.511974692E-01 5.827288516E-02 1.000686609E+00
 5.396119952E-01 5.885521509E-02 1.009535311E+00
 5.283952951E-01 5.935835838E-02 1.018321147E+00
 5.161797106E-01 5.983145908E-02 1.020663332E+00
 5.041880459E-01 6.022402458E-02 1.019751850E+00
 4.920326173E-01 6.054779515E-02 1.017911596E+00
 4.788552225E-01 6.082330458E-02 1.013484357E+00
 4.649805129E-01 6.101831608E-02 1.007043263E+00
 4.508823305E-01 6.114080548E-02 1.010055731E+00
 4.375023246E-01 6.117024459E-02 1.001243542E+00
 4.245746881E-01 6.111584790E-02 9.974742918E-01
 4.120319635E-01 6.099791452E-02 9.931448475E-01
 3.996389061E-01 6.080617383E-02 9.846777662E-01
 3.873619735E-01 6.055064872E-02 9.775377366E-01
 3.758473396E-01 6.025977246E-02 9.745343446E-01
 3.639074862E-01 5.989938043E-02 9.709846142E-01
 3.512998521E-01 5.944714695E-02 9.597642539E-01
 3.389084190E-01 5.894534662E-02 9.587930207E-01
 3.272996694E-01 5.842189677E-02 9.521963970E-01
 3.157497495E-01 5.783426203E-02 9.456283101E-01
 3.029980958E-01 5.713235028E-02 9.407400134E-01
 2.894909233E-01 5.631274171E-02 9.341035421E-01
 2.761529982E-01 5.543178692E-02 9.276868752E-01
 2.636986673E-01 5.454508774E-02 9.231595601E-01
 2.513348013E-01 5.359924957E-02 9.177681906E-01
 2.386044934E-01 5.255226418E-02 9.111456216E-01
 2.259545326E-01 5.144238472E-02 9.059236744E-01
 2.138110399E-01 5.030700378E-02 8.992136564E-01
 2.021145299E-01 4.915101267E-02 8.949384766E-01
 1.900039166E-01 4.788136855E-02 8.874813686E-01
 1.776444018E-01 4.651316628E-02 8.829904440E-01
 1.657563969E-01 4.511835612E-02 8.762253100E-01
 1.538594291E-01 4.364029691E-02 8.690679714E-01
 1.424069703E-01 4.214655608E-02 8.646178093E-01
 1.312231049E-01 4.060136341E-02 8.575392041E-01
 1.196748763E-01 3.891795687E-02 8.520378353E-01
 1.085341871E-01 3.719784692E-02 8.464522884E-01
 8.782013133E-02 3.368886188E-02 8.319808872E-01
 7.629624382E-02 3.153744154E-02 8.238053620E-01
 7.142632455E-02 -3.209858295E-02 8.306735217E-01
 9.163028002E-02 -3.585648350E-02 8.443487190E-01
 1.022230200E-01 -3.762483597E-02 8.492750552E-01
 1.134143844E-01 -3.937361203E-02 8.559144495E-01
 1.249283105E-01 -4.105904326E-02 8.623770459E-01
 1.358761936E-01 -4.256684333E-02 8.685681426E-01
 1.466091201E-01 -4.395915754E-02 8.745313109E-01
 1.579514891E-01 -4.534525052E-02 8.795443908E-01
 1.696383283E-01 -4.669583775E-02 8.862824452E-01
 1.814529002E-01 -4.798152298E-02 8.935185017E-01
 1.927001178E-01 -4.913188517E-02 9.006884902E-01
 2.035476416E-01 -5.017299950E-02 9.068439470E-01
 2.152808011E-01 -5.122514814E-02 9.140344439E-01
 2.278268114E-01 -5.226931721E-02 9.213746462E-01
 2.404292300E-01 -5.323483422E-02 9.313106990E-01
 2.529653385E-01 -5.410191044E-02 9.383799599E-01
 2.648931295E-01 -5.485195480E-02 9.473741318E-01
 2.769390196E-01 -5.552014522E-02 9.567974904E-01
 2.897315919E-01 -5.613462813E-02 9.649047948E-01
 3.026140034E-01 -5.664782971E-02 9.741266803E-01
 3.150459528E-01 -5.704315938E-02 9.809557934E-01
 3.272711188E-01 -5.733642727E-02 9.893468351E-01
 3.390343487E-01 -5.752279796E-02 1.003639187E+00
 3.501784652E-01 -5.759062991E-02 1.007379095E+00
 3.613705933E-01 -5.756625719E-02 1.009233673E+00
 3.721482605E-01 -5.744793825E-02 1.010826017E+00
 3.832209259E-01 -5.722508207E-02 1.007440990E+00
 3.953814656E-01 -5.686115101E-02 9.992612971E-01
 4.079997540E-01 -5.636262335E-02 9.898795261E-01
 4.207363576E-01 -5.571576767E-02 9.807320146E-01
 4.335920662E-01 -5.492389575E-02 9.620876175E-01
 4.463164806E-01 -5.401393212E-02 9.495292053E-01
 4.588820636E-01 -5.298940651E-02 9.340009759E-01
 4.712022543E-01 -5.186294578E-02 9.171973089E-01
 4.831875712E-01 -5.066751689E-02 9.000496963E-01
 4.952290505E-01 -4.937379248E-02 8.850266763E-01
 5.082932711E-01 -4.787578993E-02 8.663726363E-01
 5.220649242E-01 -4.621053487E-02 8.503613348E-01
 5.356377661E-01 -4.448894784E-02 8.334715823E-01
 5.490427315E-01 -4.273189977E-02 8.196109693E-01
 5.621320903E-01 -4.095855169E-02 8.058875276E-01
 5.749827921E-01 -3.916882910E-02 7.901180961E-01
 5.875383615E-01 -3.741264716E-02 7.792443556E-01
 5.996065438E-01 -3.570256196E-02 7.697191540E-01
 6.124224067E-01 -3.386361897E-02 7.563321341E-01
 6.264379323E-01 -3.185945190E-02 7.455858076E-01
 6.406834126E-01 -2.983364929E-02 7.363799617E-01
 6.543341577E-01 -2.788097970E-02 7.273105217E-01
 6.676500738E-01 -2.596611716E-02 7.153315620E-01
 6.806327999E-01 -2.413300332E-02 7.074202053E-01
 6.931396425E-01 -2.239493653E-02 7.011675364E-01
 7.066493034E-01 -2.052424010E-02 6.930112168E-01
 7.202807665E-01 -1.864404045E-02 6.824153452E-01
 7.325910032E-01 -1.699774805E-02 6.760876721E-01
 7.445493042E-01 -1.542456402E-02 6.708371486E-01
 7.567499280E-01 -1.383025525E-02 6.614592367E-01
 7.692898810E-01 -1.224584458E-02 6.549323894E-01
 7.814940512E-01 -1.074573863E-02 6.481339240E-01
 7.936890423E-01 -9.294840042E-03 6.412502070E-01
 8.056398928E-01 -7.930828491E-03 6.351356056E-01
 8.169544637E-01 -6.686515175E-03 6.290404194E-01
 8.289889097E-01 -5.430094199E-03 6.223237498E-01
 8.415788710E-01 -4.208594444E-03 6.173584962E-01
 8.538568020E-01 -3.095746390E-03 6.110139074E-01
 8.658302426E-01 -2.099029021E-03 6.052919728E-01
 8.778042495E-01 -1.207691588E-03 6.002538684E-01
 8.904562294E-01 -4.025618846E-04 5.966948465E-01
 9.122701883E-01 6.549128157E-04 5.916444874E-01
 9.411886334E-01 1.359081070E-03 5.911162171E-01
 9.540013075E-01 1.425590483E-03 5.916063563E-01
 9.685315192E-01 1.331322128E-03 5.920806793E-01
 9.827335179E-01 1.077649067E-03 5.881730538E-01
 9.947112799E-01 7.188604504E-04 5.844956789E-01
 -5.000000000E-01 9.500000000E-01 7.226325803E-01
 -5.000000000E-01 9.000000000E-01 7.194138176E-01
 -5.000000000E-01 8.500000000E-01 7.169157605E-01
 -5.000000000E-01 8.000000000E-01 7.147083024E-01
 -5.000000000E-01 7.500000000E-01 7.126266009E-01
 -5.000000000E-01 7.000000000E-01 7.105518853E-01
 -5.000000000E-01 6.500000000E-01 7.084456234E-01
 -5.000000000E-01 6.000000000E-01 7.062845380E-01
 -5.000000000E-01 5.500000000E-01 7.040663590E-01
 -5.000000000E-01 5.000000000E-01 7.017988802E-01
 -5.000000000E-01 4.500000000E-01 6.995165468E-01
 -5.000000000E-01 4.000000000E-01 6.972201932E-01
 -5.000000000E-01 3.500000000E-01 6.949608644E-01
 -5.000000000E-01 3.000000000E-01 6.927938474E-01
 -5.000000000E-01 2.500000000E-01 6.907564252E-01
 -5.000000000E-01 2.000000000E-01 6.889515473E-01
 -5.000000000E-01 1.500000000E-01 6.874532510E-01
 -5.000000000E-01 1.000000000E-01 6.862968264E-01
 -5.000000000E-01 5.000000000E-02 6.855500097E-01
 -5.000000000E-01 2.752242878E-12 6.852240830E-01
 -5.000000000E-01 -5.000000000E-02 6.853705790E-01
 -5.000000000E-01 -1.000000000E-01 6.859822815E-01
 -5.000000000E-01 -1.500000000E-01 6.869812166E-01
 -5.000000000E-01 -2.000000000E-01 6.883662253E-01
 -5.000000000E-01 -2.500000000E-01 6.900100731E-01
 -5.000000000E-01 -3.000000000E-01 6.919047490E-01
 -5.000000000E-01 -3.500000000E-01 6.939753141E-01
 -5.000000000E-01 -4.000000000E-01 6.961455740E-01
 -5.000000000E-01 -4.500000000E-01 6.983536699E-01
 -5.000000000E-01 -5.000000000E-01 7.006111124E-01
 -5.000000000E-01 -5.500000000E-01 7.028139534E-01
 -5.000000000E-01 -6.000000000E-01 7.050139065E-01
 -5.000000000E-01 -6.500000000E-01 7.071678410E-01
 -5.000000000E-01 -7.000000000E-01 7.093107036E-01
 -5.000000000E-01 -7.500000000E-01 7.114437417E-01
 -5.000000000E-01 -8.000000000E-01 7.136270361E-01
 -5.000000000E-01 -8.500000000E-01 7.159385716E-01
 -5.000000000E-01 -9.000000000E-01 7.186138865E-01
 -5.000000000E-01 -9.500000000E-01 7.220932780E-01
 -4.500000000E-01 -1.000000000E+00 7.219165636E-01
 -4.000000000E-01 -1.000000000E+00 7.185944098E-01
 -3.500000000E-01 -1.000000000E+00 7.163501169E-01
 -3.000000000E-01 -1.000000000E+00 7.148959632E-01
 -2.500000000E-01 -1.000000000E+00 7.140336547E-01
 -2.000000000E-01 -1.000000000E+00 7.137360234E-01
 -1.500000000E-01 -1.000000000E+00 7.139931823E-01
 -1.000000000E-01 -1.000000000E+00 7.148247140E-01
 -5.000000000E-02 -1.000000000E+00 7.160603067E-01
 -9.424683256E-13 -1.000000000E+00 7.179917606E-01
 5.000000000E-02 -1.000000000E+00 7.205703207E-01
 1.000000000E-01 -1.000000000E+00 7.233715628E-01
 1.500000000E-01 -1.000000000E+00 7.263480474E-01
 2.000000000E-01 -1.000000000E+00 7.296168598E-01
 2.500000000E-01 -1.000000000E+00 7.329521097E-01
 3.000000000E-01 -1.000000000E+00 7.360344146E-01
 3.500000000E-01 -1.000000000E+00 7.387479751E-01
 4.000000000E-01 -1.000000000E+00 7.408369143E-01
 4.500000000E-01 -1.000000000E+00 7.422149322E-01
 5.000000000E-01 -1.000000000E+00 7.429081447E-01
 5.500000000E-01 -1.000000000E+00 7.429333517E-01
 6.000000000E-01 -1.000000000E+00 7.422857772E-01
 6.500000000E-01 -1.000000000E+00 7.409586183E-01
 7.000000000E-01 -1.000000000E+00 7.392309707E-01
 7.500000000E-01 -1.000000000E+00 7.372105314E-01
 8.000000000E-01 -1.000000000E+00 7.348564877E-01
 8.500000000E-01 -1.000000000E+00 7.323701344E-01
 9.000000000E-01 -1.000000000E+00 7.299015943E-01
 9.500000000E-01 -1.000000000E+00 7.274298732E-01
 1.000000000E+00 -1.000000000E+00 7.251254179E-01
 1.050000000E+00 -1.000000000E+00 7.229155195E-01
 1.100000000E+00 -1.000000000E+00 7.210497132E-01
 1.150000000E+00 -1.000000000E+00 7.194567818E-01
 1.200000000E+00 -1.000000000E+00 7.180996991E-01
 1.250000000E+00 -1.000000000E+00 7.170261872E-01
 1.300000000E+00 -1.000000000E+00 7.161902334E-01
 1.350000000E+00 -1.000000000E+00 7.155838020E-01
 1.400000000E+00 -1.000000000E+00 7.151750759E-01
 1.450000000E+00 -1.000000000E+00 7.149302574E-01
 1.500000000E+00 -1.000000000E+00 7.147921480E-01
 1.550000000E+00 -1.000000000E+00 7.148228125E-01
 1.600000000E+00 -1.000000000E+00 7.149342758E-01
 1.650000000E+00 -1.000000000E+00 7.151639357E-01
 1.700000000E+00 -1.000000000E+00 7.154320196E-01
 1.750000000E+00 -1.000000000E+00 7.157394801E-01
 1.800000000E+00 -1.000000000E+00 7.161079940E-01
 1.850000000E+00 -1.000000000E+00 7.165553827E-01
 1.900000000E+00 -1.000000000E+00 7.169325820E-01
 1.950000000E+00 -1.000000000E+00 7.173913395E-01
 2.000000000E+00 -1.000000000E+00 7.178019360E-01
 2.050000000E+00 -1.000000000E+00 7.182133828E-01
 2.100000000E+00 -1.000000000E+00 7.186701207E-01
 2.150000000E+00 -1.000000000E+00 7.190896750E-01
 2.200000000E+00 -1.000000000E+00 7.194614534E-01
 2.250000000E+00 -1.000000000E+00 7.198328529E-01
 2.300000000E+00 -1.000000000E+00 7.202174625E-01
 2.350000000E+00 -1.000000000E+00 7.206452466E-01
 2.400000000E+00 -1.000000000E+00 7.209912278E-01
 2.450000000E+00 -1.000000000E+00 7.212677197E-01
 2.500000000E+00 -1.000000000E+00 7.215399013E-01
 2.550000000E+00 -1.000000000E+00 7.217959905E-01
 2.600000000E+00 -1.000000000E+00 7.220491375E-01
 2.650000000E+00 -1.000000000E+00 7.223025953E-01
 2.700000000E+00 -1.000000000E+00 7.224927988E-01
 2.750000000E+00 -1.000000000E+00 7.226900691E-01
 2.800000000E+00 -1.000000000E+00 7.228887554E-01
 2.850000000E+00 -1.000000000E+00 7.230468855E-01
 2.900000000E+00 -1.000000000E+00 7.232251182E-01
 2.950000000E+00 -1.000000000E+00 7.233991588E-01
 3.000000000E+00 -1.000000000E+00 7.235453511E-01
 3.050000000E+00 -1.000000000E+00 7.236455521E-01
 3.100000000E+00 -1.000000000E+00 7.237281599E-01
 3.150000000E+00 -1.000000000E+00 7.238695505E-01
 3.200000000E+00 -1.000000000E+00 7.239395439E-01
 3.250000000E+00 -1.000000000E+00 7.240705349E-01
 3.300000000E+00 -1.000000000E+00 7.242763236E-01
 3.350000000E+00 -1.000000000E+00 7.246258462E-01
 3.400000000E+00 -1.000000000E+00 7.250750404E-01
 3.450000000E+00 -1.000000000E+00 7.261505270E-01
 3.500000000E+00 -9.500000000E-01 7.295324727E-01
 3.500000000E+00 -9.000000000E-01 7.302195694E-01
 3.500000000E+00 -8.500000000E-01 7.306904311E-01
 3.500000000E+00 -8.000000000E-01 7.310454686E-01
 3.500000000E+00 -7.500000000E-01 7.313062376E-01
 3.500000000E+00 -7.000000000E-01 7.315515989E-01
 3.500000000E+00 -6.500000000E-01 7.318165971E-01
 3.500000000E+00 -6.000000000E-01 7.320989688E-01
 3.500000000E+00 -5.500000000E-01 7.323929984E-01
 3.500000000E+00 -5.000000000E-01 7.327018993E-01
 3.500000000E+00 -4.500000000E-01 7.330013622E-01
 3.500000000E+00 -4.000000000E-01 7.333021894E-01
 3.500000000E+00 -3.500000000E-01 7.335998038E-01
 3.500000000E+00 -3.000000000E-01 7.339122443E-01
 3.500000000E+00 -2.500000000E-01 7.341936653E-01
 3.500000000E+00 -2.000000000E-01 7.343871206E-01
 3.500000000E+00 -1.500000000E-01 7.344851404E-01
 3.500000000E+00 -1.000000000E-01 7.345162180E-01
 3.500000000E+00 -5.000000000E-02 7.345136263E-01
 3.500000000E+00 -2.752242878E-12 7.345103879E-01
 3.500000000E+00 5.000000000E-02 7.344907348E-01
 3.500000000E+00 1.000000000E-01 7.343902483E-01
 3.500000000E+00 1.500000000E-01 7.341819250E-01
 3.500000000E+00 2.000000000E-01 7.338791290E-01
 3.500000000E+00 2.500000000E-01 7.335730405E-01
 3.500000000E+00 3.000000000E-01 7.332611504E-01
 3.500000000E+00 3.500000000E-01 7.329525588E-01
 3.500000000E+00 4.000000000E-01 7.326464524E-01
 3.500000000E+00 4.500000000E-01 7.323255115E-01
 3.500000000E+00 5.000000000E-01 7.319421548E-01
 3.500000000E+00 5.500000000E-01 7.315573868E-01
 3.500000000E+00 6.000000000E-01 7.313300145E-01
 3.500000000E+00 6.500000000E-01 7.313882812E-01
 3.500000000E+00 7.000000000E-01 7.317318545E-01
 3.500000000E+00 7.500000000E-01 7.319196088E-01
 3.500000000E+00 8.000000000E-01 7.312174133E-01
 3.500000000E+00 8.500000000E-01 7.290551256E-01
 3.500000000E+00 9.000000000E-01 7.253717283E-01
 3.500000000E+00 9.500000000E-01 7.204051151E-01
 3.450000000E+00 1.000000000E+00 7.040978634E-01
 3.400000000E+00 1.000000000E+00 7.001979814E-01
 3.350000000E+00 1.000000000E+00 6.993292597E-01
 3.300000000E+00 1.000000000E+00 6.988162148E-01
 3.250000000E+00 1.000000000E+00 6.987640977E-01
 3.200000000E+00 1.000000000E+00 6.989724318E-01
 3.150000000E+00 1.000000000E+00 6.992513745E-01
 3.100000000E+00 1.000000000E+00 6.995181094E-01
 3.050000000E+00 1.000000000E+00 7.001583506E-01
 3.000000000E+00 1.000000000E+00 7.006153043E-01
 2.950000000E+00 1.000000000E+00 7.009070067E-01
 2.900000000E+00 1.000000000E+00 7.010899511E-01
 2.850000000E+00 1.000000000E+00 7.012407830E-01
 2.800000000E+00 1.000000000E+00 7.015994073E-01
 2.750000000E+00 1.000000000E+00 7.019237510E-01
 2.700000000E+00 1.000000000E+00 7.022171954E-01
 2.650000000E+00 1.000000000E+00 7.025540414E-01
 2.600000000E+00 1.000000000E+00 7.030088697E-01
 2.550000000E+00 1.000000000E+00 7.036043027E-01
 2.500000000E+00 1.000000000E+00 7.037765404E-01
 2.450000000E+00 1.000000000E+00 7.041515669E-01
 2.400000000E+00 1.000000000E+00 7.042646502E-01
 2.350000000E+00 1.000000000E+00 7.048327102E-01
 2.300000000E+00 1.000000000E+00 7.054599155E-01
 2.250000000E+00 1.000000000E+00 7.063103812E-01
 2.200000000E+00 1.000000000E+00 7.067587099E-01
 2.150000000E+00 1.000000000E+00 7.071765712E-01
 2.100000000E+00 1.000000000E+00 7.077768272E-01
 2.050000000E+00 1.000000000E+00 7.081440778E-01
 2.000000000E+00 1.000000000E+00 7.086894612E-01
 1.950000000E+00 1.000000000E+00 7.092371372E-01
 1.900000000E+00 1.000000000E+00 7.098746908E-01
 1.850000000E+00 1.000000000E+00 7.104969600E-01
 1.800000000E+00 1.000000000E+00 7.113851771E-01
 1.750000000E+00 1.000000000E+00 7.124306782E-01
 1.700000000E+00 1.000000000E+00 7.134471856E-01
 1.650000000E+00 1.000000000E+00 7.146667037E-01
 1.600000000E+00 1.000000000E+00 7.159166779E-01
 1.550000000E+00 1.000000000E+00 7.172524241E-01
 1.500000000E+00 1.000000000E+00 7.187794926E-01
 1.450000000E+00 1.000000000E+00 7.203290972E-01
 1.400000000E+00 1.000000000E+00 7.218929107E-01
 1.350000000E+00 1.000000000E+00 7.239580267E-01
 1.300000000E+00 1.000000000E+00 7.271595830E-01
 1.250000000E+00 1.000000000E+00 7.299829749E-01
 1.200000000E+00 1.000000000E+00 7.333480140E-01
 1.150000000E+00 1.000000000E+00 7.363462696E-01
 1.100000000E+00 1.000000000E+00 7.393685452E-01
 1.050000000E+00 1.000000000E+00 7.427829631E-01
 1.000000000E+00 1.000000000E+00 7.461569530E-01
 9.500000000E-01 1.000000000E+00 7.495059211E-01
 9.000000000E-01 1.000000000E+00 7.523244869E-01
 8.500000000E-01 1.000000000E+00 7.566700002E-01
 8.000000000E-01 1.000000000E+00 7.590229187E-01
 7.500000000E-01 1.000000000E+00 7.616813795E-01
 7.000000000E-01 1.000000000E+00 7.627363425E-01
 6.500000000E-01 1.000000000E+00 7.636350931E-01
 6.000000000E-01 1.000000000E+00 7.658962719E-01
 5.500000000E-01 1.000000000E+00 7.644358013E-01
 5.000000000E-01 1.000000000E+00 7.631137260E-01
 4.500000000E-01 1.000000000E+00 7.601025919E-01
 4.000000000E-01 1.000000000E+00 7.567090450E-01
 3.500000000E-01 1.000000000E+00 7.524365608E-01
 3.000000000E-01 1.000000000E+00 7.475893749E-01
 2.500000000E-01 1.000000000E+00 7.429357222E-01
 2.000000000E-01 1.000000000E+00 7.383322716E-01
 1.500000000E-01 1.000000000E+00 7.337376074E-01
 1.000000000E-01 1.000000000E+00 7.294935305E-01
 5.000000000E-02 1.000000000E+00 7.255314062E-01
 1.733724275E-12 1.000000000E+00 7.221065760E-01
 -5.000000000E-02 1.000000000E+00 7.196040920E-01
 -1.000000000E-01 1.000000000E+00 7.177549138E-01
 -1.500000000E-01 1.000000000E+00 7.164644996E-01
 -2.000000000E-01 1.000000000E+00 7.157701842E-01
 -2.500000000E-01 1.000000000E+00 7.157775475E-01
 -3.000000000E-01 1.000000000E+00 7.163797102E-01
 -3.500000000E-01 1.000000000E+00 7.175985509E-01
 -4.000000000E-01 1.000000000E+00 7.195446523E-01
 -4.500000000E-01 1.000000000E+00 7.224861259E-01
 1.973542428E+00 -9.566125458E-01 7.192553540E-01
 1.975342996E+00 9.569008011E-01 7.188487743E-01
 9.098836057E-01 -3.862649079E-03 5.949663343E-01
 8.328005735E-01 -1.059287762E-02 6.231703893E-01
 7.548834687E-01 -1.948691690E-02 6.642831759E-01
 9.858540259E-01 -3.747300012E-03 5.924823009E-01
 6.845052360E-01 -2.898673697E-02 7.066694494E-01
 6.163974552E-01 -3.933956330E-02 7.550450792E-01
 5.463381821E-01 -4.853997580E-02 8.217358417E-01
 4.812244256E-01 -5.587410450E-02 9.001132702E-01
 4.246061760E-01 -6.114411138E-02 9.701360857E-01
 3.643148969E-01 -6.251209375E-02 1.005240342E+00
 3.121943305E-01 -6.316165144E-02 9.752875128E-01
 2.560031182E-01 -5.936799715E-02 9.376055557E-01
 1.952203118E-01 -5.419966580E-02 9.000768870E-01
 1.390984748E-01 -4.697056790E-02 8.684873396E-01
 9.347645218E-02 -4.087460128E-02 8.412352183E-01
 5.228347572E-02 -3.527692599E-02 8.003151057E-01
 1.599260616E-02 -2.008731675E-02 6.973813797E-01
 9.310211575E-01 1.850421056E-02 7.477044110E-01
 8.701485070E-01 2.927265400E-02 8.059379697E-01
 9.918421977E-01 7.645046265E-03 6.446115354E-01