TITLE     = "Visualization of the solution"
VARIABLES = "x"
"y"
"Mach"
ZONE T="Zone"
 STRANDID=0, SOLUTIONTIME=0
 Nodes=12267, Elements=23951, ZONETYPE=FEQuadrilateral
 DATAPACKING=POINT
 DT=(DOUBLE DOUBLE DOUBLE )
 9.998602867E-01 5.106452154E-04 5.235562143E-01
 9.873570800E-01 3.014142858E-03 6.379291463E-01
 9.745438695E-01 5.587947089E-03 6.687489598E-01
 9.576804638E-01 8.966527879E-03 6.941784025E-01
 9.426264167E-01 1.198122464E-02 7.137501030E-01
 9.280098677E-01 1.489702612E-02 7.318369112E-01
 9.162293077E-01 1.721685007E-02 7.442386396E-01
 9.043506384E-01 1.954327524E-02 7.547862029E-01
 8.928635120E-01 2.183851786E-02 7.777221356E-01
 8.807651997E-01 2.412741445E-02 7.871028082E-01
 8.682845235E-01 2.642830275E-02 7.949570964E-01
 8.559073806E-01 2.870767377E-02 8.104137279E-01
 8.435828686E-01 3.090681508E-02 8.230274950E-01
 8.325080276E-01 3.279687837E-02 8.270742738E-01
 8.208294511E-01 3.476404026E-02 8.354202521E-01
 8.082302213E-01 3.682947159E-02 8.414598292E-01
 7.955993414E-01 3.887595981E-02 8.514756302E-01
 7.833280563E-01 4.082428664E-02 8.614193878E-01
 7.712100744E-01 4.267960042E-02 8.648233019E-01
 7.600245476E-01 4.441187903E-02 8.810256533E-01
 7.472758293E-01 4.629199952E-02 8.874035385E-01
 7.339584827E-01 4.820007086E-02 8.951444950E-01
 7.235720158E-01 4.966727644E-02 9.064104845E-01
 7.125993371E-01 5.116283894E-02 9.136187127E-01
 7.010666728E-01 5.268886313E-02 9.205529860E-01
 6.879097223E-01 5.437828600E-02 9.307509550E-01
 6.752647161E-01 5.594776571E-02 9.434078676E-01
 6.650331020E-01 5.716454983E-02 9.511526061E-01
 6.534909010E-01 5.848352239E-02 9.580911604E-01
 6.417410374E-01 5.976041779E-02 9.646969123E-01
 6.300743818E-01 6.097678095E-02 9.681138470E-01
 6.184771061E-01 6.211310253E-02 9.476082211E-01
 6.079695821E-01 6.310443580E-02 9.451933398E-01
 5.958085060E-01 6.419288367E-02 1.078836661E+00
 5.843758583E-01 6.513533741E-02 1.126090773E+00
 5.708789825E-01 6.613986194E-02 1.109490659E+00
 5.585286021E-01 6.700748950E-02 1.108138402E+00
 5.462417006E-01 6.776837260E-02 1.101604683E+00
 5.353210568E-01 6.837836653E-02 1.099156456E+00
 5.237780213E-01 6.897395104E-02 1.094199402E+00
 5.114992857E-01 6.950881332E-02 1.084471577E+00
 5.003073812E-01 6.992489845E-02 1.079715998E+00
 4.874016345E-01 7.034452260E-02 1.077520570E+00
 4.740248322E-01 7.069609314E-02 1.067705719E+00
 4.601469040E-01 7.094394416E-02 1.057074342E+00
 4.467967153E-01 7.109853625E-02 1.053812479E+00
 4.341737330E-01 7.118653506E-02 1.048351961E+00
 4.214190841E-01 7.118312269E-02 1.034719966E+00
 4.088443816E-01 7.109961659E-02 1.025545390E+00
 3.962035477E-01 7.094547153E-02 1.023607374E+00
 3.839914203E-01 7.074345648E-02 1.022374534E+00
 3.723908663E-01 7.047708333E-02 1.014180846E+00
 3.591984808E-01 7.010547817E-02 1.007958912E+00
 3.464182019E-01 6.966441125E-02 9.996616420E-01
 3.331358731E-01 6.913080066E-02 9.985492083E-01
 3.221274018E-01 6.863867491E-02 9.940283378E-01
 3.094178140E-01 6.796970963E-02 9.822563557E-01
 2.964601219E-01 6.722845137E-02 9.773518923E-01
 2.824876010E-01 6.633778661E-02 9.735306229E-01
 2.703873515E-01 6.548830122E-02 9.684881225E-01
 2.584355772E-01 6.456860900E-02 9.614524022E-01
 2.461397052E-01 6.354641914E-02 9.553998660E-01
 2.337176055E-01 6.243116409E-02 9.485306855E-01
 2.215245515E-01 6.124664471E-02 9.414033252E-01
 2.096663415E-01 6.002555788E-02 9.375626212E-01
 1.978990287E-01 5.871329457E-02 9.287821131E-01
 1.854503304E-01 5.723538995E-02 9.223824587E-01
 1.735959500E-01 5.573021993E-02 9.161285100E-01
 1.621198654E-01 5.416741595E-02 9.070459302E-01
 1.502838135E-01 5.245585367E-02 9.003853122E-01
 1.395567358E-01 5.079755187E-02 8.908386710E-01
 1.279030442E-01 4.888371378E-02 8.819339739E-01
 1.166236028E-01 4.690647870E-02 8.736250360E-01
 1.060842723E-01 4.493429139E-02 8.611877414E-01
 9.626675397E-02 4.297679663E-02 8.537830424E-01
 8.539744467E-02 4.065699875E-02 8.409784075E-01
 7.387869805E-02 3.799548745E-02 8.266707524E-01
 6.400023401E-02 3.552229330E-02 8.125593645E-01
 5.420628190E-02 3.286208957E-02 7.946960779E-01
 4.549061507E-02 3.027132340E-02 7.783668020E-01
 3.801876679E-02 2.785289474E-02 7.602677728E-01
 3.137083352E-02 2.550794184E-02 7.407512546E-01
 2.565006725E-02 2.329142019E-02 7.226052054E-01
 2.146189287E-02 2.153429389E-02 7.024888497E-01
 1.743512601E-02 1.968396083E-02 6.799645542E-01
 1.427226327E-02 1.810904033E-02 6.558009585E-01
 1.136480644E-02 1.652071066E-02 6.316071804E-01
 9.278506972E-03 1.528028864E-02 6.109357298E-01
 7.434456144E-03 1.408462971E-02 5.875924839E-01
 5.754379090E-03 1.289339643E-02 5.525053865E-01
 3.579867305E-03 1.114831958E-02 5.048480459E-01
 1.712368103E-03 9.357655421E-03 4.509598783E-01
 1.838391181E-04 7.514151279E-03 3.582193169E-01
 -1.290131360E-03 4.896394908E-03 2.300333026E-01
 -1.851787441E-03 2.966982545E-03 1.071154123E-01
 -1.981526380E-03 1.406159019E-03 8.252827278E-03
 -1.807949157E-03 -2.549005148E-04 1.234263320E-01
 -1.322366646E-03 -1.915371860E-03 2.360899041E-01
 -3.198547056E-04 -3.923892509E-03 3.447885808E-01
 1.169968047E-03 -5.979119334E-03 4.398918549E-01
 3.182618180E-03 -8.096053265E-03 5.174567896E-01
 5.034561269E-03 -9.697061032E-03 5.731320351E-01
 7.095912006E-03 -1.124769263E-02 6.122333166E-01
 8.769617416E-03 -1.237345673E-02 6.443823121E-01
 1.087639108E-02 -1.367264427E-02 6.693542448E-01
 1.326814946E-02 -1.500984002E-02 6.929933235E-01
 1.656500064E-02 -1.668746211E-02 7.172460151E-01
 1.949988306E-02 -1.804171130E-02 7.399097759E-01
 2.333587594E-02 -1.967136934E-02 7.576025754E-01
 2.869859524E-02 -2.171919867E-02 7.758278390E-01
 3.452467546E-02 -2.373015508E-02 7.939858421E-01
 4.148914665E-02 -2.589571662E-02 8.092110673E-01
 4.908061400E-02 -2.803309262E-02 8.211619194E-01
 5.805586278E-02 -3.032052889E-02 8.306373505E-01
 6.677537411E-02 -3.235924244E-02 8.390142590E-01
 7.694838196E-02 -3.454045951E-02 8.472871548E-01
 8.690683544E-02 -3.651351482E-02 8.546319934E-01
 9.727561474E-02 -3.842583299E-02 8.614049524E-01
 1.084451526E-01 -4.034871235E-02 8.686117535E-01
 1.197652891E-01 -4.216207191E-02 8.746837004E-01
 1.314989179E-01 -4.392521456E-02 8.815222435E-01
 1.420438290E-01 -4.541540146E-02 8.888592930E-01
 1.531413496E-01 -4.688990116E-02 8.940422888E-01
 1.651086658E-01 -4.839107767E-02 9.019929660E-01
 1.765763164E-01 -4.973694310E-02 9.096167643E-01
 1.882655621E-01 -5.101947859E-02 9.161793993E-01
 1.989129484E-01 -5.211494118E-02 9.231654191E-01
 2.100398839E-01 -5.319066718E-02 9.312093132E-01
 2.221485525E-01 -5.426999927E-02 9.379283604E-01
 2.345596105E-01 -5.528950691E-02 9.467599098E-01
 2.465713024E-01 -5.618857965E-02 9.564858315E-01
 2.586309910E-01 -5.699819699E-02 9.650067703E-01
 2.696518004E-01 -5.766205117E-02 9.750893767E-01
 2.821076810E-01 -5.830856785E-02 9.822687832E-01
 2.942521870E-01 -5.884227902E-02 9.895636171E-01
 3.071390092E-01 -5.930854380E-02 1.000576832E+00
 3.189730644E-01 -5.962590873E-02 1.011249667E+00
 3.314720392E-01 -5.985352024E-02 1.019166020E+00
 3.423683941E-01 -5.994883552E-02 1.026188697E+00
 3.539337516E-01 -5.995817855E-02 1.034802612E+00
 3.646910787E-01 -5.985035375E-02 1.035167077E+00
 3.755040169E-01 -5.965189636E-02 1.022732472E+00
 3.872694373E-01 -5.933544412E-02 1.011434442E+00
 4.006499648E-01 -5.883157626E-02 1.000804588E+00
 4.131559432E-01 -5.822281167E-02 9.898532487E-01
 4.259804487E-01 -5.746342242E-02 9.743038507E-01
 4.384772182E-01 -5.659380928E-02 9.583714011E-01
 4.506897926E-01 -5.563031882E-02 9.434743379E-01
 4.627464116E-01 -5.456345528E-02 9.274705766E-01
 4.750898778E-01 -5.335238576E-02 9.055973256E-01
 4.871136546E-01 -5.212898552E-02 8.976489473E-01
 4.997669458E-01 -5.070213974E-02 8.780528572E-01
 5.135657191E-01 -4.904888943E-02 8.559996106E-01
 5.271298885E-01 -4.739234224E-02 8.454309594E-01
 5.403654575E-01 -4.569141939E-02 8.319258634E-01
 5.529797077E-01 -4.398005456E-02 8.120621027E-01
 5.666732788E-01 -4.213328660E-02 8.017158582E-01
 5.797873139E-01 -4.032894596E-02 7.919309428E-01
 5.922091603E-01 -3.855160996E-02 7.770949370E-01
 6.050807834E-01 -3.671336174E-02 7.662075011E-01
 6.194797754E-01 -3.465588018E-02 7.560506034E-01
 6.336423159E-01 -3.259354457E-02 7.429601051E-01
 6.484153867E-01 -3.045609966E-02 7.324763052E-01
 6.614170074E-01 -2.858190238E-02 7.233786277E-01
 6.749090552E-01 -2.665298246E-02 7.151304630E-01
 6.872414351E-01 -2.489567734E-02 7.070414501E-01
 6.994841695E-01 -2.314570360E-02 6.970216282E-01
 7.142881751E-01 -2.109666727E-02 6.905666502E-01
 7.275720835E-01 -1.926866919E-02 6.826515318E-01
 7.395688891E-01 -1.763715222E-02 6.754338753E-01
 7.529917955E-01 -1.583357714E-02 6.676612068E-01
 7.650819421E-01 -1.420841087E-02 6.563649749E-01
 7.788994312E-01 -1.247561071E-02 6.526904364E-01
 7.909632325E-01 -1.098161843E-02 6.455966364E-01
 8.039551377E-01 -9.409560822E-03 6.375732977E-01
 8.150131106E-01 -8.137449622E-03 6.335076236E-01
 8.260585070E-01 -6.859774236E-03 6.229113862E-01
 8.387637138E-01 -5.500057712E-03 6.156869105E-01
 8.515604734E-01 -4.264930729E-03 6.121131899E-01
 8.637079000E-01 -3.152939724E-03 6.053168771E-01
 8.749172688E-01 -2.212523483E-03 5.999283642E-01
 8.861803412E-01 -1.361516537E-03 5.944426761E-01
 8.990946412E-01 -5.411917227E-04 5.909995808E-01
 9.092016220E-01 -5.369272458E-06 5.881205403E-01
 9.196080565E-01 4.453536822E-04 5.864464090E-01
 9.294058084E-01 7.644898724E-04 5.858467519E-01
 9.378909469E-01 9.804633446E-04 5.845421669E-01
 9.494141340E-01 1.151525299E-03 5.847107203E-01
 9.621307254E-01 1.202157116E-03 5.844568112E-01
 9.761983752E-01 1.092178049E-03 5.828313347E-01
 9.885252714E-01 8.481582627E-04 5.756645416E-01
 -5.000000000E-01 -1.000000000E+00 7.236201801E-01
 3.500000000E+00 -1.000000000E+00 7.283121615E-01
 3.500000000E+00 1.000000000E+00 7.091397298E-01
 -5.000000000E-01 1.000000000E+00 7.239369494E-01
 9.936086833E-01 1.762394037E-03 6.185068307E-01
 9.809504747E-01 4.301044974E-03 6.537908877E-01
 9.661121666E-01 7.277237484E-03 6.820863490E-01
 9.501534402E-01 1.047387626E-02 7.042514807E-01
 9.353181422E-01 1.343912538E-02 7.232824940E-01
 9.221195877E-01 1.605693810E-02 7.384055117E-01
 9.102899730E-01 1.838006265E-02 7.486557695E-01
 8.986070752E-01 2.069089655E-02 7.669157171E-01
 8.868143559E-01 2.298296615E-02 7.830906772E-01
 8.745248616E-01 2.527785860E-02 7.903540382E-01
 8.620959520E-01 2.756798826E-02 8.025421124E-01
 8.497451246E-01 2.980724443E-02 8.176052418E-01
 8.380454481E-01 3.185184672E-02 8.249415253E-01
 8.266687393E-01 3.378045931E-02 8.314068037E-01
 8.145298362E-01 3.579675592E-02 8.381861995E-01
 8.019147813E-01 3.785271570E-02 8.460001458E-01
 7.894636989E-01 3.985012323E-02 8.576266429E-01
 7.772690654E-01 4.175194353E-02 8.615786702E-01
 7.656173110E-01 4.354573973E-02 8.738165431E-01
 7.536501884E-01 4.535193928E-02 8.845633666E-01
 7.406171560E-01 4.724603519E-02 8.903690491E-01
 7.287652493E-01 4.893367365E-02 9.014128853E-01
 7.180856764E-01 5.041505769E-02 9.100783751E-01
 7.068330050E-01 5.192585103E-02 9.171064323E-01
 6.944881976E-01 5.353357457E-02 9.249796350E-01
 6.815872192E-01 5.516302586E-02 9.372988183E-01
 6.701489091E-01 5.655615777E-02 9.477223748E-01
 6.592620015E-01 5.782403611E-02 9.549636082E-01
 6.476159692E-01 5.912197009E-02 9.607233872E-01
 6.359077096E-01 6.036859937E-02 9.686968262E-01
 6.242757440E-01 6.154494174E-02 9.604382492E-01
 6.132233441E-01 6.260876916E-02 9.366071596E-01
 6.018890440E-01 6.364865974E-02 9.979495932E-01
 5.900921822E-01 6.466411054E-02 1.123438907E+00
 5.776274204E-01 6.563759968E-02 1.114650345E+00
 5.647037923E-01 6.657367572E-02 1.109940436E+00
 5.523851514E-01 6.738793105E-02 1.104189048E+00
 5.407813787E-01 6.807336956E-02 1.099902721E+00
 5.295495391E-01 6.867615879E-02 1.098322288E+00
 5.176386535E-01 6.924138218E-02 1.088608814E+00
 5.059033334E-01 6.971685588E-02 1.081293862E+00
 4.938545078E-01 7.013471052E-02 1.079335628E+00
 4.807132334E-01 7.052030787E-02 1.073713435E+00
 4.670858681E-01 7.082001865E-02 1.061298522E+00
 4.534718096E-01 7.102124020E-02 1.054549871E+00
 4.404852241E-01 7.114253566E-02 1.052919347E+00
 4.277964085E-01 7.118482888E-02 1.041281457E+00
 4.151317328E-01 7.114136964E-02 1.029334579E+00
 4.025239646E-01 7.102254406E-02 1.023557747E+00
 3.900974840E-01 7.084446400E-02 1.024171404E+00
 3.781911433E-01 7.061026990E-02 1.018298932E+00
 3.657946736E-01 7.029128075E-02 1.011241768E+00
 3.528083414E-01 6.988494471E-02 1.003591318E+00
 3.397770375E-01 6.939760596E-02 9.978358595E-01
 3.276316375E-01 6.888473779E-02 9.986153569E-01
 3.157726079E-01 6.830419227E-02 9.870850201E-01
 3.029389679E-01 6.759908050E-02 9.798652362E-01
 2.894738615E-01 6.678311899E-02 9.750806375E-01
 2.764374763E-01 6.591304392E-02 9.714653039E-01
 2.644114643E-01 6.502845511E-02 9.649464692E-01
 2.522876412E-01 6.405751407E-02 9.584163341E-01
 2.399286553E-01 6.298879161E-02 9.522869180E-01
 2.276210785E-01 6.183890440E-02 9.442370123E-01
 2.155954465E-01 6.063610129E-02 9.400919540E-01
 2.037826851E-01 5.936942622E-02 9.332590749E-01
 1.916746795E-01 5.797434226E-02 9.252511424E-01
 1.795231402E-01 5.648280494E-02 9.195885835E-01
 1.678579077E-01 5.494881794E-02 9.116290543E-01
 1.562018394E-01 5.331163481E-02 9.035519659E-01
 1.449202746E-01 5.162670277E-02 8.960676562E-01
 1.337298900E-01 4.984063283E-02 8.862529664E-01
 1.222633235E-01 4.789509624E-02 8.775720089E-01
 1.113539375E-01 4.592038505E-02 8.688522294E-01
 9.083209932E-02 4.181689769E-02 8.482039779E-01
 7.963807136E-02 3.932624310E-02 8.332359448E-01
 6.893946603E-02 3.675889038E-02 8.196861120E-01
 5.910325795E-02 3.419219144E-02 8.059121989E-01
 7.186187804E-02 -3.344985098E-02 8.437565129E-01
 8.192760870E-02 -3.552698717E-02 8.511571819E-01
 9.209122509E-02 -3.746967390E-02 8.581003622E-01
 1.028603837E-01 -3.938727267E-02 8.647693865E-01
 1.141052209E-01 -4.125539213E-02 8.719881757E-01
 1.256321035E-01 -4.304364324E-02 8.776048189E-01
 1.367713735E-01 -4.467030801E-02 8.857975786E-01
 1.475925893E-01 -4.615265131E-02 8.913678067E-01
 1.591250077E-01 -4.764048941E-02 8.975435323E-01
 1.708424911E-01 -4.906401038E-02 9.061688595E-01
 1.824209392E-01 -5.037821084E-02 9.128042684E-01
 1.935892552E-01 -5.156720988E-02 9.198669466E-01
 2.044764161E-01 -5.265280418E-02 9.271172958E-01
 2.160942182E-01 -5.373033322E-02 9.344713160E-01
 2.283540815E-01 -5.477975309E-02 9.420966324E-01
 2.405654564E-01 -5.573904328E-02 9.516912098E-01
 2.526011467E-01 -5.659338832E-02 9.607450640E-01
 2.641413957E-01 -5.733012408E-02 9.701994357E-01
 2.758797407E-01 -5.798530951E-02 9.787310643E-01
 2.881799340E-01 -5.857542343E-02 9.859609469E-01
 3.006955981E-01 -5.907541141E-02 9.942064100E-01
 3.130560368E-01 -5.946722627E-02 1.006782697E+00
 3.252225518E-01 -5.973971449E-02 1.014830522E+00
 3.369202167E-01 -5.990117788E-02 1.023521559E+00
 3.481510729E-01 -5.995350704E-02 1.029588671E+00
 3.593124151E-01 -5.990426615E-02 1.037606752E+00
 3.700975478E-01 -5.975112505E-02 1.029666302E+00
 3.813867271E-01 -5.949367024E-02 1.016477278E+00
 3.939597011E-01 -5.908351019E-02 1.005777616E+00
 4.069029540E-01 -5.852719396E-02 9.960928687E-01
 4.195681959E-01 -5.784311704E-02 9.822164411E-01
 4.322288334E-01 -5.702861585E-02 9.663789622E-01
 4.445835054E-01 -5.611206405E-02 9.508669764E-01
 4.567181021E-01 -5.509688705E-02 9.359477137E-01
 4.689181447E-01 -5.395792052E-02 9.164857279E-01
 4.811017662E-01 -5.274068564E-02 9.004910459E-01
 4.934403002E-01 -5.141556263E-02 8.897178931E-01
 5.066663325E-01 -4.987551458E-02 8.661675127E-01
 5.203478038E-01 -4.822061583E-02 8.498903349E-01
 5.337476730E-01 -4.654188082E-02 8.393181385E-01
 5.466725826E-01 -4.483573698E-02 8.224185375E-01
 5.598264933E-01 -4.305667058E-02 8.058884777E-01
 5.732302964E-01 -4.123111628E-02 7.970313494E-01
 5.859982371E-01 -3.944027796E-02 7.848946869E-01
 5.986449718E-01 -3.763248585E-02 7.712593945E-01
 6.122802794E-01 -3.568462096E-02 7.611066343E-01
 6.265610456E-01 -3.362471238E-02 7.497598783E-01
 6.410288513E-01 -3.152482212E-02 7.374459168E-01
 6.549161971E-01 -2.951900102E-02 7.277243444E-01
 6.681630313E-01 -2.761744242E-02 7.192608504E-01
 6.810752451E-01 -2.577432990E-02 7.111091846E-01
 6.933628023E-01 -2.402069047E-02 7.020986186E-01
 7.068861723E-01 -2.212118544E-02 6.937727489E-01
 7.209301293E-01 -2.018266823E-02 6.865933249E-01
 7.335704863E-01 -1.845291071E-02 6.790330446E-01
 7.462803423E-01 -1.673536468E-02 6.717646322E-01
 7.590368688E-01 -1.502099400E-02 6.618523011E-01
 7.719906867E-01 -1.334201079E-02 6.543442634E-01
 7.849313319E-01 -1.172861457E-02 6.492268841E-01
 7.974591851E-01 -1.019558962E-02 6.417350426E-01
 8.094841242E-01 -8.773505222E-03 6.353331090E-01
 8.205358088E-01 -7.498611929E-03 6.284044316E-01
 8.324111104E-01 -6.179915974E-03 6.191808750E-01
 8.451620936E-01 -4.882494221E-03 6.137405322E-01
 8.576341867E-01 -3.708935226E-03 6.088391436E-01
 8.693125844E-01 -2.682731603E-03 6.025682213E-01
 8.805488050E-01 -1.787020010E-03 5.969495362E-01
 8.926374912E-01 -9.513541299E-04 5.930199281E-01
 9.041481316E-01 -2.732804976E-04 5.890284025E-01
 9.144048393E-01 2.199922048E-04 5.871726428E-01
 9.436525404E-01 1.065994322E-03 5.844181979E-01
 9.557724297E-01 1.176841208E-03 5.847080215E-01
 9.691645503E-01 1.147167583E-03 5.840079711E-01
 9.823618233E-01 9.701681556E-04 5.789966782E-01
 9.941927791E-01 6.794017390E-04 5.716250887E-01
 -5.000000000E-01 9.500000000E-01 7.214864557E-01
 -5.000000000E-01 9.000000000E-01 7.176957887E-01
 -5.000000000E-01 8.500000000E-01 7.147629407E-01
 -5.000000000E-01 8.000000000E-01 7.122114169E-01
 -5.000000000E-01 7.500000000E-01 7.097506110E-01
 -5.000000000E-01 7.000000000E-01 7.073373037E-01
 -5.000000000E-01 6.500000000E-01 7.048860206E-01
 -5.000000000E-01 6.000000000E-01 7.024021133E-01
 -5.000000000E-01 5.500000000E-01 6.998403772E-01
 -5.000000000E-01 5.000000000E-01 6.972542030E-01
 -5.000000000E-01 4.500000000E-01 6.946264196E-01
 -5.000000000E-01 4.000000000E-01 6.919649417E-01
 -5.000000000E-01 3.500000000E-01 6.894021444E-01
 -5.000000000E-01 3.000000000E-01 6.869461514E-01
 -5.000000000E-01 2.500000000E-01 6.846533692E-01
 -5.000000000E-01 2.000000000E-01 6.826384132E-01
 -5.000000000E-01 1.500000000E-01 6.809532503E-01
 -5.000000000E-01 1.000000000E-01 6.797027450E-01
 -5.000000000E-01 5.000000000E-02 6.789050186E-01
 -5.000000000E-01 2.752242878E-12 6.786226571E-01
 -5.000000000E-01 -5.000000000E-02 6.788542673E-01
 -5.000000000E-01 -1.000000000E-01 6.796036523E-01
 -5.000000000E-01 -1.500000000E-01 6.808257705E-01
 -5.000000000E-01 -2.000000000E-01 6.824308096E-01
 -5.000000000E-01 -2.500000000E-01 6.843639715E-01
 -5.000000000E-01 -3.000000000E-01 6.865541514E-01
 -5.000000000E-01 -3.500000000E-01 6.889444934E-01
 -5.000000000E-01 -4.000000000E-01 6.914314114E-01
 -5.000000000E-01 -4.500000000E-01 6.939425255E-01
 -5.000000000E-01 -5.000000000E-01 6.964866772E-01
 -5.000000000E-01 -5.500000000E-01 6.990482556E-01
 -5.000000000E-01 -6.000000000E-01 7.015348447E-01
 -5.000000000E-01 -6.500000000E-01 7.039908587E-01
 -5.000000000E-01 -7.000000000E-01 7.064123291E-01
 -5.000000000E-01 -7.500000000E-01 7.088425518E-01
 -5.000000000E-01 -8.000000000E-01 7.113292472E-01
 -5.000000000E-01 -8.500000000E-01 7.139898997E-01
 -5.000000000E-01 -9.000000000E-01 7.170331077E-01
 -5.000000000E-01 -9.500000000E-01 7.210468466E-01
 -4.500000000E-01 -1.000000000E+00 7.208714544E-01
 -4.000000000E-01 -1.000000000E+00 7.169487431E-01
 -3.500000000E-01 -1.000000000E+00 7.144478917E-01
 -3.000000000E-01 -1.000000000E+00 7.127631263E-01
 -2.500000000E-01 -1.000000000E+00 7.117273091E-01
 -2.000000000E-01 -1.000000000E+00 7.113897921E-01
 -1.500000000E-01 -1.000000000E+00 7.116288216E-01
 -1.000000000E-01 -1.000000000E+00 7.125282374E-01
 -5.000000000E-02 -1.000000000E+00 7.140274297E-01
 -9.424683256E-13 -1.000000000E+00 7.160685473E-01
 5.000000000E-02 -1.000000000E+00 7.186647819E-01
 1.000000000E-01 -1.000000000E+00 7.217209311E-01
 1.500000000E-01 -1.000000000E+00 7.251675693E-01
 2.000000000E-01 -1.000000000E+00 7.287426903E-01
 2.500000000E-01 -1.000000000E+00 7.322343724E-01
 3.000000000E-01 -1.000000000E+00 7.355130412E-01
 3.500000000E-01 -1.000000000E+00 7.383242142E-01
 4.000000000E-01 -1.000000000E+00 7.405646979E-01
 4.500000000E-01 -1.000000000E+00 7.421300171E-01
 5.000000000E-01 -1.000000000E+00 7.427640732E-01
 5.500000000E-01 -1.000000000E+00 7.427331129E-01
 6.000000000E-01 -1.000000000E+00 7.420310701E-01
 6.500000000E-01 -1.000000000E+00 7.407921761E-01
 7.000000000E-01 -1.000000000E+00 7.390178969E-01
 7.500000000E-01 -1.000000000E+00 7.368176473E-01
 8.000000000E-01 -1.000000000E+00 7.342973090E-01
 8.500000000E-01 -1.000000000E+00 7.315788180E-01
 9.000000000E-01 -1.000000000E+00 7.289440234E-01
 9.500000000E-01 -1.000000000E+00 7.263626454E-01
 1.000000000E+00 -1.000000000E+00 7.238463626E-01
 1.050000000E+00 -1.000000000E+00 7.216056325E-01
 1.100000000E+00 -1.000000000E+00 7.195876970E-01
 1.150000000E+00 -1.000000000E+00 7.178037478E-01
 1.200000000E+00 -1.000000000E+00 7.164002082E-01
 1.250000000E+00 -1.000000000E+00 7.151859291E-01
 1.300000000E+00 -1.000000000E+00 7.142983248E-01
 1.350000000E+00 -1.000000000E+00 7.136240475E-01
 1.400000000E+00 -1.000000000E+00 7.132362041E-01
 1.450000000E+00 -1.000000000E+00 7.129596898E-01
 1.500000000E+00 -1.000000000E+00 7.129104344E-01
 1.550000000E+00 -1.000000000E+00 7.129853678E-01
 1.600000000E+00 -1.000000000E+00 7.131391624E-01
 1.650000000E+00 -1.000000000E+00 7.134304610E-01
 1.700000000E+00 -1.000000000E+00 7.137727724E-01
 1.750000000E+00 -1.000000000E+00 7.141614307E-01
 1.800000000E+00 -1.000000000E+00 7.145938182E-01
 1.850000000E+00 -1.000000000E+00 7.150436825E-01
 1.900000000E+00 -1.000000000E+00 7.155001560E-01
 1.950000000E+00 -1.000000000E+00 7.159870340E-01
 2.000000000E+00 -1.000000000E+00 7.164299694E-01
 2.050000000E+00 -1.000000000E+00 7.168983655E-01
 2.100000000E+00 -1.000000000E+00 7.173961203E-01
 2.150000000E+00 -1.000000000E+00 7.178760664E-01
 2.200000000E+00 -1.000000000E+00 7.183651305E-01
 2.250000000E+00 -1.000000000E+00 7.188119205E-01
 2.300000000E+00 -1.000000000E+00 7.192318900E-01
 2.350000000E+00 -1.000000000E+00 7.196234370E-01
 2.400000000E+00 -1.000000000E+00 7.200163855E-01
 2.450000000E+00 -1.000000000E+00 7.202982884E-01
 2.500000000E+00 -1.000000000E+00 7.206343721E-01
 2.550000000E+00 -1.000000000E+00 7.209655013E-01
 2.600000000E+00 -1.000000000E+00 7.213064604E-01
 2.650000000E+00 -1.000000000E+00 7.215855302E-01
 2.700000000E+00 -1.000000000E+00 7.218421524E-01
 2.750000000E+00 -1.000000000E+00 7.220827026E-01
 2.800000000E+00 -1.000000000E+00 7.222833491E-01
 2.850000000E+00 -1.000000000E+00 7.224710058E-01
 2.900000000E+00 -1.000000000E+00 7.226205368E-01
 2.950000000E+00 -1.000000000E+00 7.227786678E-01
 3.000000000E+00 -1.000000000E+00 7.229594337E-01
 3.050000000E+00 -1.000000000E+00 7.230933105E-01
 3.100000000E+00 -1.000000000E+00 7.232263321E-01
 3.150000000E+00 -1.000000000E+00 7.233923255E-01
 3.200000000E+00 -1.000000000E+00 7.235751186E-01
 3.250000000E+00 -1.000000000E+00 7.237187462E-01
 3.300000000E+00 -1.000000000E+00 7.239458384E-01
 3.350000000E+00 -1.000000000E+00 7.243451463E-01
 3.400000000E+00 -1.000000000E+00 7.248372498E-01
 3.450000000E+00 -1.000000000E+00 7.260295216E-01
 3.500000000E+00 -9.500000000E-01 7.296962114E-01
 3.500000000E+00 -9.000000000E-01 7.304525287E-01
 3.500000000E+00 -8.500000000E-01 7.310096651E-01
 3.500000000E+00 -8.000000000E-01 7.314115198E-01
 3.500000000E+00 -7.500000000E-01 7.317148412E-01
 3.500000000E+00 -7.000000000E-01 7.319892775E-01
 3.500000000E+00 -6.500000000E-01 7.322903734E-01
 3.500000000E+00 -6.000000000E-01 7.326110558E-01
 3.500000000E+00 -5.500000000E-01 7.329538417E-01
 3.500000000E+00 -5.000000000E-01 7.333047682E-01
 3.500000000E+00 -4.500000000E-01 7.336575766E-01
 3.500000000E+00 -4.000000000E-01 7.340173431E-01
 3.500000000E+00 -3.500000000E-01 7.343721358E-01
 3.500000000E+00 -3.000000000E-01 7.347320274E-01
 3.500000000E+00 -2.500000000E-01 7.350618239E-01
 3.500000000E+00 -2.000000000E-01 7.353107219E-01
 3.500000000E+00 -1.500000000E-01 7.354270802E-01
 3.500000000E+00 -1.000000000E-01 7.354287215E-01
 3.500000000E+00 -5.000000000E-02 7.354096009E-01
 3.500000000E+00 -2.752242878E-12 7.354022071E-01
 3.500000000E+00 5.000000000E-02 7.353759151E-01
 3.500000000E+00 1.000000000E-01 7.352422769E-01
 3.500000000E+00 1.500000000E-01 7.350024257E-01
 3.500000000E+00 2.000000000E-01 7.346709773E-01
 3.500000000E+00 2.500000000E-01 7.343028698E-01
 3.500000000E+00 3.000000000E-01 7.339263129E-01
 3.500000000E+00 3.500000000E-01 7.335657499E-01
 3.500000000E+00 4.000000000E-01 7.332218304E-01
 3.500000000E+00 4.500000000E-01 7.328424108E-01
 3.500000000E+00 5.000000000E-01 7.323780443E-01
 3.500000000E+00 5.500000000E-01 7.319333929E-01
 3.500000000E+00 6.000000000E-01 7.317443721E-01
 3.500000000E+00 6.500000000E-01 7.319359510E-01
 3.500000000E+00 7.000000000E-01 7.323660233E-01
 3.500000000E+00 7.500000000E-01 7.323459034E-01
 3.500000000E+00 8.000000000E-01 7.311483438E-01
 3.500000000E+00 8.500000000E-01 7.282543482E-01
 3.500000000E+00 9.000000000E-01 7.236125884E-01
 3.500000000E+00 9.500000000E-01 7.175580684E-01
 3.450000000E+00 1.000000000E+00 6.966784794E-01
 3.400000000E+00 1.000000000E+00 6.912731522E-01
 3.350000000E+00 1.000000000E+00 6.903670067E-01
 3.300000000E+00 1.000000000E+00 6.901051871E-01
 3.250000000E+00 1.000000000E+00 6.899583542E-01
 3.200000000E+00 1.000000000E+00 6.902757884E-01
 3.150000000E+00 1.000000000E+00 6.907701343E-01
 3.100000000E+00 1.000000000E+00 6.911401139E-01
 3.050000000E+00 1.000000000E+00 6.916219780E-01
 3.000000000E+00 1.000000000E+00 6.916854656E-01
 2.950000000E+00 1.000000000E+00 6.915563873E-01
 2.900000000E+00 1.000000000E+00 6.920772616E-01
 2.850000000E+00 1.000000000E+00 6.922365894E-01
 2.800000000E+00 1.000000000E+00 6.927618469E-01
 2.750000000E+00 1.000000000E+00 6.935753751E-01
 2.700000000E+00 1.000000000E+00 6.939105195E-01
 2.650000000E+00 1.000000000E+00 6.945376567E-01
 2.600000000E+00 1.000000000E+00 6.953132284E-01
 2.550000000E+00 1.000000000E+00 6.959785968E-01
 2.500000000E+00 1.000000000E+00 6.964706520E-01
 2.450000000E+00 1.000000000E+00 6.967137938E-01
 2.400000000E+00 1.000000000E+00 6.970433545E-01
 2.350000000E+00 1.000000000E+00 6.975460320E-01
 2.300000000E+00 1.000000000E+00 6.979632426E-01
 2.250000000E+00 1.000000000E+00 6.982634796E-01
 2.200000000E+00 1.000000000E+00 6.988366129E-01
 2.150000000E+00 1.000000000E+00 6.991734707E-01
 2.100000000E+00 1.000000000E+00 6.997763030E-01
 2.050000000E+00 1.000000000E+00 7.001882793E-01
 2.000000000E+00 1.000000000E+00 7.007928528E-01
 1.950000000E+00 1.000000000E+00 7.013791068E-01
 1.900000000E+00 1.000000000E+00 7.020752302E-01
 1.850000000E+00 1.000000000E+00 7.028728459E-01
 1.800000000E+00 1.000000000E+00 7.041557501E-01
 1.750000000E+00 1.000000000E+00 7.060130169E-01
 1.700000000E+00 1.000000000E+00 7.079067006E-01
 1.650000000E+00 1.000000000E+00 7.092029767E-01
 1.600000000E+00 1.000000000E+00 7.103224931E-01
 1.550000000E+00 1.000000000E+00 7.120395683E-01
 1.500000000E+00 1.000000000E+00 7.131669650E-01
 1.450000000E+00 1.000000000E+00 7.148302744E-01
 1.400000000E+00 1.000000000E+00 7.168126364E-01
 1.350000000E+00 1.000000000E+00 7.189996464E-01
 1.300000000E+00 1.000000000E+00 7.219105179E-01
 1.250000000E+00 1.000000000E+00 7.243053859E-01
 1.200000000E+00 1.000000000E+00 7.270918257E-01
 1.150000000E+00 1.000000000E+00 7.296916346E-01
 1.100000000E+00 1.000000000E+00 7.338430025E-01
 1.050000000E+00 1.000000000E+00 7.401275655E-01
 1.000000000E+00 1.000000000E+00 7.446711118E-01
 9.500000000E-01 1.000000000E+00 7.492904754E-01
 9.000000000E-01 1.000000000E+00 7.539537023E-01
 8.500000000E-01 1.000000000E+00 7.574910034E-01
 8.000000000E-01 1.000000000E+00 7.608406100E-01
 7.500000000E-01 1.000000000E+00 7.650179892E-01
 7.000000000E-01 1.000000000E+00 7.677158184E-01
 6.500000000E-01 1.000000000E+00 7.690343391E-01
 6.000000000E-01 1.000000000E+00 7.703981868E-01
 5.500000000E-01 1.000000000E+00 7.696518896E-01
 5.000000000E-01 1.000000000E+00 7.679545557E-01
 4.500000000E-01 1.000000000E+00 7.651820234E-01
 4.000000000E-01 1.000000000E+00 7.613139697E-01
 3.500000000E-01 1.000000000E+00 7.567231332E-01
 3.000000000E-01 1.000000000E+00 7.512701331E-01
 2.500000000E-01 1.000000000E+00 7.455942434E-01
 2.000000000E-01 1.000000000E+00 7.398523652E-01
 1.500000000E-01 1.000000000E+00 7.343560802E-01
 1.000000000E-01 1.000000000E+00 7.292231200E-01
 5.000000000E-02 1.000000000E+00 7.245721136E-01
 1.733724275E-12 1.000000000E+00 7.208286546E-01
 -5.000000000E-02 1.000000000E+00 7.177692261E-01
 -1.000000000E-01 1.000000000E+00 7.155435337E-01
 -1.500000000E-01 1.000000000E+00 7.140221819E-01
 -2.000000000E-01 1.000000000E+00 7.133453315E-01
 -2.500000000E-01 1.000000000E+00 7.133676958E-01
 -3.000000000E-01 1.000000000E+00 7.140614288E-01
 -3.500000000E-01 1.000000000E+00 7.154792240E-01
 -4.000000000E-01 1.000000000E+00 7.177367058E-01
 -4.500000000E-01 1.000000000E+00 7.213238491E-01
 1.975227527E+00 -9.624051147E-01 7.178266504E-01
 1.975000000E+00 9.566987298E-01 7.122522177E-01
 9.069068947E-01 -4.515775949E-03 5.915799258E-01
 8.299721654E-01 -1.133872370E-02 6.233966394E-01
 9.848016218E-01 -5.009708651E-03 5.848119417E-01
 7.568933033E-01 -2.110877888E-02 6.659459896E-01
 6.838136297E-01 -3.012949141E-02 7.101875289E-01
 6.168075745E-01 -4.138443620E-02 7.584580959E-01
 5.430422060E-01 -5.043222552E-02 8.273389418E-01
 4.838897929E-01 -5.749003774E-02 8.967302805E-01
 4.293003425E-01 -6.355686371E-02 9.651114016E-01
 3.732253634E-01 -6.462862121E-02 1.021202896E+00
 3.218613157E-01 -6.498018330E-02 1.008015505E+00
 2.604054430E-01 -6.145972429E-02 9.638621222E-01
 2.067923470E-01 -5.773984008E-02 9.256393244E-01
 1.497284923E-01 -5.132664361E-02 8.893441605E-01
 1.048379992E-01 -4.441357138E-02 8.623022161E-01