TITLE     = "Visualization of the solution"
VARIABLES = "x"
"y"
"Mach"
ZONE T="Zone"
 STRANDID=0, SOLUTIONTIME=0
 Nodes=12150, Elements=23724, ZONETYPE=FEQuadrilateral
 DATAPACKING=POINT
 DT=(DOUBLE DOUBLE DOUBLE )
 1.000103593E+00 5.284154904E-04 5.539400810E-01
 9.851913452E-01 3.044982208E-03 6.646548324E-01
 9.731826186E-01 5.074397661E-03 6.891684197E-01
 9.607178569E-01 7.214894984E-03 7.152676683E-01
 9.479622841E-01 9.284326807E-03 7.262512840E-01
 9.373705387E-01 1.103977300E-02 7.449355647E-01
 9.272679687E-01 1.267122570E-02 7.596180755E-01
 9.148820043E-01 1.460223086E-02 7.756456338E-01
 9.033733606E-01 1.629515924E-02 7.848147343E-01
 8.906191587E-01 1.810388640E-02 7.963733460E-01
 8.779388070E-01 1.980753615E-02 8.051649381E-01
 8.659068942E-01 2.131910995E-02 8.062293933E-01
 8.535239697E-01 2.286777645E-02 8.173484616E-01
 8.410323858E-01 2.429478802E-02 8.132835705E-01
 8.289826512E-01 2.567628957E-02 8.179521008E-01
 8.157527447E-01 2.715433389E-02 8.216391556E-01
 8.027383089E-01 2.858673967E-02 8.270317737E-01
 7.914065719E-01 2.979002334E-02 8.280015094E-01
 7.791277170E-01 3.111621737E-02 8.377731518E-01
 7.666617632E-01 3.238037229E-02 8.364878571E-01
 7.542015910E-01 3.367078677E-02 8.454868251E-01
 7.405689955E-01 3.503429890E-02 8.513404675E-01
 7.294960022E-01 3.610440716E-02 8.531776485E-01
 7.180714011E-01 3.722076863E-02 8.633421836E-01
 7.060989141E-01 3.834636882E-02 8.698585209E-01
 6.921978593E-01 3.958844393E-02 8.726087953E-01
 6.785598397E-01 4.078919441E-02 8.813709946E-01
 6.676408648E-01 4.172556847E-02 8.902203922E-01
 6.555151939E-01 4.270735011E-02 8.949669812E-01
 6.448122263E-01 4.354355484E-02 9.006967672E-01
 6.324546337E-01 4.446585476E-02 9.068715205E-01
 6.211352944E-01 4.526626691E-02 9.123922411E-01
 6.099023819E-01 4.603127390E-02 9.207594079E-01
 5.970072746E-01 4.684105143E-02 9.266167120E-01
 5.843917727E-01 4.756948352E-02 9.303118848E-01
 5.705136061E-01 4.830922931E-02 9.379970070E-01
 5.570592880E-01 4.896456748E-02 9.468759681E-01
 5.434556603E-01 4.952104017E-02 9.476984380E-01
 5.317432284E-01 4.994456843E-02 9.503071416E-01
 5.192558169E-01 5.034158379E-02 9.537993878E-01
 5.057792664E-01 5.068543181E-02 9.563631371E-01
 4.949925840E-01 5.090753734E-02 9.565955067E-01
 4.815841317E-01 5.110390484E-02 9.548203182E-01
 4.688951969E-01 5.122334510E-02 9.518593386E-01
 4.542441666E-01 5.127958208E-02 9.499350476E-01
 4.396378696E-01 5.126085132E-02 9.498131271E-01
 4.260381162E-01 5.114964023E-02 9.443496696E-01
 4.122959077E-01 5.096770450E-02 9.399270707E-01
 3.997434974E-01 5.073723942E-02 9.344131131E-01
 3.865634203E-01 5.044648424E-02 9.326324725E-01
 3.746769130E-01 5.012634024E-02 9.303278670E-01
 3.636871874E-01 4.977966473E-02 9.244039318E-01
 3.503276408E-01 4.929187521E-02 9.177046489E-01
 3.385141194E-01 4.883307219E-02 9.177562856E-01
 3.267344236E-01 4.830690846E-02 9.105942677E-01
 3.166921437E-01 4.782185331E-02 9.070237853E-01
 3.052728176E-01 4.723752663E-02 9.030478851E-01
 2.930448353E-01 4.656531662E-02 8.989112776E-01
 2.795941830E-01 4.576772451E-02 8.945018383E-01
 2.670018375E-01 4.496378824E-02 8.894437508E-01
 2.550022602E-01 4.415484890E-02 8.856846863E-01
 2.426336557E-01 4.327071086E-02 8.813288199E-01
 2.296274751E-01 4.228512943E-02 8.771371368E-01
 2.179059237E-01 4.135214537E-02 8.741071136E-01
 2.063867599E-01 4.037908465E-02 8.692985601E-01
 1.952646226E-01 3.940074146E-02 8.655922616E-01
 1.827179343E-01 3.824206442E-02 8.619743055E-01
 1.710272282E-01 3.711166605E-02 8.588140270E-01
 1.592805684E-01 3.591312468E-02 8.539516579E-01
 1.474575400E-01 3.466172516E-02 8.526585610E-01
 1.364884377E-01 3.342983127E-02 8.487689875E-01
 1.255818456E-01 3.215050325E-02 8.459535891E-01
 1.142294705E-01 3.074523620E-02 8.424348660E-01
 1.036470085E-01 2.936926670E-02 8.399721845E-01
 9.398058057E-02 2.804881893E-02 8.386560597E-01
 8.306847513E-02 2.646301873E-02 8.362299200E-01
 7.171510160E-02 2.469208091E-02 8.334870711E-01
 6.219542027E-02 2.309600823E-02 8.323170605E-01
 5.319023132E-02 2.146703005E-02 8.317483281E-01
 4.447538033E-02 1.975184120E-02 8.308604838E-01
 3.663625941E-02 1.805023290E-02 8.300592995E-01
 3.007642180E-02 1.647439227E-02 8.286480042E-01
 2.443023957E-02 1.496926323E-02 8.267710797E-01
 2.025947906E-02 1.373782381E-02 8.228982243E-01
 1.643695869E-02 1.248416211E-02 8.200617448E-01
 1.386309881E-02 1.155374944E-02 8.153239063E-01
 1.165658794E-02 1.068226155E-02 8.095995899E-01
 1.003706828E-02 9.991261177E-03 8.039362989E-01
 8.428568952E-03 9.240871295E-03 7.943323584E-01
 6.895039231E-03 8.462221362E-03 7.759975303E-01
 4.895092919E-03 7.313078269E-03 7.523694583E-01
 3.193122102E-03 6.160671357E-03 7.169943216E-01
 1.675384585E-03 4.914698191E-03 6.464642608E-01
 1.714595564E-04 3.297263756E-03 5.620403242E-01
 -7.120982045E-04 1.946441946E-03 4.703060518E-01
 -1.207440742E-03 8.432350005E-04 3.625193039E-01
 -1.573685789E-03 -6.498504081E-04 2.278836233E-01
 -1.576591283E-03 -2.666442655E-03 7.302072603E-02
 -1.011513988E-03 -4.850288853E-03 8.335817813E-02
 2.723687212E-04 -7.351610344E-03 2.256847103E-01
 2.248331672E-03 -9.936450049E-03 3.376315530E-01
 4.157179501E-03 -1.190507878E-02 4.138590088E-01
 6.474801339E-03 -1.392346993E-02 4.691668995E-01
 8.102991618E-03 -1.518558338E-02 5.098848277E-01
 1.009673160E-02 -1.659603603E-02 5.410071131E-01
 1.251415722E-02 -1.817176305E-02 5.759924405E-01
 1.568205282E-02 -2.004251257E-02 6.109883926E-01
 1.906542853E-02 -2.185585164E-02 6.436042280E-01
 2.327997610E-02 -2.392062917E-02 6.756026901E-01
 2.885452472E-02 -2.638119087E-02 7.069448881E-01
 3.445998579E-02 -2.862210013E-02 7.329156449E-01
 4.180375114E-02 -3.126807138E-02 7.558319287E-01
 4.930462688E-02 -3.372864425E-02 7.766574735E-01
 5.797718465E-02 -3.631142154E-02 7.954477984E-01
 6.671829522E-02 -3.868388385E-02 8.118346826E-01
 7.731422037E-02 -4.133142158E-02 8.293117327E-01
 8.713950217E-02 -4.358159006E-02 8.395155479E-01
 9.817180037E-02 -4.591609910E-02 8.533663674E-01
 1.091610566E-01 -4.808472469E-02 8.662809906E-01
 1.215037033E-01 -5.032597855E-02 8.757927009E-01
 1.326041818E-01 -5.220569670E-02 8.859840850E-01
 1.430366933E-01 -5.386824533E-02 8.954840117E-01
 1.540680528E-01 -5.551869050E-02 9.044769243E-01
 1.654588878E-01 -5.711697415E-02 9.139185101E-01
 1.765308976E-01 -5.857127532E-02 9.238302314E-01
 1.880496144E-01 -5.998190492E-02 9.321229314E-01
 1.980374902E-01 -6.112721562E-02 9.379428903E-01
 2.088373601E-01 -6.229334697E-02 9.501168010E-01
 2.208041251E-01 -6.348372996E-02 9.584696497E-01
 2.324169725E-01 -6.454560161E-02 9.672166515E-01
 2.441713959E-01 -6.554136425E-02 9.812058532E-01
 2.564472854E-01 -6.646254659E-02 9.914334642E-01
 2.678707540E-01 -6.722725183E-02 1.000010663E+00
 2.805643678E-01 -6.798237562E-02 1.013262436E+00
 2.930688262E-01 -6.859886646E-02 1.025448115E+00
 3.055723906E-01 -6.911182404E-02 1.040217595E+00
 3.169988394E-01 -6.945858151E-02 1.050430121E+00
 3.289436996E-01 -6.973951310E-02 1.070333812E+00
 3.388034701E-01 -6.984708458E-02 1.079563487E+00
 3.499750495E-01 -6.989265978E-02 1.084657823E+00
 3.613831997E-01 -6.985564530E-02 1.096897245E+00
 3.721139431E-01 -6.969729066E-02 1.112159865E+00
 3.837600648E-01 -6.940750778E-02 1.120654760E+00
 3.954952061E-01 -6.900272518E-02 1.129971613E+00
 4.075281024E-01 -6.845270842E-02 1.141621563E+00
 4.211376607E-01 -6.768678874E-02 1.167303749E+00
 4.337306619E-01 -6.682036072E-02 1.069257226E+00
 4.476704895E-01 -6.571235508E-02 9.186205419E-01
 4.610650837E-01 -6.450641900E-02 9.400668532E-01
 4.737538397E-01 -6.322833151E-02 9.404372651E-01
 4.859765470E-01 -6.190042198E-02 9.237481750E-01
 4.978576005E-01 -6.052904576E-02 9.137408241E-01
 5.109330416E-01 -5.887414888E-02 8.900725453E-01
 5.245684385E-01 -5.708255991E-02 8.712311180E-01
 5.374754071E-01 -5.535857007E-02 8.634303204E-01
 5.522119403E-01 -5.325085297E-02 8.428005387E-01
 5.647765398E-01 -5.142353848E-02 8.314549288E-01
 5.781442523E-01 -4.939870164E-02 8.139833051E-01
 5.912795663E-01 -4.740253091E-02 8.028046532E-01
 6.037709117E-01 -4.547268525E-02 7.913540537E-01
 6.159957647E-01 -4.357413948E-02 7.825983927E-01
 6.297454238E-01 -4.139441252E-02 7.702845458E-01
 6.422956586E-01 -3.938072920E-02 7.579169376E-01
 6.562446952E-01 -3.715442494E-02 7.481428626E-01
 6.700099111E-01 -3.494030610E-02 7.365890068E-01
 6.829087734E-01 -3.289173543E-02 7.294987263E-01
 6.955447793E-01 -3.087843955E-02 7.213390840E-01
 7.104626298E-01 -2.846136130E-02 7.070490292E-01
 7.238785625E-01 -2.635854483E-02 7.009218709E-01
 7.354214191E-01 -2.454536036E-02 6.928983133E-01
 7.473661304E-01 -2.267655171E-02 6.838239344E-01
 7.610740066E-01 -2.057904191E-02 6.763707381E-01
 7.744128704E-01 -1.857616939E-02 6.702727197E-01
 7.863997221E-01 -1.674642973E-02 6.581995511E-01
 7.989690900E-01 -1.489752252E-02 6.502990465E-01
 8.101403117E-01 -1.330095343E-02 6.431769426E-01
 8.211075664E-01 -1.176820137E-02 6.347301565E-01
 8.331452012E-01 -1.019242499E-02 6.320471818E-01
 8.450492024E-01 -8.628862910E-03 6.211945430E-01
 8.568214774E-01 -7.165045943E-03 6.123138416E-01
 8.684105277E-01 -5.841831211E-03 6.066632424E-01
 8.805946708E-01 -4.575747997E-03 6.023348719E-01
 8.931992650E-01 -3.354304470E-03 5.943601467E-01
 9.030238390E-01 -2.506889170E-03 5.904501111E-01
 9.134706855E-01 -1.747434493E-03 5.885609064E-01
 9.231415391E-01 -1.117852866E-03 5.862650002E-01
 9.332035780E-01 -5.881029065E-04 5.851168811E-01
 9.467046857E-01 -3.458402716E-05 5.847787922E-01
 9.616754055E-01 3.640140640E-04 5.849021673E-01
 9.768831730E-01 5.637670984E-04 5.831140036E-01
 9.899523854E-01 5.751930294E-04 5.742233725E-01
 -5.000000000E-01 -1.000000000E+00 7.243195373E-01
 3.500000000E+00 -1.000000000E+00 7.258422050E-01
 3.500000000E+00 1.000000000E+00 7.191839843E-01
 -5.000000000E-01 1.000000000E+00 7.246596420E-01
 9.926474690E-01 1.786698849E-03 6.425508864E-01
 9.791869819E-01 4.059689934E-03 6.782602941E-01
 9.669502378E-01 6.144646322E-03 7.033307760E-01
 9.543400705E-01 8.249610895E-03 7.208070306E-01
 9.426664114E-01 1.016204990E-02 7.356514371E-01
 9.323192537E-01 1.185549935E-02 7.525186222E-01
 9.210749865E-01 1.363672828E-02 7.678813829E-01
 9.091276824E-01 1.544869505E-02 7.804879567E-01
 8.969962597E-01 1.719952282E-02 7.905547556E-01
 8.842789829E-01 1.895571128E-02 8.017393784E-01
 8.719228506E-01 2.056332305E-02 8.047045044E-01
 8.597154319E-01 2.209344320E-02 8.131095378E-01
 8.472781777E-01 2.358128224E-02 8.148350045E-01
 8.350075185E-01 2.498553880E-02 8.155666420E-01
 8.223676980E-01 2.641531173E-02 8.194974555E-01
 8.092455268E-01 2.787053678E-02 8.249566028E-01
 7.970724404E-01 2.918838151E-02 8.263291707E-01
 7.852671444E-01 3.045312036E-02 8.341843115E-01
 7.728947401E-01 3.174829483E-02 8.362047948E-01
 7.604316771E-01 3.302557953E-02 8.410592690E-01
 7.473852932E-01 3.435254283E-02 8.489834144E-01
 7.350324988E-01 3.556935303E-02 8.515620286E-01
 7.237837017E-01 3.666258790E-02 8.582142069E-01
 7.120851576E-01 3.778356872E-02 8.674151450E-01
 6.991483867E-01 3.896740638E-02 8.707370717E-01
 6.853788495E-01 4.018881917E-02 8.764181802E-01
 6.731003523E-01 4.125738144E-02 8.866026643E-01
 6.615780294E-01 4.221645929E-02 8.924081520E-01
 6.501637101E-01 4.312545247E-02 8.978987654E-01
 6.386334300E-01 4.400470480E-02 9.038854496E-01
 6.267949641E-01 4.486606084E-02 9.091715059E-01
 6.155188382E-01 4.564877041E-02 9.169620360E-01
 6.034548283E-01 4.643616267E-02 9.238166578E-01
 5.906995237E-01 4.720526747E-02 9.285380895E-01
 5.774526894E-01 4.793935642E-02 9.332557708E-01
 5.637864470E-01 4.863689840E-02 9.437411689E-01
 5.502574742E-01 4.924280383E-02 9.471738307E-01
 5.375994444E-01 4.973280430E-02 9.487700265E-01
 5.254995227E-01 5.014307611E-02 9.525815312E-01
 5.125175416E-01 5.051350780E-02 9.544862645E-01
 5.003859252E-01 5.079648457E-02 9.576630994E-01
 4.882883579E-01 5.100572109E-02 9.553471883E-01
 4.752396643E-01 5.116362497E-02 9.538679379E-01
 4.615696818E-01 5.125146359E-02 9.502240156E-01
 4.469410181E-01 5.127021670E-02 9.504655898E-01
 4.328379929E-01 5.120524578E-02 9.471272295E-01
 4.191670120E-01 5.105867237E-02 9.422255667E-01
 4.060197026E-01 5.085247196E-02 9.368979713E-01
 3.931534588E-01 5.059186183E-02 9.333744175E-01
 3.806201667E-01 5.028641224E-02 9.314687644E-01
 3.691820502E-01 4.995300248E-02 9.284337881E-01
 3.570074141E-01 4.953576997E-02 9.196685270E-01
 3.444208801E-01 4.906247370E-02 9.182951852E-01
 3.326242715E-01 4.856999032E-02 9.147160547E-01
 3.109824806E-01 4.752968997E-02 9.047926015E-01
 2.991588265E-01 4.690142162E-02 9.011947949E-01
 2.863195091E-01 4.616652057E-02 8.966445342E-01
 2.732980102E-01 4.536575638E-02 8.918983066E-01
 2.610020489E-01 4.455931857E-02 8.875820577E-01
 2.488179579E-01 4.371277988E-02 8.836537697E-01
 2.361305654E-01 4.277792014E-02 8.788814967E-01
 2.237666994E-01 4.181863740E-02 8.759210267E-01
 2.121463418E-01 4.086561501E-02 8.715188942E-01
 2.008256912E-01 3.988991305E-02 8.676739306E-01
 1.889912784E-01 3.882140294E-02 8.634560092E-01
 1.768725812E-01 3.767686523E-02 8.607233148E-01
 1.651538983E-01 3.651239537E-02 8.560043011E-01
 1.533690542E-01 3.528742492E-02 8.534023690E-01
 1.419729888E-01 3.404577821E-02 8.506021911E-01
 1.310351416E-01 3.279016726E-02 8.476174914E-01
 1.199056581E-01 3.144786973E-02 8.439055660E-01
 1.089382395E-01 3.005725145E-02 8.413343010E-01
 8.852452785E-02 2.725591883E-02 8.377470042E-01
 7.739178836E-02 2.557754982E-02 8.348559607E-01
 7.201625779E-02 -4.000765271E-02 8.213271457E-01
 9.265565127E-02 -4.474884458E-02 8.481598947E-01
 1.036664285E-01 -4.700041190E-02 8.596671959E-01
 1.153323799E-01 -4.920535162E-02 8.709772380E-01
 1.270539425E-01 -5.126583762E-02 8.811548178E-01
 1.378204376E-01 -5.303697102E-02 8.909632690E-01
 1.485523731E-01 -5.469346792E-02 8.998564010E-01
 1.597634703E-01 -5.631783232E-02 9.090752499E-01
 1.709948927E-01 -5.784412473E-02 9.190772530E-01
 1.822902560E-01 -5.927659012E-02 9.279403961E-01
 2.034374252E-01 -6.171028130E-02 9.444932225E-01
 2.148207426E-01 -6.288853846E-02 9.542763838E-01
 2.266105488E-01 -6.401466578E-02 9.627994325E-01
 2.382941842E-01 -6.504348293E-02 9.735714560E-01
 2.503093407E-01 -6.600195542E-02 9.870605821E-01
 2.621590197E-01 -6.684489921E-02 9.959050787E-01
 2.742175609E-01 -6.760481372E-02 1.005427177E+00
 2.868165970E-01 -6.829062104E-02 1.020248717E+00
 2.993206084E-01 -6.885534525E-02 1.031784834E+00
 3.112856150E-01 -6.928520277E-02 1.046914040E+00
 3.229712695E-01 -6.959904730E-02 1.057722319E+00
 3.443892598E-01 -6.986987218E-02 1.083003413E+00
 3.556791246E-01 -6.987415254E-02 1.088665515E+00
 3.667485714E-01 -6.977646798E-02 1.105667101E+00
 3.779370040E-01 -6.955239922E-02 1.116722429E+00
 3.896276355E-01 -6.920511648E-02 1.125067419E+00
 4.015116543E-01 -6.872771680E-02 1.134707342E+00
 4.143328816E-01 -6.806974858E-02 1.154354992E+00
 4.274341613E-01 -6.725357473E-02 1.149988205E+00
 4.407005757E-01 -6.626635790E-02 9.638422767E-01
 4.543677866E-01 -6.510938704E-02 9.229750022E-01
 4.674094617E-01 -6.386737525E-02 9.460661802E-01
 4.798651934E-01 -6.256437674E-02 9.314819640E-01
 4.919170737E-01 -6.121473387E-02 9.187755289E-01
 5.043953210E-01 -5.970159732E-02 9.032819530E-01
 5.177507401E-01 -5.797835439E-02 8.793368095E-01
 5.310219228E-01 -5.622056499E-02 8.670381365E-01
 5.448436737E-01 -5.430471152E-02 8.539824915E-01
 5.584942400E-01 -5.233719572E-02 8.363626775E-01
 5.714603961E-01 -5.041112006E-02 8.231740045E-01
 5.847119093E-01 -4.840061627E-02 8.077405889E-01
 5.975252390E-01 -4.643760808E-02 7.971096133E-01
 6.098833382E-01 -4.452341236E-02 7.869121558E-01
 6.228705943E-01 -4.248427600E-02 7.765853059E-01
 6.360205412E-01 -4.038757086E-02 7.641442104E-01
 6.492701769E-01 -3.826757707E-02 7.527683897E-01
 6.631273031E-01 -3.604736552E-02 7.424415917E-01
 6.764593422E-01 -3.391602077E-02 7.326324787E-01
 6.892267764E-01 -3.188508749E-02 7.257945058E-01
 7.030037045E-01 -2.966990042E-02 7.143760781E-01
 7.171705961E-01 -2.740995307E-02 7.032773804E-01
 7.296499908E-01 -2.545195259E-02 6.971258209E-01
 7.413937747E-01 -2.361095604E-02 6.883794199E-01
 7.542200685E-01 -2.162779681E-02 6.800844218E-01
 7.677434385E-01 -1.957760565E-02 6.733917836E-01
 7.804062963E-01 -1.766129956E-02 6.644546431E-01
 7.926844060E-01 -1.582197612E-02 6.541066885E-01
 8.045547009E-01 -1.409923797E-02 6.466202558E-01
 8.156239390E-01 -1.253457740E-02 6.388320079E-01
 8.271263838E-01 -1.098031318E-02 6.334236141E-01
 8.390972018E-01 -9.410643950E-03 6.270862379E-01
 8.509353399E-01 -7.896954427E-03 6.166553558E-01
 8.626160026E-01 -6.503438577E-03 6.090704173E-01
 8.745025992E-01 -5.208789604E-03 6.045828395E-01
 8.868969679E-01 -3.965026233E-03 5.988270396E-01
 9.082472622E-01 -2.127161832E-03 5.891483626E-01
 9.399541318E-01 -3.113434668E-04 5.851918831E-01
 9.541900456E-01 1.647150184E-04 5.849596818E-01
 9.692792892E-01 4.638905812E-04 5.844096689E-01
 9.834177792E-01 5.694800639E-04 5.791682960E-01
 9.950279891E-01 5.518042599E-04 5.682096349E-01
 -5.000000000E-01 9.500000000E-01 7.225410864E-01
 -5.000000000E-01 9.000000000E-01 7.191902638E-01
 -5.000000000E-01 8.500000000E-01 7.166707171E-01
 -5.000000000E-01 8.000000000E-01 7.144636846E-01
 -5.000000000E-01 7.500000000E-01 7.123604666E-01
 -5.000000000E-01 7.000000000E-01 7.102779626E-01
 -5.000000000E-01 6.500000000E-01 7.081693626E-01
 -5.000000000E-01 6.000000000E-01 7.060255874E-01
 -5.000000000E-01 5.500000000E-01 7.038287282E-01
 -5.000000000E-01 5.000000000E-01 7.015668452E-01
 -5.000000000E-01 4.500000000E-01 6.992428173E-01
 -5.000000000E-01 4.000000000E-01 6.969444499E-01
 -5.000000000E-01 3.500000000E-01 6.946387223E-01
 -5.000000000E-01 3.000000000E-01 6.924131145E-01
 -5.000000000E-01 2.500000000E-01 6.903394871E-01
 -5.000000000E-01 2.000000000E-01 6.884550545E-01
 -5.000000000E-01 1.500000000E-01 6.868446906E-01
 -5.000000000E-01 1.000000000E-01 6.855702879E-01
 -5.000000000E-01 5.000000000E-02 6.847043419E-01
 -5.000000000E-01 2.752242878E-12 6.843037763E-01
 -5.000000000E-01 -5.000000000E-02 6.843837489E-01
 -5.000000000E-01 -1.000000000E-01 6.848588671E-01
 -5.000000000E-01 -1.500000000E-01 6.858290286E-01
 -5.000000000E-01 -2.000000000E-01 6.872033839E-01
 -5.000000000E-01 -2.500000000E-01 6.888957780E-01
 -5.000000000E-01 -3.000000000E-01 6.908312046E-01
 -5.000000000E-01 -3.500000000E-01 6.929674225E-01
 -5.000000000E-01 -4.000000000E-01 6.952263959E-01
 -5.000000000E-01 -4.500000000E-01 6.975478297E-01
 -5.000000000E-01 -5.000000000E-01 6.999005065E-01
 -5.000000000E-01 -5.500000000E-01 7.022461189E-01
 -5.000000000E-01 -6.000000000E-01 7.045474847E-01
 -5.000000000E-01 -6.500000000E-01 7.068048248E-01
 -5.000000000E-01 -7.000000000E-01 7.090278069E-01
 -5.000000000E-01 -7.500000000E-01 7.112447873E-01
 -5.000000000E-01 -8.000000000E-01 7.134786414E-01
 -5.000000000E-01 -8.500000000E-01 7.158548564E-01
 -5.000000000E-01 -9.000000000E-01 7.185433707E-01
 -5.000000000E-01 -9.500000000E-01 7.220676963E-01
 -4.500000000E-01 -1.000000000E+00 7.219222269E-01
 -4.000000000E-01 -1.000000000E+00 7.185104525E-01
 -3.500000000E-01 -1.000000000E+00 7.163775419E-01
 -3.000000000E-01 -1.000000000E+00 7.150253254E-01
 -2.500000000E-01 -1.000000000E+00 7.142798547E-01
 -2.000000000E-01 -1.000000000E+00 7.142161154E-01
 -1.500000000E-01 -1.000000000E+00 7.149100464E-01
 -1.000000000E-01 -1.000000000E+00 7.161935689E-01
 -5.000000000E-02 -1.000000000E+00 7.180504310E-01
 -9.424683256E-13 -1.000000000E+00 7.205646770E-01
 5.000000000E-02 -1.000000000E+00 7.236760289E-01
 1.000000000E-01 -1.000000000E+00 7.275138226E-01
 1.500000000E-01 -1.000000000E+00 7.318635105E-01
 2.000000000E-01 -1.000000000E+00 7.363895139E-01
 2.500000000E-01 -1.000000000E+00 7.408007104E-01
 3.000000000E-01 -1.000000000E+00 7.447847502E-01
 3.500000000E-01 -1.000000000E+00 7.482153246E-01
 4.000000000E-01 -1.000000000E+00 7.509618821E-01
 4.500000000E-01 -1.000000000E+00 7.526976044E-01
 5.000000000E-01 -1.000000000E+00 7.537556543E-01
 5.500000000E-01 -1.000000000E+00 7.527149912E-01
 6.000000000E-01 -1.000000000E+00 7.520265307E-01
 6.500000000E-01 -1.000000000E+00 7.509106243E-01
 7.000000000E-01 -1.000000000E+00 7.488376028E-01
 7.500000000E-01 -1.000000000E+00 7.460831684E-01
 8.000000000E-01 -1.000000000E+00 7.433620676E-01
 8.500000000E-01 -1.000000000E+00 7.404983927E-01
 9.000000000E-01 -1.000000000E+00 7.372425877E-01
 9.500000000E-01 -1.000000000E+00 7.342672226E-01
 1.000000000E+00 -1.000000000E+00 7.311691987E-01
 1.050000000E+00 -1.000000000E+00 7.284383243E-01
 1.100000000E+00 -1.000000000E+00 7.258218959E-01
 1.150000000E+00 -1.000000000E+00 7.236197057E-01
 1.200000000E+00 -1.000000000E+00 7.216213652E-01
 1.250000000E+00 -1.000000000E+00 7.199387914E-01
 1.300000000E+00 -1.000000000E+00 7.187308060E-01
 1.350000000E+00 -1.000000000E+00 7.177463443E-01
 1.400000000E+00 -1.000000000E+00 7.170064785E-01
 1.450000000E+00 -1.000000000E+00 7.163325067E-01
 1.500000000E+00 -1.000000000E+00 7.158445013E-01
 1.550000000E+00 -1.000000000E+00 7.154884113E-01
 1.600000000E+00 -1.000000000E+00 7.148924576E-01
 1.650000000E+00 -1.000000000E+00 7.147083076E-01
 1.700000000E+00 -1.000000000E+00 7.148633035E-01
 1.750000000E+00 -1.000000000E+00 7.150399549E-01
 1.800000000E+00 -1.000000000E+00 7.152475632E-01
 1.850000000E+00 -1.000000000E+00 7.154708703E-01
 1.900000000E+00 -1.000000000E+00 7.157298159E-01
 1.950000000E+00 -1.000000000E+00 7.159837573E-01
 2.000000000E+00 -1.000000000E+00 7.162135824E-01
 2.050000000E+00 -1.000000000E+00 7.164585661E-01
 2.100000000E+00 -1.000000000E+00 7.167123406E-01
 2.150000000E+00 -1.000000000E+00 7.169660791E-01
 2.200000000E+00 -1.000000000E+00 7.172101760E-01
 2.250000000E+00 -1.000000000E+00 7.174855763E-01
 2.300000000E+00 -1.000000000E+00 7.176867883E-01
 2.350000000E+00 -1.000000000E+00 7.179042446E-01
 2.400000000E+00 -1.000000000E+00 7.181319966E-01
 2.450000000E+00 -1.000000000E+00 7.183880884E-01
 2.500000000E+00 -1.000000000E+00 7.186251580E-01
 2.550000000E+00 -1.000000000E+00 7.188321917E-01
 2.600000000E+00 -1.000000000E+00 7.189860420E-01
 2.650000000E+00 -1.000000000E+00 7.191086279E-01
 2.700000000E+00 -1.000000000E+00 7.192188058E-01
 2.750000000E+00 -1.000000000E+00 7.193419031E-01
 2.800000000E+00 -1.000000000E+00 7.194614069E-01
 2.850000000E+00 -1.000000000E+00 7.195361223E-01
 2.900000000E+00 -1.000000000E+00 7.196201282E-01
 2.950000000E+00 -1.000000000E+00 7.196128313E-01
 3.000000000E+00 -1.000000000E+00 7.196601997E-01
 3.050000000E+00 -1.000000000E+00 7.197076721E-01
 3.100000000E+00 -1.000000000E+00 7.197565098E-01
 3.150000000E+00 -1.000000000E+00 7.198455656E-01
 3.200000000E+00 -1.000000000E+00 7.199100572E-01
 3.250000000E+00 -1.000000000E+00 7.200409282E-01
 3.300000000E+00 -1.000000000E+00 7.201979654E-01
 3.350000000E+00 -1.000000000E+00 7.204546780E-01
 3.400000000E+00 -1.000000000E+00 7.208847529E-01
 3.450000000E+00 -1.000000000E+00 7.223691809E-01
 3.500000000E+00 -9.500000000E-01 7.282788553E-01
 3.500000000E+00 -9.000000000E-01 7.298156048E-01
 3.500000000E+00 -8.500000000E-01 7.307921211E-01
 3.500000000E+00 -8.000000000E-01 7.312459927E-01
 3.500000000E+00 -7.500000000E-01 7.314135416E-01
 3.500000000E+00 -7.000000000E-01 7.315290212E-01
 3.500000000E+00 -6.500000000E-01 7.317110233E-01
 3.500000000E+00 -6.000000000E-01 7.319907903E-01
 3.500000000E+00 -5.500000000E-01 7.323188617E-01
 3.500000000E+00 -5.000000000E-01 7.326557704E-01
 3.500000000E+00 -4.500000000E-01 7.329768428E-01
 3.500000000E+00 -4.000000000E-01 7.332901510E-01
 3.500000000E+00 -3.500000000E-01 7.336139357E-01
 3.500000000E+00 -3.000000000E-01 7.339470657E-01
 3.500000000E+00 -2.500000000E-01 7.342554612E-01
 3.500000000E+00 -2.000000000E-01 7.344936055E-01
 3.500000000E+00 -1.500000000E-01 7.346164632E-01
 3.500000000E+00 -1.000000000E-01 7.346479533E-01
 3.500000000E+00 -5.000000000E-02 7.346397206E-01
 3.500000000E+00 -2.752242878E-12 7.346389494E-01
 3.500000000E+00 5.000000000E-02 7.346232127E-01
 3.500000000E+00 1.000000000E-01 7.345369284E-01
 3.500000000E+00 1.500000000E-01 7.343565461E-01
 3.500000000E+00 2.000000000E-01 7.340656022E-01
 3.500000000E+00 2.500000000E-01 7.337444810E-01
 3.500000000E+00 3.000000000E-01 7.334181382E-01
 3.500000000E+00 3.500000000E-01 7.331068735E-01
 3.500000000E+00 4.000000000E-01 7.328135331E-01
 3.500000000E+00 4.500000000E-01 7.325033285E-01
 3.500000000E+00 5.000000000E-01 7.321668135E-01
 3.500000000E+00 5.500000000E-01 7.317956788E-01
 3.500000000E+00 6.000000000E-01 7.314780070E-01
 3.500000000E+00 6.500000000E-01 7.313633111E-01
 3.500000000E+00 7.000000000E-01 7.314896288E-01
 3.500000000E+00 7.500000000E-01 7.316340877E-01
 3.500000000E+00 8.000000000E-01 7.313829850E-01
 3.500000000E+00 8.500000000E-01 7.301795503E-01
 3.500000000E+00 9.000000000E-01 7.277140776E-01
 3.500000000E+00 9.500000000E-01 7.241241655E-01
 3.450000000E+00 1.000000000E+00 7.123975226E-01
 3.400000000E+00 1.000000000E+00 7.099310627E-01
 3.350000000E+00 1.000000000E+00 7.095470598E-01
 3.300000000E+00 1.000000000E+00 7.094914467E-01
 3.250000000E+00 1.000000000E+00 7.096893559E-01
 3.200000000E+00 1.000000000E+00 7.097448004E-01
 3.150000000E+00 1.000000000E+00 7.096543930E-01
 3.100000000E+00 1.000000000E+00 7.098566609E-01
 3.050000000E+00 1.000000000E+00 7.101128606E-01
 3.000000000E+00 1.000000000E+00 7.103669479E-01
 2.950000000E+00 1.000000000E+00 7.105923425E-01
 2.900000000E+00 1.000000000E+00 7.108207911E-01
 2.850000000E+00 1.000000000E+00 7.111798093E-01
 2.800000000E+00 1.000000000E+00 7.114176447E-01
 2.750000000E+00 1.000000000E+00 7.113933196E-01
 2.700000000E+00 1.000000000E+00 7.117406186E-01
 2.650000000E+00 1.000000000E+00 7.119842459E-01
 2.600000000E+00 1.000000000E+00 7.122164095E-01
 2.550000000E+00 1.000000000E+00 7.125614280E-01
 2.500000000E+00 1.000000000E+00 7.129162582E-01
 2.450000000E+00 1.000000000E+00 7.132397786E-01
 2.400000000E+00 1.000000000E+00 7.135515976E-01
 2.350000000E+00 1.000000000E+00 7.137855987E-01
 2.300000000E+00 1.000000000E+00 7.141777507E-01
 2.250000000E+00 1.000000000E+00 7.144674208E-01
 2.200000000E+00 1.000000000E+00 7.146646074E-01
 2.150000000E+00 1.000000000E+00 7.150098420E-01
 2.100000000E+00 1.000000000E+00 7.153711840E-01
 2.050000000E+00 1.000000000E+00 7.158286794E-01
 2.000000000E+00 1.000000000E+00 7.163345067E-01
 1.950000000E+00 1.000000000E+00 7.167796844E-01
 1.900000000E+00 1.000000000E+00 7.174550255E-01
 1.850000000E+00 1.000000000E+00 7.180235443E-01
 1.800000000E+00 1.000000000E+00 7.187097299E-01
 1.750000000E+00 1.000000000E+00 7.193946229E-01
 1.700000000E+00 1.000000000E+00 7.202540313E-01
 1.650000000E+00 1.000000000E+00 7.211510014E-01
 1.600000000E+00 1.000000000E+00 7.221608474E-01
 1.550000000E+00 1.000000000E+00 7.232785031E-01
 1.500000000E+00 1.000000000E+00 7.246412562E-01
 1.450000000E+00 1.000000000E+00 7.263567851E-01
 1.400000000E+00 1.000000000E+00 7.279361682E-01
 1.350000000E+00 1.000000000E+00 7.298120546E-01
 1.300000000E+00 1.000000000E+00 7.315665359E-01
 1.250000000E+00 1.000000000E+00 7.339439298E-01
 1.200000000E+00 1.000000000E+00 7.363859611E-01
 1.150000000E+00 1.000000000E+00 7.388110792E-01
 1.100000000E+00 1.000000000E+00 7.416810133E-01
 1.050000000E+00 1.000000000E+00 7.442821524E-01
 1.000000000E+00 1.000000000E+00 7.469143629E-01
 9.500000000E-01 1.000000000E+00 7.494508900E-01
 9.000000000E-01 1.000000000E+00 7.511978805E-01
 8.500000000E-01 1.000000000E+00 7.525894392E-01
 8.000000000E-01 1.000000000E+00 7.557836673E-01
 7.500000000E-01 1.000000000E+00 7.585743348E-01
 7.000000000E-01 1.000000000E+00 7.589913877E-01
 6.500000000E-01 1.000000000E+00 7.596473938E-01
 6.000000000E-01 1.000000000E+00 7.589818299E-01
 5.500000000E-01 1.000000000E+00 7.576931099E-01
 5.000000000E-01 1.000000000E+00 7.558457916E-01
 4.500000000E-01 1.000000000E+00 7.534647067E-01
 4.000000000E-01 1.000000000E+00 7.502212170E-01
 3.500000000E-01 1.000000000E+00 7.466821839E-01
 3.000000000E-01 1.000000000E+00 7.429507102E-01
 2.500000000E-01 1.000000000E+00 7.387340840E-01
 2.000000000E-01 1.000000000E+00 7.344707110E-01
 1.500000000E-01 1.000000000E+00 7.303806388E-01
 1.000000000E-01 1.000000000E+00 7.266121043E-01
 5.000000000E-02 1.000000000E+00 7.232831008E-01
 1.733724275E-12 1.000000000E+00 7.204965441E-01
 -5.000000000E-02 1.000000000E+00 7.182455012E-01
 -1.000000000E-01 1.000000000E+00 7.166127786E-01
 -1.500000000E-01 1.000000000E+00 7.155543976E-01
 -2.000000000E-01 1.000000000E+00 7.150815249E-01
 -2.500000000E-01 1.000000000E+00 7.152034933E-01
 -3.000000000E-01 1.000000000E+00 7.159292931E-01
 -3.500000000E-01 1.000000000E+00 7.172133657E-01
 -4.000000000E-01 1.000000000E+00 7.192600520E-01
 -4.500000000E-01 1.000000000E+00 7.224019978E-01
 9.430582246E-01 -6.658934908E-03 5.895099006E-01
 8.475733060E-01 -1.297070055E-02 6.222609453E-01
 7.782018838E-01 -2.330919351E-02 6.684667418E-01
 7.073043063E-01 -3.544447226E-02 7.124470547E-01
 6.340747619E-01 -4.547559769E-02 7.666605996E-01
 5.693719257E-01 -5.677698125E-02 8.259952485E-01
 5.019157172E-01 -6.535042237E-02 9.053063439E-01
 4.438160974E-01 -7.238391630E-02 9.390707048E-01
 3.870169147E-01 -7.473393329E-02 1.117079487E+00
 3.335377154E-01 -7.477937918E-02 1.069502111E+00
 2.768960721E-01 -7.320123823E-02 1.004693115E+00
 2.173690712E-01 -6.900322790E-02 9.528269115E-01
 1.618362896E-01 -6.142406032E-02 9.079917585E-01
 1.114178346E-01 -5.347820525E-02 8.644092482E-01
 6.825558826E-02 -4.418653342E-02 8.100770368E-01
 3.516257276E-02 -3.625221728E-02 7.202604167E-01
 1.975000000E+00 -9.566987298E-01 7.200105152E-01
 1.977436213E+00 9.583935959E-01 7.240840859E-01
 8.911505827E-01 -9.312364066E-03 6.003682855E-01
 9.353677115E-01 1.501477478E-02 7.478958896E-01
 8.818367994E-01 2.457956665E-02 8.013544542E-01
 8.196432321E-01 3.202217755E-02 8.201558885E-01
 7.511706742E-01 3.971696240E-02 8.466860694E-01
 6.824374129E-01 4.580528563E-02 8.783150294E-01