TITLE     = "Visualization of the solution"
VARIABLES = "x"
"y"
"Mach"
ZONE T="Zone"
 STRANDID=0, SOLUTIONTIME=0
 Nodes=11804, Elements=23026, ZONETYPE=FEQuadrilateral
 DATAPACKING=POINT
 DT=(DOUBLE DOUBLE DOUBLE )
 9.998364449E-01 5.084531731E-04 5.294982520E-01
 9.865059257E-01 3.170983400E-03 6.432247972E-01
 9.731867313E-01 5.857106298E-03 6.717295732E-01
 9.560614228E-01 9.316470474E-03 6.975602165E-01
 9.409177303E-01 1.231785212E-02 7.119427489E-01
 9.268105626E-01 1.518256124E-02 7.345316708E-01
 9.149675965E-01 1.751162112E-02 7.456704816E-01
 9.031571746E-01 1.981147937E-02 7.562173068E-01
 8.914414644E-01 2.208425291E-02 7.672766586E-01
 8.799185157E-01 2.434077859E-02 7.859733644E-01
 8.677245975E-01 2.663656510E-02 7.978477631E-01
 8.554078937E-01 2.889919095E-02 8.108023236E-01
 8.431694508E-01 3.102680854E-02 8.109999064E-01
 8.323304653E-01 3.293557838E-02 8.225242645E-01
 8.207886219E-01 3.492020071E-02 8.306251487E-01
 8.086483479E-01 3.697626293E-02 8.409133558E-01
 7.963056564E-01 3.902600333E-02 8.521012511E-01
 7.838155627E-01 4.101987556E-02 8.566563533E-01
 7.717932463E-01 4.293858632E-02 8.706409219E-01
 7.603012919E-01 4.469261691E-02 8.740659007E-01
 7.474091649E-01 4.663489759E-02 8.842637914E-01
 7.343727350E-01 4.857550189E-02 8.998538365E-01
 7.235242724E-01 5.008682981E-02 8.985713668E-01
 7.123727798E-01 5.166321993E-02 9.149221701E-01
 7.007019520E-01 5.323696136E-02 9.229746678E-01
 6.874264479E-01 5.494853109E-02 9.261554022E-01
 6.746096015E-01 5.655382201E-02 9.364682155E-01
 6.641412377E-01 5.784215406E-02 9.481694500E-01
 6.522341371E-01 5.919700861E-02 9.468364389E-01
 6.406196356E-01 6.051335484E-02 9.524988699E-01
 6.289318800E-01 6.173636392E-02 9.183425673E-01
 6.172179580E-01 6.290684640E-02 9.784351236E-01
 6.065194011E-01 6.389073282E-02 1.148816619E+00
 5.947397351E-01 6.495515257E-02 1.141141072E+00
 5.831568837E-01 6.588230282E-02 1.125549460E+00
 5.699928403E-01 6.688697636E-02 1.128738167E+00
 5.576828122E-01 6.772790104E-02 1.120127178E+00
 5.454884768E-01 6.847885996E-02 1.113985641E+00
 5.342901945E-01 6.909361482E-02 1.105673152E+00
 5.226266980E-01 6.965445727E-02 1.098079888E+00
 5.105313659E-01 7.016608119E-02 1.095806510E+00
 4.995967448E-01 7.058329880E-02 1.087011518E+00
 4.867024124E-01 7.096127421E-02 1.076337076E+00
 4.735776186E-01 7.127724588E-02 1.070387058E+00
 4.600665271E-01 7.149670273E-02 1.059076667E+00
 4.470235109E-01 7.162299007E-02 1.052419586E+00
 4.343455434E-01 7.167698443E-02 1.044628280E+00
 4.215520620E-01 7.163206488E-02 1.036336113E+00
 4.091488421E-01 7.154130191E-02 1.033590715E+00
 3.965221643E-01 7.135964185E-02 1.025232429E+00
 3.841637075E-01 7.112226635E-02 1.019190732E+00
 3.722364008E-01 7.081723958E-02 1.009226732E+00
 3.593094647E-01 7.042035460E-02 1.005272238E+00
 3.467251956E-01 6.997179240E-02 1.003227237E+00
 3.337173760E-01 6.942460686E-02 9.987689930E-01
 3.227217793E-01 6.889614463E-02 9.884261236E-01
 3.101570308E-01 6.821784377E-02 9.811268268E-01
 2.971083820E-01 6.746029854E-02 9.792014592E-01
 2.832061648E-01 6.654170156E-02 9.716175414E-01
 2.712033987E-01 6.567583233E-02 9.653088549E-01
 2.595149279E-01 6.476178765E-02 9.595970708E-01
 2.471313626E-01 6.372744590E-02 9.560870357E-01
 2.347426414E-01 6.259008497E-02 9.460749703E-01
 2.225868702E-01 6.139903516E-02 9.397091247E-01
 2.107314020E-01 6.016913801E-02 9.369994876E-01
 1.988208294E-01 5.883700028E-02 9.292588083E-01
 1.863303483E-01 5.733709410E-02 9.208594605E-01
 1.744179428E-01 5.581850559E-02 9.152521701E-01
 1.625942737E-01 5.420148373E-02 9.064237708E-01
 1.507197320E-01 5.247424543E-02 8.989366203E-01
 1.398946792E-01 5.080153048E-02 8.915296051E-01
 1.281826794E-01 4.886695743E-02 8.813180546E-01
 1.169853732E-01 4.690085351E-02 8.728017938E-01
 1.063455939E-01 4.491314664E-02 8.654092541E-01
 9.636083990E-02 4.291159660E-02 8.539739095E-01
 8.551552147E-02 4.059023410E-02 8.418385852E-01
 7.438155264E-02 3.802243620E-02 8.271686169E-01
 6.461858004E-02 3.558233380E-02 8.141148477E-01
 5.505762622E-02 3.300568461E-02 7.992640052E-01
 4.639124498E-02 3.044993430E-02 7.832742734E-01
 3.885814175E-02 2.803523093E-02 7.657941572E-01
 3.210738301E-02 2.567248605E-02 7.473452750E-01
 2.631312609E-02 2.345407940E-02 7.294907643E-01
 2.202569693E-02 2.166988328E-02 7.105064919E-01
 1.800925098E-02 1.985045895E-02 6.896608655E-01
 1.475873031E-02 1.824082620E-02 6.673929967E-01
 1.182885375E-02 1.665766910E-02 6.441817963E-01
 9.699738584E-03 1.540116128E-02 6.231360486E-01
 7.808127441E-03 1.419090945E-02 6.009617410E-01
 6.041776855E-03 1.294529624E-02 5.663195964E-01
 3.793196753E-03 1.114617195E-02 5.189476150E-01
 1.890460146E-03 9.314398281E-03 4.639768202E-01
 3.645877878E-04 7.449324708E-03 3.688948487E-01
 -1.091380138E-03 4.839028697E-03 2.418987636E-01
 -1.657966874E-03 2.882153727E-03 1.210053326E-01
 -1.801180537E-03 1.293453272E-03 4.798324897E-03
 -1.634634566E-03 -4.494588648E-04 1.033659773E-01
 -1.142968074E-03 -2.200974384E-03 2.089985472E-01
 -1.269179338E-04 -4.312160891E-03 3.149401973E-01
 1.372394850E-03 -6.474243943E-03 4.129432162E-01
 3.390083555E-03 -8.697515354E-03 4.929492981E-01
 5.245174747E-03 -1.038636174E-02 5.487820549E-01
 7.334677503E-03 -1.203890610E-02 5.902067867E-01
 9.042205289E-03 -1.325215492E-02 6.242295932E-01
 1.114103384E-02 -1.461613458E-02 6.513963721E-01
 1.353802159E-02 -1.603215002E-02 6.782534355E-01
 1.676879637E-02 -1.777093485E-02 7.056713146E-01
 1.973100938E-02 -1.922389492E-02 7.305033059E-01
 2.350783348E-02 -2.092032693E-02 7.512232395E-01
 2.875319682E-02 -2.305147424E-02 7.722475851E-01
 3.435824439E-02 -2.510586008E-02 7.920930604E-01
 4.104507715E-02 -2.731188014E-02 8.085319544E-01
 4.856192321E-02 -2.955821715E-02 8.218973582E-01
 5.730115250E-02 -3.192518279E-02 8.346008365E-01
 6.600471586E-02 -3.406720236E-02 8.450418189E-01
 7.600496709E-02 -3.632367402E-02 8.543109467E-01
 8.595960587E-02 -3.839209303E-02 8.632519870E-01
 9.642525017E-02 -4.040414095E-02 8.702298662E-01
 1.076240465E-01 -4.239893705E-02 8.768062181E-01
 1.190724671E-01 -4.430002347E-02 8.846606852E-01
 1.308557987E-01 -4.611076042E-02 8.902991739E-01
 1.416001618E-01 -4.766628891E-02 8.979861170E-01
 1.528089792E-01 -4.918978736E-02 9.051548888E-01
 1.649467647E-01 -5.073000491E-02 9.115887403E-01
 1.765716523E-01 -5.210957304E-02 9.191469172E-01
 1.884748042E-01 -5.342862755E-02 9.269925039E-01
 1.992937177E-01 -5.454031378E-02 9.331785685E-01
 2.107901871E-01 -5.564713478E-02 9.400908586E-01
 2.231146991E-01 -5.674147233E-02 9.480978825E-01
 2.354640067E-01 -5.775125697E-02 9.588458115E-01
 2.475026697E-01 -5.863557383E-02 9.685806725E-01
 2.597039044E-01 -5.943313986E-02 9.759745768E-01
 2.708488405E-01 -6.007632613E-02 9.826005090E-01
 2.835122943E-01 -6.072267145E-02 9.932411594E-01
 2.956813872E-01 -6.123687699E-02 1.006890896E+00
 3.085528016E-01 -6.165298447E-02 1.011626599E+00
 3.206357956E-01 -6.195448712E-02 1.023454250E+00
 3.333443403E-01 -6.213767827E-02 1.032421002E+00
 3.442191482E-01 -6.219786406E-02 1.038712610E+00
 3.558331430E-01 -6.216777861E-02 1.047049064E+00
 3.667505383E-01 -6.201807037E-02 1.043494955E+00
 3.779310584E-01 -6.179439649E-02 1.037454487E+00
 3.899593353E-01 -6.141448766E-02 1.022529504E+00
 4.030415714E-01 -6.086321548E-02 1.002528548E+00
 4.157074094E-01 -6.020487100E-02 9.926704785E-01
 4.283962846E-01 -5.939571187E-02 9.775646227E-01
 4.408736229E-01 -5.848051235E-02 9.607004157E-01
 4.529550970E-01 -5.747341737E-02 9.438081983E-01
 4.648882151E-01 -5.638944358E-02 9.319385833E-01
 4.770925641E-01 -5.513963848E-02 9.101265297E-01
 4.890605807E-01 -5.384609848E-02 8.926943014E-01
 5.015939474E-01 -5.241814628E-02 8.797091367E-01
 5.150558352E-01 -5.078808963E-02 8.634338903E-01
 5.279569030E-01 -4.913387820E-02 8.454375631E-01
 5.408298969E-01 -4.744732007E-02 8.337019119E-01
 5.533193350E-01 -4.574297369E-02 8.197311996E-01
 5.665642023E-01 -4.387468100E-02 8.035981309E-01
 5.793188214E-01 -4.204826802E-02 7.904463803E-01
 5.921157002E-01 -4.021668434E-02 7.819842095E-01
 6.047763228E-01 -3.834008425E-02 7.666620661E-01
 6.187983751E-01 -3.629154339E-02 7.580681737E-01
 6.327160001E-01 -3.422391415E-02 7.454908452E-01
 6.470900774E-01 -3.210686520E-02 7.368410738E-01
 6.598221660E-01 -3.020913526E-02 7.257414792E-01
 6.729900241E-01 -2.826436609E-02 7.169737879E-01
 6.852874160E-01 -2.645473182E-02 7.084867063E-01
 6.976808906E-01 -2.464357764E-02 7.002417684E-01
 7.119938731E-01 -2.256613970E-02 6.901484949E-01
 7.251067162E-01 -2.072589099E-02 6.856684120E-01
 7.368013859E-01 -1.905574836E-02 6.746651129E-01
 7.505742908E-01 -1.716614701E-02 6.689163219E-01
 7.629372478E-01 -1.546509471E-02 6.587798760E-01
 7.767751217E-01 -1.365699992E-02 6.545674917E-01
 7.885415554E-01 -1.211260166E-02 6.452242116E-01
 8.013638854E-01 -1.047966629E-02 6.364185406E-01
 8.123013973E-01 -9.152596816E-03 6.302406455E-01
 8.238265514E-01 -7.815904915E-03 6.243588025E-01
 8.368609548E-01 -6.386009511E-03 6.187757943E-01
 8.493648767E-01 -5.073511042E-03 6.114558124E-01
 8.614671826E-01 -3.887370694E-03 6.040763839E-01
 8.725718856E-01 -2.900025109E-03 5.986255489E-01
 8.840976357E-01 -1.985967625E-03 5.950463523E-01
 8.967841864E-01 -1.089527039E-03 5.893173924E-01
 9.072731137E-01 -4.830422404E-04 5.877872206E-01
 9.178380370E-01 5.001038517E-05 5.839811369E-01
 9.278814197E-01 4.395339347E-04 5.829665667E-01
 9.376074672E-01 7.157318178E-04 5.823855952E-01
 9.496971965E-01 9.388619801E-04 5.821668963E-01
 9.625363946E-01 1.035172842E-03 5.812448467E-01
 9.765421152E-01 9.771134937E-04 5.788282346E-01
 9.888669252E-01 7.858154131E-04 5.692839472E-01
 -5.000000000E-01 -1.000000000E+00 7.235280277E-01
 3.500000000E+00 -1.000000000E+00 7.281753956E-01
 3.500000000E+00 1.000000000E+00 7.089321884E-01
 -5.000000000E-01 1.000000000E+00 7.238049599E-01
 9.931711853E-01 1.839718287E-03 6.238107646E-01
 9.798463285E-01 4.514044849E-03 6.565788839E-01
 9.646240771E-01 7.586788386E-03 6.849177216E-01
 9.484895766E-01 1.081716130E-02 7.045604435E-01
 9.338641465E-01 1.375020668E-02 7.237818465E-01
 9.208890796E-01 1.634709118E-02 7.406377668E-01
 9.090623856E-01 1.866155025E-02 7.509485051E-01
 8.972993195E-01 2.094786614E-02 7.610380545E-01
 8.856799901E-01 2.321251575E-02 7.770850132E-01
 8.738215566E-01 2.548867185E-02 7.917113380E-01
 8.615662456E-01 2.776787803E-02 8.057844787E-01
 8.492886722E-01 2.996299975E-02 8.100653642E-01
 8.377499580E-01 3.198119346E-02 8.168534465E-01
 8.265595436E-01 3.392788954E-02 8.265816981E-01
 8.147184849E-01 3.594823182E-02 8.353796848E-01
 8.024770021E-01 3.800113313E-02 8.475094912E-01
 7.900606096E-01 4.002293944E-02 8.532540460E-01
 7.778044045E-01 4.197923094E-02 8.645257148E-01
 7.660472691E-01 4.381560162E-02 8.723702826E-01
 7.538552284E-01 4.566375725E-02 8.776561136E-01
 7.408909500E-01 4.760519974E-02 8.942540939E-01
 7.289485037E-01 4.933116585E-02 8.975941489E-01
 7.179485261E-01 5.087502487E-02 9.069693996E-01
 7.065373659E-01 5.245009065E-02 9.199112537E-01
 6.940641999E-01 5.409274623E-02 9.244495862E-01
 6.810180247E-01 5.575117655E-02 9.293784576E-01
 6.693754196E-01 5.719798803E-02 9.457659833E-01
 6.581876874E-01 5.851958133E-02 9.443441976E-01
 6.464268863E-01 5.985518172E-02 9.544430032E-01
 6.347757578E-01 6.112485938E-02 9.363466795E-01
 6.230749190E-01 6.232160516E-02 9.225783849E-01
 6.118686795E-01 6.339878961E-02 1.083787066E+00
 6.006295681E-01 6.442294270E-02 1.158458798E+00
 5.889483094E-01 6.541872770E-02 1.126761290E+00
 5.765748620E-01 6.638463959E-02 1.129584408E+00
 5.638378263E-01 6.730743870E-02 1.124135212E+00
 5.515856445E-01 6.810338050E-02 1.117051031E+00
 5.398893356E-01 6.878623739E-02 1.110166811E+00
 5.284584463E-01 6.937403604E-02 1.101346767E+00
 5.165790319E-01 6.991026923E-02 1.096191710E+00
 5.050640553E-01 7.037469000E-02 1.093892083E+00
 4.931495786E-01 7.077228650E-02 1.079698979E+00
 4.801400155E-01 7.111926004E-02 1.074547462E+00
 4.668220729E-01 7.138697430E-02 1.064364443E+00
 4.535450190E-01 7.155984640E-02 1.054958945E+00
 4.406845272E-01 7.164998725E-02 1.049893148E+00
 4.279488027E-01 7.165452465E-02 1.038503141E+00
 4.153504521E-01 7.158668339E-02 1.036384576E+00
 4.028355032E-01 7.145047188E-02 1.028653561E+00
 3.903429359E-01 7.124095410E-02 1.022867741E+00
 3.782000542E-01 7.096975297E-02 1.013995655E+00
 3.657729328E-01 7.061879709E-02 1.006312639E+00
 3.530173302E-01 7.019607350E-02 1.004775133E+00
 3.402212858E-01 6.969819963E-02 1.001039848E+00
 3.282195777E-01 6.916037574E-02 9.946091417E-01
 3.164394051E-01 6.855699420E-02 9.831558239E-01
 3.036327064E-01 6.783907115E-02 9.813542491E-01
 2.901572734E-01 6.700100005E-02 9.749747302E-01
 2.772047818E-01 6.610876694E-02 9.686603651E-01
 2.653591633E-01 6.521880999E-02 9.619260529E-01
 2.533231452E-01 6.424461678E-02 9.587470797E-01
 2.409370020E-01 6.315876544E-02 9.509991817E-01
 2.286647558E-01 6.199456006E-02 9.421571815E-01
 2.166591361E-01 6.078408659E-02 9.386258773E-01
 2.047761157E-01 5.950306915E-02 9.338437577E-01
 1.925755888E-01 5.808704719E-02 9.243515077E-01
 1.803741455E-01 5.657779984E-02 9.184682816E-01
 1.685061082E-01 5.500999466E-02 9.109949868E-01
 1.566570029E-01 5.333786458E-02 9.021805847E-01
 1.453072056E-01 5.163788795E-02 8.959984297E-01
 1.340386793E-01 4.983424395E-02 8.862395732E-01
 1.225840263E-01 4.788390547E-02 8.769007393E-01
 1.116654836E-01 4.590700008E-02 8.693266833E-01
 1.013532169E-01 4.391237162E-02 8.602091525E-01
 9.093818069E-02 4.175091535E-02 8.482066977E-01
 7.994853705E-02 3.930633515E-02 8.356806608E-01
 7.100484148E-02 -3.519543819E-02 8.503461655E-01
 8.098228648E-02 -3.735788353E-02 8.592823470E-01
 9.119242802E-02 -3.939811699E-02 8.668168691E-01
 1.020246483E-01 -4.140153900E-02 8.733418890E-01
 1.133482568E-01 -4.334948026E-02 8.807297438E-01
 1.249641329E-01 -4.520539194E-02 8.876816738E-01
 1.362279803E-01 -4.688852467E-02 8.941758735E-01
 1.472045705E-01 -4.842803814E-02 9.016677060E-01
 1.588778719E-01 -4.995989613E-02 9.081879673E-01
 1.707592085E-01 -5.141978897E-02 9.154842915E-01
 1.825232282E-01 -5.276910029E-02 9.227587676E-01
 1.938842610E-01 -5.398447067E-02 9.307305185E-01
 2.050419524E-01 -5.509372428E-02 9.361721011E-01
 2.169524431E-01 -5.619430356E-02 9.440457730E-01
 2.292893529E-01 -5.724636465E-02 9.530137199E-01
 2.414833382E-01 -5.819341540E-02 9.642433374E-01
 2.536032870E-01 -5.903435685E-02 9.721887136E-01
 2.652763724E-01 -5.975473300E-02 9.797401489E-01
 2.771805674E-01 -6.039949879E-02 9.865927766E-01
 2.895968407E-01 -6.097977422E-02 1.000773720E+00
 3.021170944E-01 -6.144493073E-02 1.009862831E+00
 3.145942986E-01 -6.180373579E-02 1.016038786E+00
 3.269900680E-01 -6.204608269E-02 1.028840288E+00
 3.387817442E-01 -6.216777116E-02 1.035977785E+00
 3.500261456E-01 -6.218282133E-02 1.042215832E+00
 3.612918407E-01 -6.209292449E-02 1.048068674E+00
 3.723407984E-01 -6.190623343E-02 1.039666472E+00
 3.839451969E-01 -6.160444207E-02 1.031935518E+00
 3.965004534E-01 -6.113885157E-02 1.011458045E+00
 4.093744904E-01 -6.053404324E-02 9.967944303E-01
 4.220518470E-01 -5.980029143E-02 9.863548227E-01
 4.346349537E-01 -5.893811211E-02 9.687279743E-01
 4.469143599E-01 -5.797696486E-02 9.524116853E-01
 4.589216560E-01 -5.693143047E-02 9.374466739E-01
 4.709903896E-01 -5.576454103E-02 9.224507282E-01
 4.830765724E-01 -5.449286848E-02 9.002778414E-01
 4.953272641E-01 -5.313212238E-02 8.862279545E-01
 5.083248913E-01 -5.160311796E-02 8.717888066E-01
 5.215063691E-01 -4.996098392E-02 8.545045250E-01
 5.343934000E-01 -4.829059914E-02 8.389155947E-01
 5.470746160E-01 -4.659514688E-02 8.273191270E-01
 5.599417686E-01 -4.480882734E-02 8.114677626E-01
 5.729415119E-01 -4.296147451E-02 7.966964916E-01
 5.857172608E-01 -4.113247618E-02 7.859913277E-01
 5.984460115E-01 -3.927838430E-02 7.748177942E-01
 6.117873490E-01 -3.731581382E-02 7.618472958E-01
 6.257571876E-01 -3.525772877E-02 7.520439647E-01
 6.399030387E-01 -3.316538967E-02 7.408161445E-01
 6.534561217E-01 -3.115800023E-02 7.315185403E-01
 6.664060950E-01 -2.923675068E-02 7.211814221E-01
 6.791387200E-01 -2.735954896E-02 7.126916249E-01
 6.914841533E-01 -2.554915473E-02 7.044062133E-01
 7.048373818E-01 -2.360485867E-02 6.950848509E-01
 7.185502946E-01 -2.164601535E-02 6.876528643E-01
 7.309540510E-01 -1.989081968E-02 6.802509916E-01
 7.436878383E-01 -1.811094768E-02 6.717781709E-01
 7.567557693E-01 -1.631562086E-02 6.638319071E-01
 7.698561847E-01 -1.456104731E-02 6.565226085E-01
 7.826583385E-01 -1.288480079E-02 6.501799017E-01
 7.949527204E-01 -1.129613398E-02 6.408528052E-01
 8.068326414E-01 -9.816131555E-03 6.329347360E-01
 8.180639744E-01 -8.484250866E-03 6.272430980E-01
 8.303437531E-01 -7.100957213E-03 6.217822710E-01
 8.431129158E-01 -5.729760276E-03 6.152694204E-01
 8.554160297E-01 -4.480440868E-03 6.076959510E-01
 8.670195341E-01 -3.393697902E-03 6.010582679E-01
 8.783347607E-01 -2.442996367E-03 5.966967157E-01
 8.904409111E-01 -1.537747332E-03 5.924556921E-01
 9.020286500E-01 -7.862846396E-04 5.880211844E-01
 9.125555754E-01 -2.165159276E-04 5.859382134E-01
 9.436523318E-01 8.272968989E-04 5.824022944E-01
 9.561167955E-01 9.870174108E-04 5.817819094E-01
 9.695392549E-01 1.006143168E-03 5.804569631E-01
 9.827045202E-01 8.814644534E-04 5.740557374E-01
 9.943516850E-01 6.471342931E-04 5.626938135E-01
 -5.000000000E-01 9.500000000E-01 7.212521178E-01
 -5.000000000E-01 9.000000000E-01 7.172793754E-01
 -5.000000000E-01 8.500000000E-01 7.143007640E-01
 -5.000000000E-01 8.000000000E-01 7.116647302E-01
 -5.000000000E-01 7.500000000E-01 7.091533495E-01
 -5.000000000E-01 7.000000000E-01 7.066874055E-01
 -5.000000000E-01 6.500000000E-01 7.041445597E-01
 -5.000000000E-01 6.000000000E-01 7.016038283E-01
 -5.000000000E-01 5.500000000E-01 6.989871081E-01
 -5.000000000E-01 5.000000000E-01 6.963461179E-01
 -5.000000000E-01 4.500000000E-01 6.936339466E-01
 -5.000000000E-01 4.000000000E-01 6.909452116E-01
 -5.000000000E-01 3.500000000E-01 6.883142250E-01
 -5.000000000E-01 3.000000000E-01 6.857803765E-01
 -5.000000000E-01 2.500000000E-01 6.834377122E-01
 -5.000000000E-01 2.000000000E-01 6.814512938E-01
 -5.000000000E-01 1.500000000E-01 6.797007617E-01
 -5.000000000E-01 1.000000000E-01 6.784155658E-01
 -5.000000000E-01 5.000000000E-02 6.775789968E-01
 -5.000000000E-01 2.752242878E-12 6.772846313E-01
 -5.000000000E-01 -5.000000000E-02 6.775502424E-01
 -5.000000000E-01 -1.000000000E-01 6.783179998E-01
 -5.000000000E-01 -1.500000000E-01 6.795650527E-01
 -5.000000000E-01 -2.000000000E-01 6.812082640E-01
 -5.000000000E-01 -2.500000000E-01 6.832259791E-01
 -5.000000000E-01 -3.000000000E-01 6.855026149E-01
 -5.000000000E-01 -3.500000000E-01 6.879400145E-01
 -5.000000000E-01 -4.000000000E-01 6.904855297E-01
 -5.000000000E-01 -4.500000000E-01 6.930999542E-01
 -5.000000000E-01 -5.000000000E-01 6.957379760E-01
 -5.000000000E-01 -5.500000000E-01 6.983342677E-01
 -5.000000000E-01 -6.000000000E-01 7.008964562E-01
 -5.000000000E-01 -6.500000000E-01 7.034288210E-01
 -5.000000000E-01 -7.000000000E-01 7.059097221E-01
 -5.000000000E-01 -7.500000000E-01 7.084026101E-01
 -5.000000000E-01 -8.000000000E-01 7.109365651E-01
 -5.000000000E-01 -8.500000000E-01 7.136584712E-01
 -5.000000000E-01 -9.000000000E-01 7.168213474E-01
 -5.000000000E-01 -9.500000000E-01 7.208696044E-01
 -4.500000000E-01 -1.000000000E+00 7.207482809E-01
 -4.000000000E-01 -1.000000000E+00 7.167450231E-01
 -3.500000000E-01 -1.000000000E+00 7.142210149E-01
 -3.000000000E-01 -1.000000000E+00 7.125128725E-01
 -2.500000000E-01 -1.000000000E+00 7.114791037E-01
 -2.000000000E-01 -1.000000000E+00 7.111381532E-01
 -1.500000000E-01 -1.000000000E+00 7.114011484E-01
 -1.000000000E-01 -1.000000000E+00 7.123063847E-01
 -5.000000000E-02 -1.000000000E+00 7.138818331E-01
 -9.424683256E-13 -1.000000000E+00 7.162347857E-01
 5.000000000E-02 -1.000000000E+00 7.189412690E-01
 1.000000000E-01 -1.000000000E+00 7.219138719E-01
 1.500000000E-01 -1.000000000E+00 7.254857554E-01
 2.000000000E-01 -1.000000000E+00 7.292879463E-01
 2.500000000E-01 -1.000000000E+00 7.330078679E-01
 3.000000000E-01 -1.000000000E+00 7.364685951E-01
 3.500000000E-01 -1.000000000E+00 7.394679899E-01
 4.000000000E-01 -1.000000000E+00 7.417691730E-01
 4.500000000E-01 -1.000000000E+00 7.433454541E-01
 5.000000000E-01 -1.000000000E+00 7.441798626E-01
 5.500000000E-01 -1.000000000E+00 7.441584636E-01
 6.000000000E-01 -1.000000000E+00 7.434529632E-01
 6.500000000E-01 -1.000000000E+00 7.420520887E-01
 7.000000000E-01 -1.000000000E+00 7.401363044E-01
 7.500000000E-01 -1.000000000E+00 7.377525780E-01
 8.000000000E-01 -1.000000000E+00 7.352723483E-01
 8.500000000E-01 -1.000000000E+00 7.325207618E-01
 9.000000000E-01 -1.000000000E+00 7.297460001E-01
 9.500000000E-01 -1.000000000E+00 7.269500637E-01
 1.000000000E+00 -1.000000000E+00 7.243437974E-01
 1.050000000E+00 -1.000000000E+00 7.219531271E-01
 1.100000000E+00 -1.000000000E+00 7.198027284E-01
 1.150000000E+00 -1.000000000E+00 7.179610470E-01
 1.200000000E+00 -1.000000000E+00 7.164586582E-01
 1.250000000E+00 -1.000000000E+00 7.152016477E-01
 1.300000000E+00 -1.000000000E+00 7.142822353E-01
 1.350000000E+00 -1.000000000E+00 7.136084654E-01
 1.400000000E+00 -1.000000000E+00 7.131545544E-01
 1.450000000E+00 -1.000000000E+00 7.128443496E-01
 1.500000000E+00 -1.000000000E+00 7.127427743E-01
 1.550000000E+00 -1.000000000E+00 7.128060695E-01
 1.600000000E+00 -1.000000000E+00 7.129909044E-01
 1.650000000E+00 -1.000000000E+00 7.132557225E-01
 1.700000000E+00 -1.000000000E+00 7.135838484E-01
 1.750000000E+00 -1.000000000E+00 7.139530735E-01
 1.800000000E+00 -1.000000000E+00 7.143841658E-01
 1.850000000E+00 -1.000000000E+00 7.148337182E-01
 1.900000000E+00 -1.000000000E+00 7.152899805E-01
 1.950000000E+00 -1.000000000E+00 7.158143671E-01
 2.000000000E+00 -1.000000000E+00 7.162192006E-01
 2.050000000E+00 -1.000000000E+00 7.166808858E-01
 2.100000000E+00 -1.000000000E+00 7.172277794E-01
 2.150000000E+00 -1.000000000E+00 7.177230954E-01
 2.200000000E+00 -1.000000000E+00 7.180587137E-01
 2.250000000E+00 -1.000000000E+00 7.185285685E-01
 2.300000000E+00 -1.000000000E+00 7.189756194E-01
 2.350000000E+00 -1.000000000E+00 7.193816587E-01
 2.400000000E+00 -1.000000000E+00 7.198207296E-01
 2.450000000E+00 -1.000000000E+00 7.201782176E-01
 2.500000000E+00 -1.000000000E+00 7.204906708E-01
 2.550000000E+00 -1.000000000E+00 7.207773602E-01
 2.600000000E+00 -1.000000000E+00 7.210728715E-01
 2.650000000E+00 -1.000000000E+00 7.214141717E-01
 2.700000000E+00 -1.000000000E+00 7.216758003E-01
 2.750000000E+00 -1.000000000E+00 7.218731954E-01
 2.800000000E+00 -1.000000000E+00 7.220685344E-01
 2.850000000E+00 -1.000000000E+00 7.222780116E-01
 2.900000000E+00 -1.000000000E+00 7.224297764E-01
 2.950000000E+00 -1.000000000E+00 7.225633266E-01
 3.000000000E+00 -1.000000000E+00 7.227407550E-01
 3.050000000E+00 -1.000000000E+00 7.229064940E-01
 3.100000000E+00 -1.000000000E+00 7.230316632E-01
 3.150000000E+00 -1.000000000E+00 7.231587092E-01
 3.200000000E+00 -1.000000000E+00 7.232964464E-01
 3.250000000E+00 -1.000000000E+00 7.234704485E-01
 3.300000000E+00 -1.000000000E+00 7.236737039E-01
 3.350000000E+00 -1.000000000E+00 7.240455790E-01
 3.400000000E+00 -1.000000000E+00 7.245433817E-01
 3.450000000E+00 -1.000000000E+00 7.257503838E-01
 3.500000000E+00 -9.500000000E-01 7.296610821E-01
 3.500000000E+00 -9.000000000E-01 7.304637112E-01
 3.500000000E+00 -8.500000000E-01 7.310527610E-01
 3.500000000E+00 -8.000000000E-01 7.314723224E-01
 3.500000000E+00 -7.500000000E-01 7.317695607E-01
 3.500000000E+00 -7.000000000E-01 7.320477670E-01
 3.500000000E+00 -6.500000000E-01 7.323598489E-01
 3.500000000E+00 -6.000000000E-01 7.326933431E-01
 3.500000000E+00 -5.500000000E-01 7.330462219E-01
 3.500000000E+00 -5.000000000E-01 7.334196844E-01
 3.500000000E+00 -4.500000000E-01 7.337887273E-01
 3.500000000E+00 -4.000000000E-01 7.341291061E-01
 3.500000000E+00 -3.500000000E-01 7.344798556E-01
 3.500000000E+00 -3.000000000E-01 7.348497606E-01
 3.500000000E+00 -2.500000000E-01 7.352085218E-01
 3.500000000E+00 -2.000000000E-01 7.354738280E-01
 3.500000000E+00 -1.500000000E-01 7.356162449E-01
 3.500000000E+00 -1.000000000E-01 7.356320903E-01
 3.500000000E+00 -5.000000000E-02 7.356148204E-01
 3.500000000E+00 -2.752242878E-12 7.355913029E-01
 3.500000000E+00 5.000000000E-02 7.355551430E-01
 3.500000000E+00 1.000000000E-01 7.354388438E-01
 3.500000000E+00 1.500000000E-01 7.352055791E-01
 3.500000000E+00 2.000000000E-01 7.348524212E-01
 3.500000000E+00 2.500000000E-01 7.344754391E-01
 3.500000000E+00 3.000000000E-01 7.340738854E-01
 3.500000000E+00 3.500000000E-01 7.337090107E-01
 3.500000000E+00 4.000000000E-01 7.333580807E-01
 3.500000000E+00 4.500000000E-01 7.329610201E-01
 3.500000000E+00 5.000000000E-01 7.324891082E-01
 3.500000000E+00 5.500000000E-01 7.320364587E-01
 3.500000000E+00 6.000000000E-01 7.318290574E-01
 3.500000000E+00 6.500000000E-01 7.320379523E-01
 3.500000000E+00 7.000000000E-01 7.325409005E-01
 3.500000000E+00 7.500000000E-01 7.325924824E-01
 3.500000000E+00 8.000000000E-01 7.312508708E-01
 3.500000000E+00 8.500000000E-01 7.280984787E-01
 3.500000000E+00 9.000000000E-01 7.234158131E-01
 3.500000000E+00 9.500000000E-01 7.173516465E-01
 3.450000000E+00 1.000000000E+00 6.964206971E-01
 3.400000000E+00 1.000000000E+00 6.909588844E-01
 3.350000000E+00 1.000000000E+00 6.898429061E-01
 3.300000000E+00 1.000000000E+00 6.891026612E-01
 3.250000000E+00 1.000000000E+00 6.887757586E-01
 3.200000000E+00 1.000000000E+00 6.890795235E-01
 3.150000000E+00 1.000000000E+00 6.894992359E-01
 3.100000000E+00 1.000000000E+00 6.900461989E-01
 3.050000000E+00 1.000000000E+00 6.905040839E-01
 3.000000000E+00 1.000000000E+00 6.911654499E-01
 2.950000000E+00 1.000000000E+00 6.919474926E-01
 2.900000000E+00 1.000000000E+00 6.919844771E-01
 2.850000000E+00 1.000000000E+00 6.923136679E-01
 2.800000000E+00 1.000000000E+00 6.927334469E-01
 2.750000000E+00 1.000000000E+00 6.935856253E-01
 2.700000000E+00 1.000000000E+00 6.939478766E-01
 2.650000000E+00 1.000000000E+00 6.942381491E-01
 2.600000000E+00 1.000000000E+00 6.944800763E-01
 2.550000000E+00 1.000000000E+00 6.948547179E-01
 2.500000000E+00 1.000000000E+00 6.950815061E-01
 2.450000000E+00 1.000000000E+00 6.954451960E-01
 2.400000000E+00 1.000000000E+00 6.959797617E-01
 2.350000000E+00 1.000000000E+00 6.965633382E-01
 2.300000000E+00 1.000000000E+00 6.972146843E-01
 2.250000000E+00 1.000000000E+00 6.977443000E-01
 2.200000000E+00 1.000000000E+00 6.982412890E-01
 2.150000000E+00 1.000000000E+00 6.990019345E-01
 2.100000000E+00 1.000000000E+00 6.994826137E-01
 2.050000000E+00 1.000000000E+00 6.999741177E-01
 2.000000000E+00 1.000000000E+00 7.005369219E-01
 1.950000000E+00 1.000000000E+00 7.013388845E-01
 1.900000000E+00 1.000000000E+00 7.022229993E-01
 1.850000000E+00 1.000000000E+00 7.031982358E-01
 1.800000000E+00 1.000000000E+00 7.041281176E-01
 1.750000000E+00 1.000000000E+00 7.049377962E-01
 1.700000000E+00 1.000000000E+00 7.061250548E-01
 1.650000000E+00 1.000000000E+00 7.075753624E-01
 1.600000000E+00 1.000000000E+00 7.093827334E-01
 1.550000000E+00 1.000000000E+00 7.105888015E-01
 1.500000000E+00 1.000000000E+00 7.123420801E-01
 1.450000000E+00 1.000000000E+00 7.139729734E-01
 1.400000000E+00 1.000000000E+00 7.159683075E-01
 1.350000000E+00 1.000000000E+00 7.178063474E-01
 1.300000000E+00 1.000000000E+00 7.198746139E-01
 1.250000000E+00 1.000000000E+00 7.228332412E-01
 1.200000000E+00 1.000000000E+00 7.263743959E-01
 1.150000000E+00 1.000000000E+00 7.305133228E-01
 1.100000000E+00 1.000000000E+00 7.343186920E-01
 1.050000000E+00 1.000000000E+00 7.387022875E-01
 1.000000000E+00 1.000000000E+00 7.426427278E-01
 9.500000000E-01 1.000000000E+00 7.473459080E-01
 9.000000000E-01 1.000000000E+00 7.538615250E-01
 8.500000000E-01 1.000000000E+00 7.581438327E-01
 8.000000000E-01 1.000000000E+00 7.627466183E-01
 7.500000000E-01 1.000000000E+00 7.659045422E-01
 7.000000000E-01 1.000000000E+00 7.687943237E-01
 6.500000000E-01 1.000000000E+00 7.704891513E-01
 6.000000000E-01 1.000000000E+00 7.710402284E-01
 5.500000000E-01 1.000000000E+00 7.703254654E-01
 5.000000000E-01 1.000000000E+00 7.683576952E-01
 4.500000000E-01 1.000000000E+00 7.644077533E-01
 4.000000000E-01 1.000000000E+00 7.607783274E-01
 3.500000000E-01 1.000000000E+00 7.566817717E-01
 3.000000000E-01 1.000000000E+00 7.510498541E-01
 2.500000000E-01 1.000000000E+00 7.452448417E-01
 2.000000000E-01 1.000000000E+00 7.394375610E-01
 1.500000000E-01 1.000000000E+00 7.337757353E-01
 1.000000000E-01 1.000000000E+00 7.284928173E-01
 5.000000000E-02 1.000000000E+00 7.239727199E-01
 1.733724275E-12 1.000000000E+00 7.201646783E-01
 -5.000000000E-02 1.000000000E+00 7.171613775E-01
 -1.000000000E-01 1.000000000E+00 7.149614443E-01
 -1.500000000E-01 1.000000000E+00 7.134428172E-01
 -2.000000000E-01 1.000000000E+00 7.126589066E-01
 -2.500000000E-01 1.000000000E+00 7.127796167E-01
 -3.000000000E-01 1.000000000E+00 7.135393663E-01
 -3.500000000E-01 1.000000000E+00 7.150384451E-01
 -4.000000000E-01 1.000000000E+00 7.173998967E-01
 -4.500000000E-01 1.000000000E+00 7.210309904E-01
 8.986571323E-01 -5.037264620E-03 5.914448237E-01
 9.857074353E-01 -4.210203319E-03 5.784186871E-01
 8.219524394E-01 -1.340293583E-02 6.276540295E-01
 7.479074244E-01 -2.329727025E-02 6.714429193E-01
 6.759086622E-01 -3.312824486E-02 7.160010272E-01
 6.096322429E-01 -4.321305010E-02 7.642136009E-01
 5.446353342E-01 -5.284560799E-02 8.287931102E-01
 4.802433243E-01 -5.989217546E-02 9.032741089E-01
 4.255716340E-01 -6.504841318E-02 9.770761641E-01
 3.692106816E-01 -6.641287314E-02 1.038155904E+00
 3.181990721E-01 -6.715535788E-02 1.016520721E+00
 2.622116306E-01 -6.441983531E-02 9.738323574E-01
 2.079411230E-01 -6.045034996E-02 9.358578603E-01
 1.493470806E-01 -5.366247304E-02 8.993731752E-01
 9.855403569E-02 -4.547578736E-02 8.670665614E-01
 6.009194832E-02 -3.932019959E-02 8.268991766E-01
 2.498340910E-02 -2.633232100E-02 7.396719766E-01
 1.970163036E+00 -9.572266864E-01 7.177851181E-01