TITLE     = "Visualization of the solution"
VARIABLES = "x"
"y"
"Mach"
ZONE T="Zone"
 STRANDID=0, SOLUTIONTIME=0
 Nodes=12058, Elements=23532, ZONETYPE=FEQuadrilateral
 DATAPACKING=POINT
 DT=(DOUBLE DOUBLE DOUBLE )
 1.000219703E+00 5.110494094E-04 5.358083790E-01
 9.887089133E-01 2.891906770E-03 6.328909584E-01
 9.760340452E-01 5.485474132E-03 6.646014730E-01
 9.590748549E-01 8.967553265E-03 6.901213467E-01
 9.440004230E-01 1.208409760E-02 7.135589161E-01
 9.288074970E-01 1.517379843E-02 7.306083697E-01
 9.169965386E-01 1.756059565E-02 7.431020333E-01
 9.055696726E-01 1.988000795E-02 7.584094671E-01
 8.940323591E-01 2.219297178E-02 7.725788155E-01
 8.824667335E-01 2.448290773E-02 7.888068198E-01
 8.703469634E-01 2.680994943E-02 8.025693749E-01
 8.573911786E-01 2.917148359E-02 8.058925374E-01
 8.449197412E-01 3.146095574E-02 8.222923669E-01
 8.340849876E-01 3.337134048E-02 8.284178434E-01
 8.221951723E-01 3.543533385E-02 8.378758271E-01
 8.095557094E-01 3.757348657E-02 8.470110342E-01
 7.968194485E-01 3.967241570E-02 8.546342464E-01
 7.839557528E-01 4.174665734E-02 8.636514468E-01
 7.716122866E-01 4.369168729E-02 8.718537522E-01
 7.598553896E-01 4.548938945E-02 8.767907346E-01
 7.467603087E-01 4.748961702E-02 8.923174029E-01
 7.328817248E-01 4.951005057E-02 8.991098632E-01
 7.222234607E-01 5.101986974E-02 9.059747507E-01
 7.113118768E-01 5.255394801E-02 9.193107834E-01
 6.995377541E-01 5.411609262E-02 9.200171585E-01
 6.862313747E-01 5.585909262E-02 9.325944329E-01
 6.735873222E-01 5.745475367E-02 9.420657964E-01
 6.635068059E-01 5.865557492E-02 9.427133718E-01
 6.522181630E-01 5.998965353E-02 9.536302865E-01
 6.402281523E-01 6.130608544E-02 9.365438251E-01
 6.285801530E-01 6.255453825E-02 9.115478619E-01
 6.170344949E-01 6.371495128E-02 1.039148128E+00
 6.064903736E-01 6.471645087E-02 1.157760790E+00
 5.941148996E-01 6.581934541E-02 1.130935083E+00
 5.827353001E-01 6.672980636E-02 1.123521754E+00
 5.694281459E-01 6.775251776E-02 1.125218439E+00
 5.572724342E-01 6.858512759E-02 1.115869304E+00
 5.454092622E-01 6.932568550E-02 1.111140345E+00
 5.347395539E-01 6.992683560E-02 1.108722093E+00
 5.236425400E-01 7.051375508E-02 1.101981000E+00
 5.114914775E-01 7.104770094E-02 1.087583700E+00
 5.002583861E-01 7.144982368E-02 1.082083704E+00
 4.873667359E-01 7.187442482E-02 1.078574369E+00
 4.736484587E-01 7.219417393E-02 1.067760397E+00
 4.600434899E-01 7.244432718E-02 1.064245037E+00
 4.469330609E-01 7.259055227E-02 1.056525439E+00
 4.344644845E-01 7.266534120E-02 1.051126416E+00
 4.220789373E-01 7.266679406E-02 1.040642477E+00
 4.097246826E-01 7.257265598E-02 1.033158922E+00
 3.977746964E-01 7.244957238E-02 1.030565782E+00
 3.855140209E-01 7.222149521E-02 1.017735634E+00
 3.740429580E-01 7.195971161E-02 1.014389040E+00
 3.610853255E-01 7.160028070E-02 1.011892811E+00
 3.483423889E-01 7.116356492E-02 1.003453562E+00
 3.351349235E-01 7.063008845E-02 9.987377362E-01
 3.240828812E-01 7.012986392E-02 9.914840266E-01
 3.111326396E-01 6.945471466E-02 9.834729209E-01
 2.980356812E-01 6.871907413E-02 9.820129396E-01
 2.842291594E-01 6.783369184E-02 9.754003810E-01
 2.720578909E-01 6.697681546E-02 9.705135890E-01
 2.602533400E-01 6.606967747E-02 9.630704042E-01
 2.477547377E-01 6.502592564E-02 9.562751961E-01
 2.354766876E-01 6.392680854E-02 9.516713448E-01
 2.229931056E-01 6.270962209E-02 9.436505988E-01
 2.111784667E-01 6.147509813E-02 9.373046173E-01
 1.992682666E-01 6.014908850E-02 9.309732633E-01
 1.867182702E-01 5.864259601E-02 9.231407071E-01
 1.749572456E-01 5.713966489E-02 9.183181783E-01
 1.636207551E-01 5.558345467E-02 9.086027078E-01
 1.518237591E-01 5.384714529E-02 8.984232457E-01
 1.411195546E-01 5.218614638E-02 8.914028715E-01
 1.295565963E-01 5.026776716E-02 8.822317896E-01
 1.183230802E-01 4.827717319E-02 8.733945702E-01
 1.078046486E-01 4.627731070E-02 8.628780044E-01
 9.779354930E-02 4.424866289E-02 8.517680016E-01
 8.694565296E-02 4.189276323E-02 8.377744498E-01
 7.535351813E-02 3.916222602E-02 8.224821599E-01
 6.537944078E-02 3.661302105E-02 8.059640329E-01
 5.542664230E-02 3.385570273E-02 7.863920348E-01
 4.681311920E-02 3.124384582E-02 7.694585487E-01
 3.947700188E-02 2.882546745E-02 7.495150301E-01
 3.286110237E-02 2.643806487E-02 7.271586963E-01
 2.710853890E-02 2.418706380E-02 7.071916539E-01
 2.296483889E-02 2.241933346E-02 6.861188779E-01
 1.890188456E-02 2.054968476E-02 6.628917816E-01
 1.557606552E-02 1.888625883E-02 6.382051522E-01
 1.256374642E-02 1.723865978E-02 6.122336825E-01
 1.029451936E-02 1.589166373E-02 5.869434606E-01
 8.358578198E-03 1.464438345E-02 5.627270657E-01
 6.599016953E-03 1.340879500E-02 5.282610852E-01
 4.307337571E-03 1.159543078E-02 4.781530990E-01
 2.306998009E-03 9.718225338E-03 4.247442506E-01
 6.580621703E-04 7.786313072E-03 3.283062804E-01
 -9.860417340E-04 4.958865233E-03 1.919190375E-01
 -1.589867752E-03 2.896334743E-03 6.422286544E-02
 -1.707678661E-03 1.312816283E-03 5.705302879E-02
 -1.502694446E-03 -3.190599382E-04 1.810866307E-01
 -1.021483797E-03 -1.841363497E-03 2.960839349E-01
 -2.330143616E-05 -3.719961736E-03 4.064376814E-01
 1.391546801E-03 -5.569407716E-03 5.027028035E-01
 3.323069075E-03 -7.481617387E-03 5.785038815E-01
 5.091345869E-03 -8.916625753E-03 6.319357875E-01
 7.075416390E-03 -1.030281466E-02 6.695689072E-01
 8.698875085E-03 -1.132070366E-02 6.975651889E-01
 1.079884451E-02 -1.250919513E-02 7.176986720E-01
 1.314033661E-02 -1.371140126E-02 7.367573412E-01
 1.644973084E-02 -1.524585206E-02 7.589394437E-01
 1.929849200E-02 -1.643874682E-02 7.776265239E-01
 2.306052111E-02 -1.788038202E-02 7.883254296E-01
 2.836178243E-02 -1.970174164E-02 8.010357828E-01
 3.415598720E-02 -2.148782834E-02 8.136909480E-01
 4.114868119E-02 -2.342968062E-02 8.224499207E-01
 4.871963710E-02 -2.533164993E-02 8.294644687E-01
 5.783929676E-02 -2.740064636E-02 8.352614560E-01
 6.661565602E-02 -2.922133729E-02 8.406461474E-01
 7.673040032E-02 -3.115242720E-02 8.445882205E-01
 8.681406826E-02 -3.293659911E-02 8.492968185E-01
 9.698498249E-02 -3.461421281E-02 8.534376247E-01
 1.083419174E-01 -3.636784479E-02 8.579387602E-01
 1.196408942E-01 -3.800154477E-02 8.630003463E-01
 1.314950585E-01 -3.960588202E-02 8.672228157E-01
 1.422474086E-01 -4.097960144E-02 8.722659379E-01
 1.535950005E-01 -4.235458747E-02 8.779908232E-01
 1.659484357E-01 -4.376044869E-02 8.833838734E-01
 1.776874661E-01 -4.501556978E-02 8.889886551E-01
 1.897118539E-01 -4.622880369E-02 8.953947954E-01
 2.005797774E-01 -4.725985974E-02 9.022444458E-01
 2.119873166E-01 -4.827196896E-02 9.077517463E-01
 2.243611664E-01 -4.929328337E-02 9.140292813E-01
 2.372544259E-01 -5.027335882E-02 9.204925712E-01
 2.496431917E-01 -5.114528909E-02 9.312425339E-01
 2.617405951E-01 -5.189979076E-02 9.365653075E-01
 2.728781104E-01 -5.253722519E-02 9.460415971E-01
 2.852990627E-01 -5.314930901E-02 9.525772361E-01
 2.975370586E-01 -5.366640538E-02 9.600619742E-01
 3.104983568E-01 -5.410883203E-02 9.660660211E-01
 3.225027621E-01 -5.443400145E-02 9.768084895E-01
 3.351174891E-01 -5.465613678E-02 9.817900560E-01
 3.462072611E-01 -5.476436764E-02 9.880721978E-01
 3.576430082E-01 -5.476227775E-02 9.845769641E-01
 3.684817553E-01 -5.470025539E-02 9.913593269E-01
 3.791588545E-01 -5.452631041E-02 9.918675120E-01
 3.908142447E-01 -5.422518775E-02 9.799661648E-01
 4.042535722E-01 -5.375839025E-02 9.706615590E-01
 4.168977141E-01 -5.319715291E-02 9.680345793E-01
 4.292817116E-01 -5.249625444E-02 9.528212830E-01
 4.416398406E-01 -5.169166625E-02 9.400335348E-01
 4.533195198E-01 -5.081129819E-02 9.268457875E-01
 4.647991955E-01 -4.984895885E-02 9.115058587E-01
 4.767987430E-01 -4.874864966E-02 8.961405068E-01
 4.881058633E-01 -4.763110355E-02 8.821695482E-01
 5.009547472E-01 -4.627207667E-02 8.654479669E-01
 5.147622824E-01 -4.473000765E-02 8.508809609E-01
 5.280767679E-01 -4.314947873E-02 8.342803313E-01
 5.412251949E-01 -4.152539372E-02 8.184807374E-01
 5.536121726E-01 -3.997502103E-02 8.086438951E-01
 5.669626594E-01 -3.822320327E-02 7.920974773E-01
 5.798771381E-01 -3.653431684E-02 7.833587338E-01
 5.917459726E-01 -3.494463488E-02 7.726531691E-01
 6.042136550E-01 -3.324221820E-02 7.598623082E-01
 6.191077232E-01 -3.122146241E-02 7.502494800E-01
 6.337404847E-01 -2.921211720E-02 7.382432116E-01
 6.490609646E-01 -2.709293552E-02 7.246958134E-01
 6.620285511E-01 -2.535851672E-02 7.200182321E-01
 6.753772497E-01 -2.354272641E-02 7.101469957E-01
 6.877128482E-01 -2.186713368E-02 7.003587699E-01
 7.001762986E-01 -2.023050375E-02 6.962730054E-01
 7.144246697E-01 -1.831250265E-02 6.828462481E-01
 7.278766632E-01 -1.660465077E-02 6.799397167E-01
 7.396830320E-01 -1.507408172E-02 6.696458329E-01
 7.533800006E-01 -1.336152758E-02 6.625229626E-01
 7.654522657E-01 -1.190594956E-02 6.579235831E-01
 7.786283493E-01 -1.031699218E-02 6.487142047E-01
 7.905576825E-01 -8.947597817E-03 6.443940336E-01
 8.031575680E-01 -7.492267527E-03 6.325041257E-01
 8.143398166E-01 -6.317440886E-03 6.311866516E-01
 8.256475329E-01 -5.112665705E-03 6.200611655E-01
 8.390371203E-01 -3.840453690E-03 6.165028841E-01
 8.516677618E-01 -2.704978688E-03 6.096043557E-01
 8.639228940E-01 -1.697800704E-03 6.039180844E-01
 8.753768206E-01 -8.443861734E-04 5.980997594E-01
 8.873675466E-01 -8.011913451E-05 5.947343253E-01
 9.000059962E-01 6.214244640E-04 5.890691983E-01
 9.106153846E-01 1.065319055E-03 5.881697803E-01
 9.209248424E-01 1.410654630E-03 5.858515570E-01
 9.304001331E-01 1.630759332E-03 5.852266599E-01
 9.385955334E-01 1.751926960E-03 5.846221451E-01
 9.498624802E-01 1.808885718E-03 5.849143636E-01
 9.618176222E-01 1.737247105E-03 5.853458910E-01
 9.762887955E-01 1.479888102E-03 5.840478029E-01
 9.886221886E-01 1.086122938E-03 5.790678897E-01
 -5.000000000E-01 -1.000000000E+00 7.237403207E-01
 3.500000000E+00 -1.000000000E+00 7.285807528E-01
 3.500000000E+00 1.000000000E+00 7.082793260E-01
 -5.000000000E-01 1.000000000E+00 7.240454237E-01
 9.944643080E-01 1.701478090E-03 6.074286975E-01
 9.823714793E-01 4.188690451E-03 6.494162277E-01
 9.675544500E-01 7.226513699E-03 6.777348393E-01
 9.515376389E-01 1.052582543E-02 7.022663009E-01
 9.364039600E-01 1.362894801E-02 7.228048554E-01
 9.229020178E-01 1.636719704E-02 7.368703094E-01
 9.112831056E-01 1.872030180E-02 7.506019849E-01
 8.998010159E-01 2.103648987E-02 7.656577523E-01
 8.882495463E-01 2.333793975E-02 7.805913562E-01
 8.764068484E-01 2.564642858E-02 7.970826372E-01
 8.638690710E-01 2.799071651E-02 8.031777140E-01
 8.511554599E-01 3.031621967E-02 8.145505974E-01
 8.395023644E-01 3.241614811E-02 8.255079290E-01
 8.281400800E-01 3.440333717E-02 8.329935315E-01
 8.158754408E-01 3.650441021E-02 8.426225970E-01
 8.031875789E-01 3.862295114E-02 8.508009612E-01
 7.903876007E-01 4.070953652E-02 8.588827682E-01
 7.777840197E-01 4.271917231E-02 8.685463114E-01
 7.657338381E-01 4.459053837E-02 8.730483800E-01
 7.533078492E-01 4.648950323E-02 8.851360933E-01
 7.398210168E-01 4.849983379E-02 8.961789055E-01
 7.275525928E-01 5.026496015E-02 9.012284037E-01
 7.167676687E-01 5.178690888E-02 9.145261631E-01
 7.054248154E-01 5.333502032E-02 9.188363985E-01
 6.928845644E-01 5.498759262E-02 9.254375080E-01
 6.799093485E-01 5.665692315E-02 9.391819305E-01
 6.685470641E-01 5.805516429E-02 9.405802286E-01
 6.578624845E-01 5.932261422E-02 9.504646358E-01
 6.462231576E-01 6.064786948E-02 9.480076784E-01
 6.344041526E-01 6.193031184E-02 9.204317081E-01
 6.228073239E-01 6.313474476E-02 9.405861877E-01
 6.117624342E-01 6.421570107E-02 1.136140813E+00
 6.003026366E-01 6.526789814E-02 1.145984913E+00
 5.884250998E-01 6.627457589E-02 1.122719291E+00
 5.760817230E-01 6.724116206E-02 1.127406648E+00
 5.633502901E-01 6.816882268E-02 1.119582227E+00
 5.513408482E-01 6.895540655E-02 1.113512520E+00
 5.400744081E-01 6.962626055E-02 1.108981104E+00
 5.291910470E-01 7.022029534E-02 1.107830408E+00
 5.175670087E-01 7.078072801E-02 1.094207413E+00
 5.058749318E-01 7.124876231E-02 1.082347376E+00
 4.938125610E-01 7.166212425E-02 1.083489438E+00
 4.805075973E-01 7.203429937E-02 1.070968172E+00
 4.668459743E-01 7.231925055E-02 1.067024429E+00
 4.534882754E-01 7.251743972E-02 1.059759565E+00
 4.406987727E-01 7.262794673E-02 1.054149953E+00
 4.282717109E-01 7.266606763E-02 1.046972629E+00
 4.159018099E-01 7.261972502E-02 1.034289478E+00
 4.037496895E-01 7.251111418E-02 1.034510557E+00
 3.916443586E-01 7.233553380E-02 1.022801276E+00
 3.797784895E-01 7.209060341E-02 1.015606648E+00
 3.675641418E-01 7.177999616E-02 1.013811775E+00
 3.547138572E-01 7.138192281E-02 1.007903647E+00
 3.417386562E-01 7.089682668E-02 1.000087951E+00
 3.296089023E-01 7.037997618E-02 9.967724725E-01
 3.176077604E-01 6.979228929E-02 9.857165501E-01
 3.045841604E-01 6.908689439E-02 9.838578244E-01
 2.911324203E-01 6.827638298E-02 9.781338941E-01
 2.781435251E-01 6.740525365E-02 9.732029020E-01
 2.661556154E-01 6.652324647E-02 9.672088892E-01
 2.540040389E-01 6.554780155E-02 9.589739809E-01
 2.416157126E-01 6.447636709E-02 9.545893543E-01
 2.292348966E-01 6.331821531E-02 9.474777807E-01
 2.170857862E-01 6.209236011E-02 9.402276855E-01
 2.052233666E-01 6.081209332E-02 9.348096416E-01
 1.929932684E-01 5.939584225E-02 9.263927564E-01
 1.808377579E-01 5.789113045E-02 9.210245286E-01
 1.692890003E-01 5.636155978E-02 9.142948044E-01
 1.577222571E-01 5.471529998E-02 9.025205601E-01
 1.464716569E-01 5.301664583E-02 8.955707081E-01
 1.353380755E-01 5.122695677E-02 8.867185451E-01
 1.239398383E-01 4.927247018E-02 8.779132125E-01
 1.130638644E-01 4.727724195E-02 8.680411663E-01
 1.027990989E-01 4.526298679E-02 8.579068953E-01
 9.236960113E-02 4.307071306E-02 8.454266745E-01
 8.114958555E-02 4.052749462E-02 8.295445407E-01
 7.036647946E-02 3.788762353E-02 8.145763027E-01
 6.040304154E-02 3.523436189E-02 7.983701450E-01
 7.167302817E-02 -3.018688224E-02 8.433210605E-01
 8.177223429E-02 -3.204451315E-02 8.467650956E-01
 9.189952537E-02 -3.377540596E-02 8.517386750E-01
 1.026634499E-01 -3.549102880E-02 8.552592053E-01
 1.139914058E-01 -3.718469478E-02 8.607409169E-01
 1.255679764E-01 -3.880371340E-02 8.648944849E-01
 1.368712336E-01 -4.029274173E-02 8.699871828E-01
 1.479212046E-01 -4.166709445E-02 8.749598125E-01
 1.597717181E-01 -4.305751808E-02 8.805659395E-01
 1.718179509E-01 -4.438800924E-02 8.863168480E-01
 1.836996600E-01 -4.562218674E-02 8.918836551E-01
 1.951458156E-01 -4.674433172E-02 8.990695642E-01
 2.062835470E-01 -4.776591435E-02 9.050024090E-01
 2.181742415E-01 -4.878262617E-02 9.106766821E-01
 2.308077961E-01 -4.978332110E-02 9.171028634E-01
 2.434488088E-01 -5.070932396E-02 9.255307649E-01
 2.556918934E-01 -5.152253993E-02 9.346402393E-01
 2.673093528E-01 -5.221850798E-02 9.407146900E-01
 2.790885866E-01 -5.284326710E-02 9.497024897E-01
 2.914180607E-01 -5.340785719E-02 9.561251641E-01
 3.040177077E-01 -5.388761871E-02 9.630498825E-01
 3.165005594E-01 -5.427141674E-02 9.711266573E-01
 3.288101256E-01 -5.454506911E-02 9.798812296E-01
 3.406623751E-01 -5.471025221E-02 9.851120351E-01
 3.519251347E-01 -5.476332270E-02 9.873430008E-01
 3.630623817E-01 -5.473126657E-02 9.861068296E-01
 3.738203049E-01 -5.461328290E-02 9.940473699E-01
 3.849865496E-01 -5.437574908E-02 9.865043438E-01
 3.975339085E-01 -5.399178900E-02 9.739062693E-01
 4.105756432E-01 -5.347777158E-02 9.696476242E-01
 4.230897129E-01 -5.284670368E-02 9.620996051E-01
 4.354607761E-01 -5.209396034E-02 9.452135171E-01
 4.474796802E-01 -5.125148222E-02 9.343031283E-01
 4.590593576E-01 -5.033012852E-02 9.192564391E-01
 4.707989693E-01 -4.929880425E-02 9.035553347E-01
 4.824523032E-01 -4.818987660E-02 8.895072427E-01
 4.945303053E-01 -4.695159011E-02 8.738088842E-01
 5.078585148E-01 -4.550104216E-02 8.579389726E-01
 5.214195251E-01 -4.393974319E-02 8.429075217E-01
 5.346509814E-01 -4.233743623E-02 8.260423481E-01
 5.474186838E-01 -4.075020738E-02 8.132368528E-01
 5.602874160E-01 -3.909911215E-02 8.008725374E-01
 5.734198987E-01 -3.737876005E-02 7.869645164E-01
 5.858115554E-01 -3.573947586E-02 7.784266039E-01
 5.979798138E-01 -3.409342654E-02 7.663101422E-01
 6.116606891E-01 -3.223184031E-02 7.548815748E-01
 6.264241040E-01 -3.021678980E-02 7.445033066E-01
 6.414007246E-01 -2.815252636E-02 7.312778286E-01
 6.555447578E-01 -2.622572612E-02 7.217099711E-01
 6.687029004E-01 -2.445062157E-02 7.155182558E-01
 6.815450490E-01 -2.270493004E-02 7.050452428E-01
 6.939445734E-01 -2.104881871E-02 6.982737045E-01
 7.073004842E-01 -1.927150320E-02 6.898451334E-01
 7.211506665E-01 -1.745857671E-02 6.806912745E-01
 7.337798476E-01 -1.583936624E-02 6.752905845E-01
 7.465315163E-01 -1.421780465E-02 6.659508919E-01
 7.594161332E-01 -1.263373857E-02 6.600310398E-01
 7.720403075E-01 -1.111147087E-02 6.536470414E-01
 7.845930159E-01 -9.632294998E-03 6.463063296E-01
 7.968576252E-01 -8.219932672E-03 6.387516860E-01
 8.087486923E-01 -6.904854206E-03 6.314349118E-01
 8.199936748E-01 -5.715053296E-03 6.259020573E-01
 8.323423266E-01 -4.476559698E-03 6.182288639E-01
 8.453524411E-01 -3.272716189E-03 6.130060120E-01
 8.577953279E-01 -2.201389696E-03 6.068049710E-01
 8.696498573E-01 -1.271093439E-03 6.008380459E-01
 8.813721836E-01 -4.622526540E-04 5.964875424E-01
 8.936867714E-01 2.706526648E-04 5.920697942E-01
 9.053106904E-01 8.433717594E-04 5.880995376E-01
 9.157701135E-01 1.237986842E-03 5.868155115E-01
 9.442290068E-01 1.780406339E-03 5.848508533E-01
 9.558400512E-01 1.773066411E-03 5.850210662E-01
 9.690532088E-01 1.608567603E-03 5.854286541E-01
 9.824554920E-01 1.283005520E-03 5.812341581E-01
 9.944209456E-01 7.985861739E-04 5.804641766E-01
 -5.000000000E-01 9.500000000E-01 7.216709048E-01
 -5.000000000E-01 9.000000000E-01 7.179314047E-01
 -5.000000000E-01 8.500000000E-01 7.150861760E-01
 -5.000000000E-01 8.000000000E-01 7.125521261E-01
 -5.000000000E-01 7.500000000E-01 7.101423893E-01
 -5.000000000E-01 7.000000000E-01 7.078216699E-01
 -5.000000000E-01 6.500000000E-01 7.053948754E-01
 -5.000000000E-01 6.000000000E-01 7.029609534E-01
 -5.000000000E-01 5.500000000E-01 7.004803392E-01
 -5.000000000E-01 5.000000000E-01 6.979158724E-01
 -5.000000000E-01 4.500000000E-01 6.953516861E-01
 -5.000000000E-01 4.000000000E-01 6.928026740E-01
 -5.000000000E-01 3.500000000E-01 6.902965075E-01
 -5.000000000E-01 3.000000000E-01 6.879175391E-01
 -5.000000000E-01 2.500000000E-01 6.857138413E-01
 -5.000000000E-01 2.000000000E-01 6.837740909E-01
 -5.000000000E-01 1.500000000E-01 6.821673269E-01
 -5.000000000E-01 1.000000000E-01 6.809582120E-01
 -5.000000000E-01 5.000000000E-02 6.802849270E-01
 -5.000000000E-01 2.752242878E-12 6.800369206E-01
 -5.000000000E-01 -5.000000000E-02 6.802958215E-01
 -5.000000000E-01 -1.000000000E-01 6.810434767E-01
 -5.000000000E-01 -1.500000000E-01 6.822577088E-01
 -5.000000000E-01 -2.000000000E-01 6.838190500E-01
 -5.000000000E-01 -2.500000000E-01 6.857040437E-01
 -5.000000000E-01 -3.000000000E-01 6.878105707E-01
 -5.000000000E-01 -3.500000000E-01 6.901135887E-01
 -5.000000000E-01 -4.000000000E-01 6.925189106E-01
 -5.000000000E-01 -4.500000000E-01 6.949664474E-01
 -5.000000000E-01 -5.000000000E-01 6.974164512E-01
 -5.000000000E-01 -5.500000000E-01 6.998309488E-01
 -5.000000000E-01 -6.000000000E-01 7.022368342E-01
 -5.000000000E-01 -6.500000000E-01 7.045916981E-01
 -5.000000000E-01 -7.000000000E-01 7.069518240E-01
 -5.000000000E-01 -7.500000000E-01 7.093159774E-01
 -5.000000000E-01 -8.000000000E-01 7.117178509E-01
 -5.000000000E-01 -8.500000000E-01 7.143113793E-01
 -5.000000000E-01 -9.000000000E-01 7.172829125E-01
 -5.000000000E-01 -9.500000000E-01 7.212159118E-01
 -4.500000000E-01 -1.000000000E+00 7.210488343E-01
 -4.000000000E-01 -1.000000000E+00 7.172147456E-01
 -3.500000000E-01 -1.000000000E+00 7.146501219E-01
 -3.000000000E-01 -1.000000000E+00 7.129909865E-01
 -2.500000000E-01 -1.000000000E+00 7.119242135E-01
 -2.000000000E-01 -1.000000000E+00 7.114597254E-01
 -1.500000000E-01 -1.000000000E+00 7.115785432E-01
 -1.000000000E-01 -1.000000000E+00 7.122951676E-01
 -5.000000000E-02 -1.000000000E+00 7.135431076E-01
 -9.424683256E-13 -1.000000000E+00 7.153310658E-01
 5.000000000E-02 -1.000000000E+00 7.175527634E-01
 1.000000000E-01 -1.000000000E+00 7.202039375E-01
 1.500000000E-01 -1.000000000E+00 7.231302235E-01
 2.000000000E-01 -1.000000000E+00 7.261617917E-01
 2.500000000E-01 -1.000000000E+00 7.291736860E-01
 3.000000000E-01 -1.000000000E+00 7.320243360E-01
 3.500000000E-01 -1.000000000E+00 7.345225960E-01
 4.000000000E-01 -1.000000000E+00 7.364584434E-01
 4.500000000E-01 -1.000000000E+00 7.378652027E-01
 5.000000000E-01 -1.000000000E+00 7.385882511E-01
 5.500000000E-01 -1.000000000E+00 7.385907178E-01
 6.000000000E-01 -1.000000000E+00 7.379623200E-01
 6.500000000E-01 -1.000000000E+00 7.368229239E-01
 7.000000000E-01 -1.000000000E+00 7.351027392E-01
 7.500000000E-01 -1.000000000E+00 7.330240900E-01
 8.000000000E-01 -1.000000000E+00 7.307266479E-01
 8.500000000E-01 -1.000000000E+00 7.282749480E-01
 9.000000000E-01 -1.000000000E+00 7.258131359E-01
 9.500000000E-01 -1.000000000E+00 7.233689230E-01
 1.000000000E+00 -1.000000000E+00 7.210605220E-01
 1.050000000E+00 -1.000000000E+00 7.190292094E-01
 1.100000000E+00 -1.000000000E+00 7.172300215E-01
 1.150000000E+00 -1.000000000E+00 7.156673534E-01
 1.200000000E+00 -1.000000000E+00 7.144156437E-01
 1.250000000E+00 -1.000000000E+00 7.134409392E-01
 1.300000000E+00 -1.000000000E+00 7.127258600E-01
 1.350000000E+00 -1.000000000E+00 7.121594756E-01
 1.400000000E+00 -1.000000000E+00 7.118610591E-01
 1.450000000E+00 -1.000000000E+00 7.117857260E-01
 1.500000000E+00 -1.000000000E+00 7.118317003E-01
 1.550000000E+00 -1.000000000E+00 7.120190906E-01
 1.600000000E+00 -1.000000000E+00 7.121944519E-01
 1.650000000E+00 -1.000000000E+00 7.125478923E-01
 1.700000000E+00 -1.000000000E+00 7.129272820E-01
 1.750000000E+00 -1.000000000E+00 7.134322344E-01
 1.800000000E+00 -1.000000000E+00 7.140060790E-01
 1.850000000E+00 -1.000000000E+00 7.145623737E-01
 1.900000000E+00 -1.000000000E+00 7.150775087E-01
 1.950000000E+00 -1.000000000E+00 7.156148372E-01
 2.000000000E+00 -1.000000000E+00 7.161661905E-01
 2.050000000E+00 -1.000000000E+00 7.166895785E-01
 2.100000000E+00 -1.000000000E+00 7.172208372E-01
 2.150000000E+00 -1.000000000E+00 7.177160934E-01
 2.200000000E+00 -1.000000000E+00 7.181825569E-01
 2.250000000E+00 -1.000000000E+00 7.187254137E-01
 2.300000000E+00 -1.000000000E+00 7.191801595E-01
 2.350000000E+00 -1.000000000E+00 7.195709095E-01
 2.400000000E+00 -1.000000000E+00 7.199344456E-01
 2.450000000E+00 -1.000000000E+00 7.203512990E-01
 2.500000000E+00 -1.000000000E+00 7.207489613E-01
 2.550000000E+00 -1.000000000E+00 7.211174053E-01
 2.600000000E+00 -1.000000000E+00 7.214422962E-01
 2.650000000E+00 -1.000000000E+00 7.216877177E-01
 2.700000000E+00 -1.000000000E+00 7.219636027E-01
 2.750000000E+00 -1.000000000E+00 7.222816342E-01
 2.800000000E+00 -1.000000000E+00 7.225334459E-01
 2.850000000E+00 -1.000000000E+00 7.227473328E-01
 2.900000000E+00 -1.000000000E+00 7.229633914E-01
 2.950000000E+00 -1.000000000E+00 7.231624880E-01
 3.000000000E+00 -1.000000000E+00 7.233242835E-01
 3.050000000E+00 -1.000000000E+00 7.235276514E-01
 3.100000000E+00 -1.000000000E+00 7.236693911E-01
 3.150000000E+00 -1.000000000E+00 7.237839094E-01
 3.200000000E+00 -1.000000000E+00 7.239794836E-01
 3.250000000E+00 -1.000000000E+00 7.242048865E-01
 3.300000000E+00 -1.000000000E+00 7.244466013E-01
 3.350000000E+00 -1.000000000E+00 7.247508368E-01
 3.400000000E+00 -1.000000000E+00 7.252093733E-01
 3.450000000E+00 -1.000000000E+00 7.263759347E-01
 3.500000000E+00 -9.500000000E-01 7.299066504E-01
 3.500000000E+00 -9.000000000E-01 7.305662425E-01
 3.500000000E+00 -8.500000000E-01 7.310016393E-01
 3.500000000E+00 -8.000000000E-01 7.313547226E-01
 3.500000000E+00 -7.500000000E-01 7.316465506E-01
 3.500000000E+00 -7.000000000E-01 7.319427573E-01
 3.500000000E+00 -6.500000000E-01 7.322466225E-01
 3.500000000E+00 -6.000000000E-01 7.325519207E-01
 3.500000000E+00 -5.500000000E-01 7.328774452E-01
 3.500000000E+00 -5.000000000E-01 7.332037598E-01
 3.500000000E+00 -4.500000000E-01 7.335474718E-01
 3.500000000E+00 -4.000000000E-01 7.338998618E-01
 3.500000000E+00 -3.500000000E-01 7.342421803E-01
 3.500000000E+00 -3.000000000E-01 7.345921731E-01
 3.500000000E+00 -2.500000000E-01 7.349100648E-01
 3.500000000E+00 -2.000000000E-01 7.351199343E-01
 3.500000000E+00 -1.500000000E-01 7.351993580E-01
 3.500000000E+00 -1.000000000E-01 7.351933934E-01
 3.500000000E+00 -5.000000000E-02 7.351982738E-01
 3.500000000E+00 -2.752242878E-12 7.352168225E-01
 3.500000000E+00 5.000000000E-02 7.352010738E-01
 3.500000000E+00 1.000000000E-01 7.350833954E-01
 3.500000000E+00 1.500000000E-01 7.348221389E-01
 3.500000000E+00 2.000000000E-01 7.344736104E-01
 3.500000000E+00 2.500000000E-01 7.341136246E-01
 3.500000000E+00 3.000000000E-01 7.337696737E-01
 3.500000000E+00 3.500000000E-01 7.334324329E-01
 3.500000000E+00 4.000000000E-01 7.330904475E-01
 3.500000000E+00 4.500000000E-01 7.326964921E-01
 3.500000000E+00 5.000000000E-01 7.322451593E-01
 3.500000000E+00 5.500000000E-01 7.318382971E-01
 3.500000000E+00 6.000000000E-01 7.317163653E-01
 3.500000000E+00 6.500000000E-01 7.320061024E-01
 3.500000000E+00 7.000000000E-01 7.324733859E-01
 3.500000000E+00 7.500000000E-01 7.324604498E-01
 3.500000000E+00 8.000000000E-01 7.310770870E-01
 3.500000000E+00 8.500000000E-01 7.277581930E-01
 3.500000000E+00 9.000000000E-01 7.228977170E-01
 3.500000000E+00 9.500000000E-01 7.167656406E-01
 3.450000000E+00 1.000000000E+00 6.953576987E-01
 3.400000000E+00 1.000000000E+00 6.898388605E-01
 3.350000000E+00 1.000000000E+00 6.888091085E-01
 3.300000000E+00 1.000000000E+00 6.884457244E-01
 3.250000000E+00 1.000000000E+00 6.886539739E-01
 3.200000000E+00 1.000000000E+00 6.889245773E-01
 3.150000000E+00 1.000000000E+00 6.890988729E-01
 3.100000000E+00 1.000000000E+00 6.895325866E-01
 3.050000000E+00 1.000000000E+00 6.899651250E-01
 3.000000000E+00 1.000000000E+00 6.899191704E-01
 2.950000000E+00 1.000000000E+00 6.902130465E-01
 2.900000000E+00 1.000000000E+00 6.903768504E-01
 2.850000000E+00 1.000000000E+00 6.909603185E-01
 2.800000000E+00 1.000000000E+00 6.916085525E-01
 2.750000000E+00 1.000000000E+00 6.920404291E-01
 2.700000000E+00 1.000000000E+00 6.926509060E-01
 2.650000000E+00 1.000000000E+00 6.930485967E-01
 2.600000000E+00 1.000000000E+00 6.932048049E-01
 2.550000000E+00 1.000000000E+00 6.936057850E-01
 2.500000000E+00 1.000000000E+00 6.941336017E-01
 2.450000000E+00 1.000000000E+00 6.944020445E-01
 2.400000000E+00 1.000000000E+00 6.951543491E-01
 2.350000000E+00 1.000000000E+00 6.957258338E-01
 2.300000000E+00 1.000000000E+00 6.962550504E-01
 2.250000000E+00 1.000000000E+00 6.968775485E-01
 2.200000000E+00 1.000000000E+00 6.975404294E-01
 2.150000000E+00 1.000000000E+00 6.978530555E-01
 2.100000000E+00 1.000000000E+00 6.982999274E-01
 2.050000000E+00 1.000000000E+00 6.990159408E-01
 2.000000000E+00 1.000000000E+00 7.000725817E-01
 1.950000000E+00 1.000000000E+00 7.010688175E-01
 1.900000000E+00 1.000000000E+00 7.017962206E-01
 1.850000000E+00 1.000000000E+00 7.026134089E-01
 1.800000000E+00 1.000000000E+00 7.032979450E-01
 1.750000000E+00 1.000000000E+00 7.043862724E-01
 1.700000000E+00 1.000000000E+00 7.054710368E-01
 1.650000000E+00 1.000000000E+00 7.064691694E-01
 1.600000000E+00 1.000000000E+00 7.079302832E-01
 1.550000000E+00 1.000000000E+00 7.106688685E-01
 1.500000000E+00 1.000000000E+00 7.123311326E-01
 1.450000000E+00 1.000000000E+00 7.140890852E-01
 1.400000000E+00 1.000000000E+00 7.168425133E-01
 1.350000000E+00 1.000000000E+00 7.195130426E-01
 1.300000000E+00 1.000000000E+00 7.220334126E-01
 1.250000000E+00 1.000000000E+00 7.248888330E-01
 1.200000000E+00 1.000000000E+00 7.277606919E-01
 1.150000000E+00 1.000000000E+00 7.311702511E-01
 1.100000000E+00 1.000000000E+00 7.353471936E-01
 1.050000000E+00 1.000000000E+00 7.401118745E-01
 1.000000000E+00 1.000000000E+00 7.442182921E-01
 9.500000000E-01 1.000000000E+00 7.481632670E-01
 9.000000000E-01 1.000000000E+00 7.522791561E-01
 8.500000000E-01 1.000000000E+00 7.557875553E-01
 8.000000000E-01 1.000000000E+00 7.593282984E-01
 7.500000000E-01 1.000000000E+00 7.637564459E-01
 7.000000000E-01 1.000000000E+00 7.671249156E-01
 6.500000000E-01 1.000000000E+00 7.686162331E-01
 6.000000000E-01 1.000000000E+00 7.690958000E-01
 5.500000000E-01 1.000000000E+00 7.689599730E-01
 5.000000000E-01 1.000000000E+00 7.683156828E-01
 4.500000000E-01 1.000000000E+00 7.661935182E-01
 4.000000000E-01 1.000000000E+00 7.624124813E-01
 3.500000000E-01 1.000000000E+00 7.571615340E-01
 3.000000000E-01 1.000000000E+00 7.516717153E-01
 2.500000000E-01 1.000000000E+00 7.460813532E-01
 2.000000000E-01 1.000000000E+00 7.402454786E-01
 1.500000000E-01 1.000000000E+00 7.347399785E-01
 1.000000000E-01 1.000000000E+00 7.296004002E-01
 5.000000000E-02 1.000000000E+00 7.250262873E-01
 1.733724275E-12 1.000000000E+00 7.212183914E-01
 -5.000000000E-02 1.000000000E+00 7.182024807E-01
 -1.000000000E-01 1.000000000E+00 7.159994542E-01
 -1.500000000E-01 1.000000000E+00 7.144572584E-01
 -2.000000000E-01 1.000000000E+00 7.136595956E-01
 -2.500000000E-01 1.000000000E+00 7.136629784E-01
 -3.000000000E-01 1.000000000E+00 7.143643441E-01
 -3.500000000E-01 1.000000000E+00 7.157270073E-01
 -4.000000000E-01 1.000000000E+00 7.179719233E-01
 -4.500000000E-01 1.000000000E+00 7.215374985E-01
 9.028505553E-01 -3.861601804E-03 5.917376965E-01
 8.238348169E-01 -9.490077179E-03 6.241967262E-01
 7.505514596E-01 -1.930064092E-02 6.657050449E-01
 6.791283434E-01 -2.818008759E-02 7.082081906E-01
 6.087423351E-01 -3.863837488E-02 7.575396909E-01
 5.382035590E-01 -4.661242067E-02 8.217033534E-01
 9.788998109E-01 -3.300140094E-03 5.867449435E-01
 4.801094348E-01 -5.336538985E-02 8.895988388E-01
 4.264137265E-01 -5.814001257E-02 9.530089053E-01
 3.712263504E-01 -5.928008873E-02 9.881075615E-01
 3.193608583E-01 -5.955076905E-02 9.688605976E-01
 2.588809225E-01 -5.722231367E-02 9.327975371E-01
 1.967623257E-01 -5.196286285E-02 8.976503619E-01
 1.388161963E-01 -4.477545751E-02 8.688214785E-01
 8.829581650E-02 -3.775392238E-02 8.458060110E-01
 5.138413324E-02 -3.335200285E-02 8.171423873E-01