TITLE     = "Visualization of the solution"
VARIABLES = "x"
"y"
"Mach"
ZONE T="Zone"
 STRANDID=0, SOLUTIONTIME=0
 Nodes=12229, Elements=23875, ZONETYPE=FEQuadrilateral
 DATAPACKING=POINT
 DT=(DOUBLE DOUBLE DOUBLE )
 1.000170946E+00 5.017932854E-04 5.557202031E-01
 9.889101386E-01 2.721800469E-03 6.405552608E-01
 9.763243198E-01 5.238797981E-03 6.746939374E-01
 9.590391517E-01 8.602160960E-03 6.968630254E-01
 9.432508945E-01 1.168318372E-02 7.152919546E-01
 9.272497296E-01 1.483163238E-02 7.347695745E-01
 9.153180718E-01 1.715016179E-02 7.469904419E-01
 9.033536315E-01 1.947485469E-02 7.608205761E-01
 8.915203214E-01 2.175210416E-02 7.747276229E-01
 8.793879747E-01 2.403199486E-02 7.847466607E-01
 8.668794036E-01 2.636973001E-02 8.004933007E-01
 8.539685011E-01 2.869728208E-02 8.096607765E-01
 8.409483433E-01 3.098859452E-02 8.185751618E-01
 8.302272558E-01 3.283993527E-02 8.261786097E-01
 8.182991743E-01 3.487960249E-02 8.369204067E-01
 8.052848577E-01 3.703932092E-02 8.448080933E-01
 7.926705480E-01 3.910987452E-02 8.573739546E-01
 7.799019814E-01 4.111809283E-02 8.613901970E-01
 7.678771019E-01 4.300525039E-02 8.743580951E-01
 7.562270761E-01 4.477661103E-02 8.830167063E-01
 7.432010770E-01 4.668728635E-02 8.873305372E-01
 7.295344472E-01 4.865996912E-02 8.980384644E-01
 7.195026278E-01 5.010030046E-02 9.142549100E-01
 7.087330222E-01 5.155550689E-02 9.157445281E-01
 6.974660754E-01 5.305670202E-02 9.247469810E-01
 6.840823889E-01 5.477531999E-02 9.339666042E-01
 6.715164185E-01 5.633017048E-02 9.441788105E-01
 6.622005105E-01 5.743910372E-02 9.485826271E-01
 6.510618925E-01 5.871507525E-02 9.550532003E-01
 6.393909454E-01 6.000352651E-02 9.559871205E-01
 6.279422045E-01 6.120891497E-02 9.388998934E-01
 6.169056296E-01 6.231696904E-02 9.426351950E-01
 6.062139869E-01 6.330977380E-02 1.085592545E+00
 5.937420726E-01 6.441545486E-02 1.144482641E+00
 5.827621818E-01 6.532279402E-02 1.121622267E+00
 5.695852041E-01 6.632498652E-02 1.118552509E+00
 5.577405095E-01 6.713886559E-02 1.114854260E+00
 5.463188291E-01 6.786476076E-02 1.108989700E+00
 5.360234976E-01 6.843271852E-02 1.096986845E+00
 5.250662565E-01 6.897319853E-02 1.098638227E+00
 5.131457448E-01 6.954480708E-02 1.095817588E+00
 5.019941330E-01 6.996542960E-02 1.080460410E+00
 4.891826510E-01 7.038839906E-02 1.076675881E+00
 4.755123854E-01 7.074142992E-02 1.065330354E+00
 4.616115093E-01 7.098745555E-02 1.057584570E+00
 4.484677017E-01 7.116460055E-02 1.051614763E+00
 4.356581271E-01 7.123865187E-02 1.033961887E+00
 4.229286909E-01 7.121597975E-02 1.022711309E+00
 4.105201662E-01 7.114455849E-02 1.022152128E+00
 3.986602724E-01 7.101196051E-02 1.019354522E+00
 3.862913549E-01 7.081045210E-02 1.016661359E+00
 3.750444949E-01 7.056719065E-02 1.011498360E+00
 3.621113300E-01 7.021610439E-02 1.006965982E+00
 3.495091200E-01 6.979977340E-02 9.968806855E-01
 3.360274136E-01 6.925742328E-02 9.859669376E-01
 3.248124123E-01 6.876412779E-02 9.846193399E-01
 3.120181859E-01 6.813666970E-02 9.821082784E-01
 2.985121310E-01 6.737779081E-02 9.746301459E-01
 2.843427062E-01 6.648381799E-02 9.669526647E-01
 2.717299461E-01 6.559908390E-02 9.586162562E-01
 2.595074177E-01 6.467842311E-02 9.532141352E-01
 2.468959540E-01 6.364835799E-02 9.484741163E-01
 2.342292219E-01 6.253268570E-02 9.437576471E-01
 2.216026634E-01 6.131151691E-02 9.343608167E-01
 2.098048776E-01 6.009960547E-02 9.288895277E-01
 1.979778856E-01 5.879333243E-02 9.210125468E-01
 1.853078902E-01 5.730387196E-02 9.153247648E-01
 1.734107137E-01 5.579479411E-02 9.066593206E-01
 1.623356938E-01 5.430461839E-02 8.993823856E-01
 1.504128128E-01 5.259151384E-02 8.919149086E-01
 1.398305148E-01 5.096531659E-02 8.821695999E-01
 1.281648874E-01 4.906395450E-02 8.732141588E-01
 1.168675572E-01 4.708792269E-02 8.625921027E-01
 1.063512638E-01 4.513226822E-02 8.539440903E-01
 9.632853419E-02 4.313810915E-02 8.426611057E-01
 8.535120636E-02 4.079204798E-02 8.277140361E-01
 7.350559533E-02 3.805331513E-02 8.139813087E-01
 6.368063390E-02 3.556745872E-02 7.964937926E-01
 5.349953473E-02 3.277246282E-02 7.759036502E-01
 4.496376589E-02 3.019578382E-02 7.577729961E-01
 3.788800538E-02 2.787195519E-02 7.381432264E-01
 3.156084195E-02 2.560324222E-02 7.152152356E-01
 2.597535215E-02 2.341265418E-02 6.930700776E-01
 2.198269777E-02 2.171312086E-02 6.689525501E-01
 1.807447709E-02 1.990421116E-02 6.445141900E-01
 1.496140566E-02 1.833691634E-02 6.195233559E-01
 1.210808475E-02 1.676736958E-02 5.918735743E-01
 1.000277326E-02 1.550923940E-02 5.641956394E-01
 8.212508634E-03 1.435315609E-02 5.387569922E-01
 6.590695586E-03 1.320284232E-02 5.029304369E-01
 4.443213344E-03 1.150245871E-02 4.488493362E-01
 2.510667546E-03 9.684889577E-03 3.896424285E-01
 9.190538549E-04 7.812906988E-03 2.895035105E-01
 -6.493531400E-04 5.077749491E-03 1.441702760E-01
 -1.187788672E-03 3.110854421E-03 3.000159470E-03
 -1.250262954E-03 1.613358618E-03 1.372156426E-01
 -1.005905215E-03 1.231565111E-04 2.676548764E-01
 -4.954400938E-04 -1.256279415E-03 3.875034574E-01
 5.246659857E-04 -2.939868253E-03 5.012481648E-01
 1.951030572E-03 -4.574552178E-03 5.953194775E-01
 3.908786923E-03 -6.271708757E-03 6.668477782E-01
 5.687869620E-03 -7.517392747E-03 7.160989257E-01
 7.652696688E-03 -8.698118851E-03 7.464428405E-01
 9.259505197E-03 -9.558603168E-03 7.698396645E-01
 1.140307542E-02 -1.059127785E-02 7.858269189E-01
 1.380044501E-02 -1.162845362E-02 7.998743127E-01
 1.719707809E-02 -1.294424664E-02 8.132970259E-01
 2.010751516E-02 -1.395187993E-02 8.250299903E-01
 2.396195009E-02 -1.516721211E-02 8.297199441E-01
 2.953589335E-02 -1.673866436E-02 8.337824771E-01
 3.560159355E-02 -1.825765334E-02 8.379729117E-01
 4.310820252E-02 -1.993480138E-02 8.399943335E-01
 5.097848549E-02 -2.151456103E-02 8.408329619E-01
 6.061691791E-02 -2.326197177E-02 8.409862177E-01
 6.964179128E-02 -2.475177869E-02 8.424193166E-01
 8.010231704E-02 -2.634475753E-02 8.441909532E-01
 9.060965478E-02 -2.782096900E-02 8.451472264E-01
 1.009374857E-01 -2.917173132E-02 8.461363487E-01
 1.124594957E-01 -3.058983758E-02 8.490543902E-01
 1.240292713E-01 -3.191604093E-02 8.515186131E-01
 1.360623688E-01 -3.321225196E-02 8.544225908E-01
 1.469256282E-01 -3.431335092E-02 8.575985619E-01
 1.582288146E-01 -3.539527953E-02 8.604807759E-01
 1.707131863E-01 -3.651994839E-02 8.639711855E-01
 1.826752126E-01 -3.753449023E-02 8.686874151E-01
 1.946978718E-01 -3.848642856E-02 8.725228488E-01
 2.055858821E-01 -3.929635510E-02 8.773868829E-01
 2.168603390E-01 -4.007487372E-02 8.806284836E-01
 2.292662561E-01 -4.087515175E-02 8.860586826E-01
 2.425737828E-01 -4.165539518E-02 8.913068458E-01
 2.550080419E-01 -4.231489450E-02 8.978907963E-01
 2.671844661E-01 -4.287731275E-02 9.007574059E-01
 2.781969905E-01 -4.333747551E-02 9.066642937E-01
 2.907719910E-01 -4.378592968E-02 9.122541884E-01
 3.030273318E-01 -4.413379729E-02 9.153656943E-01
 3.159446418E-01 -4.442926869E-02 9.229650184E-01
 3.276771009E-01 -4.459467530E-02 9.256320619E-01
 3.398294747E-01 -4.468471184E-02 9.288762560E-01
 3.505975306E-01 -4.466988146E-02 9.274846194E-01
 3.617422283E-01 -4.459600151E-02 9.303113777E-01
 3.720491529E-01 -4.444353282E-02 9.311205249E-01
 3.823109269E-01 -4.421559349E-02 9.295139892E-01
 3.934367299E-01 -4.387573153E-02 9.247976991E-01
 4.063286483E-01 -4.336458817E-02 9.175207577E-01
 4.182552397E-01 -4.277625307E-02 9.085679710E-01
 4.303166866E-01 -4.208682850E-02 9.004743779E-01
 4.421754777E-01 -4.130271822E-02 8.902081073E-01
 4.534732997E-01 -4.046103358E-02 8.779803554E-01
 4.645912051E-01 -3.956643492E-02 8.695795046E-01
 4.762545526E-01 -3.851967305E-02 8.537952862E-01
 4.869537354E-01 -3.751327842E-02 8.436781022E-01
 4.994444847E-01 -3.625513613E-02 8.284816053E-01
 5.129032135E-01 -3.483716026E-02 8.148258547E-01
 5.262318850E-01 -3.337678686E-02 8.021925088E-01
 5.395568609E-01 -3.185752034E-02 7.882872301E-01
 5.516174436E-01 -3.045722097E-02 7.772573301E-01
 5.646899343E-01 -2.892700024E-02 7.680500903E-01
 5.770252943E-01 -2.743276581E-02 7.549464528E-01
 5.883643031E-01 -2.607967891E-02 7.484776848E-01
 6.004339457E-01 -2.460836619E-02 7.365968550E-01
 6.153158545E-01 -2.282426506E-02 7.280613935E-01
 6.299484372E-01 -2.107345685E-02 7.185823303E-01
 6.455885768E-01 -1.921698451E-02 7.093396320E-01
 6.585680842E-01 -1.769180782E-02 7.020800183E-01
 6.717607975E-01 -1.614805497E-02 6.943217413E-01
 6.836916208E-01 -1.476090215E-02 6.858015078E-01
 6.961402893E-01 -1.336280443E-02 6.802917026E-01
 7.106767297E-01 -1.176728122E-02 6.739562592E-01
 7.238972187E-01 -1.034080423E-02 6.673026192E-01
 7.361282110E-01 -9.052833542E-03 6.618385208E-01
 7.493135333E-01 -7.679680828E-03 6.540762188E-01
 7.608231306E-01 -6.516885944E-03 6.469264923E-01
 7.741590142E-01 -5.258034915E-03 6.432703211E-01
 7.858449221E-01 -4.184877966E-03 6.381291868E-01
 7.984284163E-01 -3.049562685E-03 6.297217583E-01
 8.096090555E-01 -2.123245038E-03 6.259205346E-01
 8.214108348E-01 -1.187553862E-03 6.196846478E-01
 8.350541592E-01 -2.081112325E-04 6.147858347E-01
 8.477999568E-01 6.224064273E-04 6.090872889E-01
 8.602909446E-01 1.330332481E-03 6.049625033E-01
 8.727713227E-01 1.937554800E-03 6.004773728E-01
 8.853800297E-01 2.426590305E-03 5.972323284E-01
 8.988917470E-01 2.806080272E-03 5.946645630E-01
 9.094829559E-01 2.986223437E-03 5.934827880E-01
 9.199124575E-01 3.067422193E-03 5.932437523E-01
 9.288846850E-01 3.057178343E-03 5.933926542E-01
 9.371109605E-01 2.985985251E-03 5.938888878E-01
 9.482544065E-01 2.794781467E-03 5.954497895E-01
 9.600569606E-01 2.474370413E-03 5.976192237E-01
 9.749338627E-01 1.902928692E-03 6.008861344E-01
 9.881556630E-01 1.267055166E-03 5.983468530E-01
 -5.000000000E-01 -1.000000000E+00 7.242059310E-01
 3.500000000E+00 -1.000000000E+00 7.287513643E-01
 3.500000000E+00 1.000000000E+00 7.088999498E-01
 -5.000000000E-01 1.000000000E+00 7.245956804E-01
 9.945405424E-01 1.611796877E-03 6.121504141E-01
 9.826172292E-01 3.980299225E-03 6.577391068E-01
 9.676817358E-01 6.920479471E-03 6.861161539E-01
 9.511450231E-01 1.014267234E-02 7.061696230E-01
 9.352503121E-01 1.325740805E-02 7.255202381E-01
 9.212839007E-01 1.599089708E-02 7.411514436E-01
 9.093358517E-01 1.831250824E-02 7.537123577E-01
 8.974369764E-01 2.061347943E-02 7.682983801E-01
 8.854541481E-01 2.289204951E-02 7.792573994E-01
 8.731336892E-01 2.520086244E-02 7.930358264E-01
 8.604239523E-01 2.753350604E-02 8.053744461E-01
 8.474584222E-01 2.984293830E-02 8.141581139E-01
 8.355877995E-01 3.191426490E-02 8.221791808E-01
 8.242632151E-01 3.385976888E-02 8.320309233E-01
 8.117920160E-01 3.595946170E-02 8.400462489E-01
 7.989777029E-01 3.807459772E-02 8.522047469E-01
 7.862862647E-01 4.011398368E-02 8.585634360E-01
 7.738895416E-01 4.206167161E-02 8.678902808E-01
 7.620520890E-01 4.389093071E-02 8.794411880E-01
 7.497140765E-01 4.573194869E-02 8.850899263E-01
 7.363677621E-01 4.767362773E-02 8.908604947E-01
 7.245185375E-01 4.938013479E-02 9.083417753E-01
 7.141178250E-01 5.082790367E-02 9.141674378E-01
 7.030995488E-01 5.230610445E-02 9.202739884E-01
 6.907742321E-01 5.391601101E-02 9.291039632E-01
 6.777994037E-01 5.555274524E-02 9.389403647E-01
 6.566312015E-01 5.807708949E-02 9.519018016E-01
 6.452264190E-01 5.935930088E-02 9.573271202E-01
 6.336665750E-01 6.060622074E-02 9.496102751E-01
 6.224239171E-01 6.176294200E-02 9.311457600E-01
 6.115598083E-01 6.281337142E-02 9.970436275E-01
 5.999780297E-01 6.386261433E-02 1.140525305E+00
 5.882521272E-01 6.486912444E-02 1.131374778E+00
 5.761736929E-01 6.582389027E-02 1.119479269E+00
 5.636628568E-01 6.673192605E-02 1.116188784E+00
 5.520296693E-01 6.750181317E-02 1.113562312E+00
 5.411711633E-01 6.814873964E-02 1.102025862E+00
 5.305448771E-01 6.870295852E-02 1.095472581E+00
 5.191060007E-01 6.925900280E-02 1.101532967E+00
 5.075699389E-01 6.975511834E-02 1.085531223E+00
 4.955883920E-01 7.017691433E-02 1.079455819E+00
 4.823475182E-01 7.056491449E-02 1.071650863E+00
 4.685619473E-01 7.086444274E-02 1.059531153E+00
 4.550396055E-01 7.107602805E-02 1.056601864E+00
 4.420629144E-01 7.120162621E-02 1.043213635E+00
 4.292934090E-01 7.122731581E-02 1.026041773E+00
 4.167244285E-01 7.118026912E-02 1.022453763E+00
 4.045902193E-01 7.107825950E-02 1.020922549E+00
 3.924758136E-01 7.091120631E-02 1.018020748E+00
 3.806679249E-01 7.068882138E-02 1.014481495E+00
 3.685779124E-01 7.039164752E-02 1.009169276E+00
 3.558102250E-01 7.000793889E-02 1.003298045E+00
 3.427682668E-01 6.952859834E-02 9.897601417E-01
 3.304199129E-01 6.901077554E-02 9.850289394E-01
 3.184152991E-01 6.845039874E-02 9.842230732E-01
 3.052651584E-01 6.775723025E-02 9.785341030E-01
 2.914274186E-01 6.693080440E-02 9.708702443E-01
 2.780363262E-01 6.604145095E-02 9.622619602E-01
 2.656186819E-01 6.513875350E-02 9.561565302E-01
 2.532016858E-01 6.416339055E-02 9.503147547E-01
 2.405625880E-01 6.309052184E-02 9.471235272E-01
 2.279159427E-01 6.192210130E-02 9.383405263E-01
 2.157037705E-01 6.070556119E-02 9.319149375E-01
 2.038913816E-01 5.944646895E-02 9.247731547E-01
 1.916428879E-01 5.804860219E-02 9.184585249E-01
 1.793593019E-01 5.654933304E-02 9.106784843E-01
 1.678732038E-01 5.504970625E-02 9.034872179E-01
 1.563742533E-01 5.344806612E-02 8.953838800E-01
 1.451216638E-01 5.177841522E-02 8.873832673E-01
 1.339977011E-01 5.001463555E-02 8.778801386E-01
 1.225162223E-01 4.807593860E-02 8.675920587E-01
 1.116094105E-01 4.611009546E-02 8.583573966E-01
 1.013398990E-01 4.413518868E-02 8.489775216E-01
 9.083987027E-02 4.196507856E-02 8.357937815E-01
 7.942840084E-02 3.942268156E-02 8.202019156E-01
 6.859311461E-02 3.681038693E-02 8.056734547E-01
 5.859008431E-02 3.416996077E-02 7.885538075E-01
 7.487205416E-02 -2.554826811E-02 8.434330106E-01
 8.535598591E-02 -2.708286326E-02 8.447437779E-01
 9.577357024E-02 -2.849635016E-02 8.458907103E-01
 1.066984907E-01 -2.988078445E-02 8.471182556E-01
 1.182443835E-01 -3.125293925E-02 8.505495973E-01
 1.300458200E-01 -3.256414644E-02 8.526472509E-01
 1.414939985E-01 -3.376280144E-02 8.563551014E-01
 1.525772214E-01 -3.485431522E-02 8.589418859E-01
 1.644710004E-01 -3.595761396E-02 8.620159584E-01
 1.766941994E-01 -3.702721931E-02 8.663457396E-01
 1.886865422E-01 -3.801045939E-02 8.705876323E-01
 2.001418769E-01 -3.889139183E-02 8.749880184E-01
 2.112231106E-01 -3.968561441E-02 8.791098064E-01
 2.230632976E-01 -4.047501273E-02 8.829964746E-01
 2.359200194E-01 -4.126527347E-02 8.886151871E-01
 2.487909123E-01 -4.198514484E-02 8.946429615E-01
 2.610962540E-01 -4.259610362E-02 8.996939843E-01
 2.726907283E-01 -4.310739413E-02 9.034309186E-01
 2.844844908E-01 -4.356170259E-02 9.094450200E-01
 2.968996614E-01 -4.395986348E-02 9.141018534E-01
 3.094859868E-01 -4.428153299E-02 9.184389764E-01
 3.218108714E-01 -4.451197200E-02 9.254576797E-01
 3.337532878E-01 -4.463969357E-02 9.267012039E-01
 3.452135026E-01 -4.467729665E-02 9.293555731E-01
 3.561698794E-01 -4.463294148E-02 9.278915285E-01
 3.668956906E-01 -4.451976717E-02 9.316235387E-01
 3.771800399E-01 -4.432956316E-02 9.303202062E-01
 3.878738284E-01 -4.404566251E-02 9.277290051E-01
 3.998826891E-01 -4.362015985E-02 9.208478076E-01
 4.122919440E-01 -4.307042062E-02 9.136930713E-01
 4.242859632E-01 -4.243154079E-02 9.041934473E-01
 4.362460822E-01 -4.169477336E-02 8.958172745E-01
 4.478243887E-01 -4.088187590E-02 8.841607878E-01
 4.590322524E-01 -4.001373425E-02 8.737198168E-01
 4.704228789E-01 -3.904305398E-02 8.621448267E-01
 4.816041440E-01 -3.801647574E-02 8.485206946E-01
 4.931991100E-01 -3.688420728E-02 8.364146206E-01
 5.061738491E-01 -3.554614820E-02 8.213914281E-01
 5.195675492E-01 -3.410697356E-02 8.085184818E-01
 5.328943729E-01 -3.261715360E-02 7.952237064E-01
 5.455871522E-01 -3.115737066E-02 7.825605966E-01
 5.581536889E-01 -2.969211061E-02 7.726700146E-01
 5.708576143E-01 -2.817988303E-02 7.615928471E-01
 5.826947987E-01 -2.675622236E-02 7.513068898E-01
 5.943991244E-01 -2.534402255E-02 7.427486584E-01
 6.078749001E-01 -2.371631563E-02 7.322397344E-01
 6.226321459E-01 -2.194886096E-02 7.234345451E-01
 6.377685070E-01 -2.014522068E-02 7.138446137E-01
 6.520783305E-01 -1.845439617E-02 7.055422264E-01
 6.651644409E-01 -1.691993140E-02 6.983552672E-01
 6.777262092E-01 -1.545447856E-02 6.899585533E-01
 6.899159551E-01 -1.406185329E-02 6.828893571E-01
 7.034085095E-01 -1.256504282E-02 6.772963097E-01
 7.172869742E-01 -1.105404273E-02 6.705078628E-01
 7.300127149E-01 -9.696818888E-03 6.645649375E-01
 7.427208722E-01 -8.366257185E-03 6.582235386E-01
 7.550683320E-01 -7.098283386E-03 6.501387689E-01
 7.674910724E-01 -5.887460429E-03 6.451245229E-01
 7.800019681E-01 -4.721456440E-03 6.407892700E-01
 7.921366692E-01 -3.617220325E-03 6.341153226E-01
 8.040187359E-01 -2.586403862E-03 6.274611071E-01
 8.155099452E-01 -1.655399450E-03 6.228576842E-01
 8.282324970E-01 -6.978325473E-04 6.174063754E-01
 8.414270580E-01 2.071475974E-04 6.118756436E-01
 8.540454507E-01 9.763694543E-04 6.068553714E-01
 8.665311337E-01 1.633943641E-03 6.027119978E-01
 8.790756762E-01 2.182072552E-03 5.986864279E-01
 8.921358883E-01 2.616335289E-03 5.961624074E-01
 9.041873515E-01 2.896151855E-03 5.935925228E-01
 9.146977067E-01 3.026822815E-03 5.931886098E-01
 9.426826835E-01 2.890383359E-03 5.948078003E-01
 9.541556835E-01 2.634575940E-03 5.963297087E-01
 9.674954116E-01 2.188649552E-03 5.996384592E-01
 9.815447628E-01 1.584991929E-03 5.994271964E-01
 9.941633046E-01 8.844242257E-04 6.017952166E-01
 -5.000000000E-01 9.500000000E-01 7.224585512E-01
 -5.000000000E-01 9.000000000E-01 7.191253203E-01
 -5.000000000E-01 8.500000000E-01 7.165523932E-01
 -5.000000000E-01 8.000000000E-01 7.142775007E-01
 -5.000000000E-01 7.500000000E-01 7.121162023E-01
 -5.000000000E-01 7.000000000E-01 7.099770100E-01
 -5.000000000E-01 6.500000000E-01 7.077970273E-01
 -5.000000000E-01 6.000000000E-01 7.055674558E-01
 -5.000000000E-01 5.500000000E-01 7.032876449E-01
 -5.000000000E-01 5.000000000E-01 7.009480982E-01
 -5.000000000E-01 4.500000000E-01 6.986386923E-01
 -5.000000000E-01 4.000000000E-01 6.962889842E-01
 -5.000000000E-01 3.500000000E-01 6.939932270E-01
 -5.000000000E-01 3.000000000E-01 6.918291839E-01
 -5.000000000E-01 2.500000000E-01 6.898116480E-01
 -5.000000000E-01 2.000000000E-01 6.880636287E-01
 -5.000000000E-01 1.500000000E-01 6.866197577E-01
 -5.000000000E-01 1.000000000E-01 6.855375279E-01
 -5.000000000E-01 5.000000000E-02 6.849457485E-01
 -5.000000000E-01 2.752242878E-12 6.847372278E-01
 -5.000000000E-01 -5.000000000E-02 6.850024351E-01
 -5.000000000E-01 -1.000000000E-01 6.857025604E-01
 -5.000000000E-01 -1.500000000E-01 6.867811876E-01
 -5.000000000E-01 -2.000000000E-01 6.882248223E-01
 -5.000000000E-01 -2.500000000E-01 6.898924630E-01
 -5.000000000E-01 -3.000000000E-01 6.918091298E-01
 -5.000000000E-01 -3.500000000E-01 6.938824591E-01
 -5.000000000E-01 -4.000000000E-01 6.960140365E-01
 -5.000000000E-01 -4.500000000E-01 6.981972310E-01
 -5.000000000E-01 -5.000000000E-01 7.003920784E-01
 -5.000000000E-01 -5.500000000E-01 7.025693666E-01
 -5.000000000E-01 -6.000000000E-01 7.046945273E-01
 -5.000000000E-01 -6.500000000E-01 7.068261630E-01
 -5.000000000E-01 -7.000000000E-01 7.089382372E-01
 -5.000000000E-01 -7.500000000E-01 7.110790442E-01
 -5.000000000E-01 -8.000000000E-01 7.132512379E-01
 -5.000000000E-01 -8.500000000E-01 7.156117257E-01
 -5.000000000E-01 -9.000000000E-01 7.183123924E-01
 -5.000000000E-01 -9.500000000E-01 7.219108469E-01
 -4.500000000E-01 -1.000000000E+00 7.217526970E-01
 -4.000000000E-01 -1.000000000E+00 7.182453965E-01
 -3.500000000E-01 -1.000000000E+00 7.158725837E-01
 -3.000000000E-01 -1.000000000E+00 7.142949518E-01
 -2.500000000E-01 -1.000000000E+00 7.132449164E-01
 -2.000000000E-01 -1.000000000E+00 7.126591271E-01
 -1.500000000E-01 -1.000000000E+00 7.126311264E-01
 -1.000000000E-01 -1.000000000E+00 7.130266422E-01
 -5.000000000E-02 -1.000000000E+00 7.139098595E-01
 -9.424683256E-13 -1.000000000E+00 7.153326271E-01
 5.000000000E-02 -1.000000000E+00 7.170335974E-01
 1.000000000E-01 -1.000000000E+00 7.190166911E-01
 1.500000000E-01 -1.000000000E+00 7.211291214E-01
 2.000000000E-01 -1.000000000E+00 7.233261290E-01
 2.500000000E-01 -1.000000000E+00 7.254836924E-01
 3.000000000E-01 -1.000000000E+00 7.275041661E-01
 3.500000000E-01 -1.000000000E+00 7.292339351E-01
 4.000000000E-01 -1.000000000E+00 7.304884610E-01
 4.500000000E-01 -1.000000000E+00 7.312653610E-01
 5.000000000E-01 -1.000000000E+00 7.315209041E-01
 5.500000000E-01 -1.000000000E+00 7.312125133E-01
 6.000000000E-01 -1.000000000E+00 7.303794067E-01
 6.500000000E-01 -1.000000000E+00 7.290956422E-01
 7.000000000E-01 -1.000000000E+00 7.274597801E-01
 7.500000000E-01 -1.000000000E+00 7.255455403E-01
 8.000000000E-01 -1.000000000E+00 7.235006432E-01
 8.500000000E-01 -1.000000000E+00 7.213875022E-01
 9.000000000E-01 -1.000000000E+00 7.192430268E-01
 9.500000000E-01 -1.000000000E+00 7.172459937E-01
 1.000000000E+00 -1.000000000E+00 7.154053326E-01
 1.050000000E+00 -1.000000000E+00 7.137893058E-01
 1.100000000E+00 -1.000000000E+00 7.124381955E-01
 1.150000000E+00 -1.000000000E+00 7.113379901E-01
 1.200000000E+00 -1.000000000E+00 7.104879262E-01
 1.250000000E+00 -1.000000000E+00 7.098940350E-01
 1.300000000E+00 -1.000000000E+00 7.095174101E-01
 1.350000000E+00 -1.000000000E+00 7.093333894E-01
 1.400000000E+00 -1.000000000E+00 7.093039805E-01
 1.450000000E+00 -1.000000000E+00 7.094374779E-01
 1.500000000E+00 -1.000000000E+00 7.097184384E-01
 1.550000000E+00 -1.000000000E+00 7.100852568E-01
 1.600000000E+00 -1.000000000E+00 7.105214904E-01
 1.650000000E+00 -1.000000000E+00 7.110325399E-01
 1.700000000E+00 -1.000000000E+00 7.115985070E-01
 1.750000000E+00 -1.000000000E+00 7.122150444E-01
 1.800000000E+00 -1.000000000E+00 7.128396449E-01
 1.850000000E+00 -1.000000000E+00 7.134416340E-01
 1.900000000E+00 -1.000000000E+00 7.140655773E-01
 1.950000000E+00 -1.000000000E+00 7.147397223E-01
 2.000000000E+00 -1.000000000E+00 7.154027486E-01
 2.050000000E+00 -1.000000000E+00 7.159813226E-01
 2.100000000E+00 -1.000000000E+00 7.165632043E-01
 2.150000000E+00 -1.000000000E+00 7.171254618E-01
 2.200000000E+00 -1.000000000E+00 7.176818821E-01
 2.250000000E+00 -1.000000000E+00 7.182327080E-01
 2.300000000E+00 -1.000000000E+00 7.187272818E-01
 2.350000000E+00 -1.000000000E+00 7.191978700E-01
 2.400000000E+00 -1.000000000E+00 7.196707938E-01
 2.450000000E+00 -1.000000000E+00 7.201377378E-01
 2.500000000E+00 -1.000000000E+00 7.205499339E-01
 2.550000000E+00 -1.000000000E+00 7.209816838E-01
 2.600000000E+00 -1.000000000E+00 7.213514490E-01
 2.650000000E+00 -1.000000000E+00 7.216466614E-01
 2.700000000E+00 -1.000000000E+00 7.219527862E-01
 2.750000000E+00 -1.000000000E+00 7.222822470E-01
 2.800000000E+00 -1.000000000E+00 7.225573108E-01
 2.850000000E+00 -1.000000000E+00 7.228445200E-01
 2.900000000E+00 -1.000000000E+00 7.230809708E-01
 2.950000000E+00 -1.000000000E+00 7.232912696E-01
 3.000000000E+00 -1.000000000E+00 7.234932740E-01
 3.050000000E+00 -1.000000000E+00 7.236873173E-01
 3.100000000E+00 -1.000000000E+00 7.238845698E-01
 3.150000000E+00 -1.000000000E+00 7.240648673E-01
 3.200000000E+00 -1.000000000E+00 7.243059548E-01
 3.250000000E+00 -1.000000000E+00 7.245222210E-01
 3.300000000E+00 -1.000000000E+00 7.247779743E-01
 3.350000000E+00 -1.000000000E+00 7.251364210E-01
 3.400000000E+00 -1.000000000E+00 7.256648352E-01
 3.450000000E+00 -1.000000000E+00 7.267943054E-01
 3.500000000E+00 -9.500000000E-01 7.298733963E-01
 3.500000000E+00 -9.000000000E-01 7.304163834E-01
 3.500000000E+00 -8.500000000E-01 7.308136309E-01
 3.500000000E+00 -8.000000000E-01 7.311421191E-01
 3.500000000E+00 -7.500000000E-01 7.314297739E-01
 3.500000000E+00 -7.000000000E-01 7.317024490E-01
 3.500000000E+00 -6.500000000E-01 7.319734880E-01
 3.500000000E+00 -6.000000000E-01 7.322519094E-01
 3.500000000E+00 -5.500000000E-01 7.325423346E-01
 3.500000000E+00 -5.000000000E-01 7.328401520E-01
 3.500000000E+00 -4.500000000E-01 7.331262552E-01
 3.500000000E+00 -4.000000000E-01 7.334318165E-01
 3.500000000E+00 -3.500000000E-01 7.337414150E-01
 3.500000000E+00 -3.000000000E-01 7.340383670E-01
 3.500000000E+00 -2.500000000E-01 7.343161660E-01
 3.500000000E+00 -2.000000000E-01 7.345119047E-01
 3.500000000E+00 -1.500000000E-01 7.345856994E-01
 3.500000000E+00 -1.000000000E-01 7.345812489E-01
 3.500000000E+00 -5.000000000E-02 7.345573762E-01
 3.500000000E+00 -2.752242878E-12 7.345557019E-01
 3.500000000E+00 5.000000000E-02 7.345410833E-01
 3.500000000E+00 1.000000000E-01 7.344429590E-01
 3.500000000E+00 1.500000000E-01 7.342097966E-01
 3.500000000E+00 2.000000000E-01 7.339006785E-01
 3.500000000E+00 2.500000000E-01 7.335590429E-01
 3.500000000E+00 3.000000000E-01 7.332360913E-01
 3.500000000E+00 3.500000000E-01 7.329411180E-01
 3.500000000E+00 4.000000000E-01 7.326529848E-01
 3.500000000E+00 4.500000000E-01 7.323042752E-01
 3.500000000E+00 5.000000000E-01 7.318664775E-01
 3.500000000E+00 5.500000000E-01 7.314885825E-01
 3.500000000E+00 6.000000000E-01 7.314054666E-01
 3.500000000E+00 6.500000000E-01 7.317799314E-01
 3.500000000E+00 7.000000000E-01 7.322498908E-01
 3.500000000E+00 7.500000000E-01 7.322536297E-01
 3.500000000E+00 8.000000000E-01 7.304903515E-01
 3.500000000E+00 8.500000000E-01 7.268675041E-01
 3.500000000E+00 9.000000000E-01 7.222032986E-01
 3.500000000E+00 9.500000000E-01 7.165822057E-01
 3.450000000E+00 1.000000000E+00 6.971443077E-01
 3.400000000E+00 1.000000000E+00 6.913964331E-01
 3.350000000E+00 1.000000000E+00 6.901365486E-01
 3.300000000E+00 1.000000000E+00 6.896274302E-01
 3.250000000E+00 1.000000000E+00 6.895746396E-01
 3.200000000E+00 1.000000000E+00 6.897531727E-01
 3.150000000E+00 1.000000000E+00 6.901559453E-01
 3.100000000E+00 1.000000000E+00 6.902007743E-01
 3.050000000E+00 1.000000000E+00 6.905749605E-01
 3.000000000E+00 1.000000000E+00 6.908455123E-01
 2.950000000E+00 1.000000000E+00 6.913213401E-01
 2.900000000E+00 1.000000000E+00 6.919131657E-01
 2.850000000E+00 1.000000000E+00 6.920322397E-01
 2.800000000E+00 1.000000000E+00 6.924858270E-01
 2.750000000E+00 1.000000000E+00 6.929714224E-01
 2.700000000E+00 1.000000000E+00 6.936488569E-01
 2.650000000E+00 1.000000000E+00 6.942479069E-01
 2.600000000E+00 1.000000000E+00 6.946674051E-01
 2.550000000E+00 1.000000000E+00 6.954713792E-01
 2.500000000E+00 1.000000000E+00 6.962044797E-01
 2.450000000E+00 1.000000000E+00 6.966203462E-01
 2.400000000E+00 1.000000000E+00 6.965482722E-01
 2.350000000E+00 1.000000000E+00 6.969032977E-01
 2.300000000E+00 1.000000000E+00 6.975918934E-01
 2.250000000E+00 1.000000000E+00 6.981041106E-01
 2.200000000E+00 1.000000000E+00 6.990488768E-01
 2.150000000E+00 1.000000000E+00 6.997994508E-01
 2.100000000E+00 1.000000000E+00 7.004478410E-01
 2.050000000E+00 1.000000000E+00 7.009709647E-01
 2.000000000E+00 1.000000000E+00 7.013716840E-01
 1.950000000E+00 1.000000000E+00 7.021077832E-01
 1.900000000E+00 1.000000000E+00 7.030276293E-01
 1.850000000E+00 1.000000000E+00 7.042206573E-01
 1.800000000E+00 1.000000000E+00 7.049049539E-01
 1.750000000E+00 1.000000000E+00 7.061280224E-01
 1.700000000E+00 1.000000000E+00 7.074091845E-01
 1.650000000E+00 1.000000000E+00 7.084544066E-01
 1.600000000E+00 1.000000000E+00 7.091105266E-01
 1.550000000E+00 1.000000000E+00 7.109908801E-01
 1.500000000E+00 1.000000000E+00 7.133692113E-01
 1.450000000E+00 1.000000000E+00 7.145455384E-01
 1.400000000E+00 1.000000000E+00 7.171588955E-01
 1.350000000E+00 1.000000000E+00 7.198923293E-01
 1.300000000E+00 1.000000000E+00 7.225288902E-01
 1.250000000E+00 1.000000000E+00 7.252425335E-01
 1.200000000E+00 1.000000000E+00 7.283463513E-01
 1.150000000E+00 1.000000000E+00 7.328760660E-01
 1.100000000E+00 1.000000000E+00 7.368505498E-01
 1.050000000E+00 1.000000000E+00 7.405167812E-01
 1.000000000E+00 1.000000000E+00 7.438376579E-01
 9.500000000E-01 1.000000000E+00 7.485382394E-01
 9.000000000E-01 1.000000000E+00 7.526401684E-01
 8.500000000E-01 1.000000000E+00 7.572036926E-01
 8.000000000E-01 1.000000000E+00 7.615788683E-01
 7.500000000E-01 1.000000000E+00 7.660567362E-01
 7.000000000E-01 1.000000000E+00 7.679137829E-01
 6.500000000E-01 1.000000000E+00 7.698732431E-01
 6.000000000E-01 1.000000000E+00 7.704124036E-01
 5.500000000E-01 1.000000000E+00 7.707669180E-01
 5.000000000E-01 1.000000000E+00 7.694195351E-01
 4.500000000E-01 1.000000000E+00 7.653545453E-01
 4.000000000E-01 1.000000000E+00 7.615076558E-01
 3.500000000E-01 1.000000000E+00 7.575646128E-01
 3.000000000E-01 1.000000000E+00 7.522965433E-01
 2.500000000E-01 1.000000000E+00 7.466370287E-01
 2.000000000E-01 1.000000000E+00 7.413530152E-01
 1.500000000E-01 1.000000000E+00 7.362787416E-01
 1.000000000E-01 1.000000000E+00 7.311678583E-01
 5.000000000E-02 1.000000000E+00 7.267290420E-01
 1.733724275E-12 1.000000000E+00 7.230190523E-01
 -5.000000000E-02 1.000000000E+00 7.200631751E-01
 -1.000000000E-01 1.000000000E+00 7.178453682E-01
 -1.500000000E-01 1.000000000E+00 7.163420471E-01
 -2.000000000E-01 1.000000000E+00 7.155337012E-01
 -2.500000000E-01 1.000000000E+00 7.154345258E-01
 -3.000000000E-01 1.000000000E+00 7.159875408E-01
 -3.500000000E-01 1.000000000E+00 7.171847589E-01
 -4.000000000E-01 1.000000000E+00 7.191712190E-01
 -4.500000000E-01 1.000000000E+00 7.223324084E-01
 9.842175474E-01 -3.855163015E-03 6.046783938E-01
 8.881542923E-01 -3.052058349E-03 6.002301968E-01
 8.070634852E-01 -7.485055456E-03 6.287147779E-01
 7.336398139E-01 -1.515075692E-02 6.643330761E-01
 6.623644738E-01 -2.400070557E-02 7.012501654E-01
 5.922179125E-01 -3.058597712E-02 7.458024915E-01
 5.301128561E-01 -3.836620714E-02 7.979716043E-01
 4.680555550E-01 -4.422478043E-02 8.635760770E-01
 4.095650527E-01 -4.838186996E-02 9.121260502E-01
 3.541876055E-01 -4.927204468E-02 9.251430115E-01
 2.927310897E-01 -4.879730545E-02 9.107229747E-01
 2.322969434E-01 -4.658676164E-02 8.856183333E-01
 1.668835082E-01 -4.195080541E-02 8.610355591E-01
 1.091588644E-01 -3.488595287E-02 8.455602647E-01
 5.447108553E-02 -2.970566466E-02 8.297760492E-01
 1.970406089E+00 -9.576036698E-01 7.162007758E-01
 1.971492896E+00 9.550180875E-01 7.121274128E-01