TITLE     = "Visualization of the solution"
VARIABLES = "x"
"y"
"Mach"
ZONE T="Zone"
 STRANDID=0, SOLUTIONTIME=0
 Nodes=12326, Elements=24069, ZONETYPE=FEQuadrilateral
 DATAPACKING=POINT
 DT=(DOUBLE DOUBLE DOUBLE )
 1.000227451E+00 5.262964987E-04 5.413281540E-01
 9.889211655E-01 2.732431516E-03 6.485465312E-01
 9.773117304E-01 4.917057231E-03 6.749769572E-01
 9.637520313E-01 7.504934911E-03 7.026098662E-01
 9.501811266E-01 1.001948584E-02 7.188495453E-01
 9.371146560E-01 1.245343871E-02 7.347845807E-01
 9.264338017E-01 1.449165028E-02 7.599636657E-01
 9.141033292E-01 1.669145934E-02 7.693720682E-01
 9.029107094E-01 1.868616790E-02 7.880103346E-01
 8.907567859E-01 2.072182298E-02 7.951464039E-01
 8.787857890E-01 2.271571383E-02 8.144470827E-01
 8.664705753E-01 2.458350360E-02 8.121079027E-01
 8.536484241E-01 2.652957290E-02 8.220184806E-01
 8.420293927E-01 2.822852321E-02 8.270466878E-01
 8.302385807E-01 2.993166633E-02 8.365051260E-01
 8.170184493E-01 3.176180273E-02 8.407448996E-01
 8.037127852E-01 3.356340900E-02 8.467798342E-01
 7.915326953E-01 3.518728539E-02 8.551740375E-01
 7.789273262E-01 3.681680933E-02 8.614781398E-01
 7.665526271E-01 3.837052360E-02 8.669070622E-01
 7.530899048E-01 4.001393542E-02 8.716052674E-01
 7.386701703E-01 4.173829406E-02 8.785655433E-01
 7.276476026E-01 4.303741083E-02 8.883882868E-01
 7.165279984E-01 4.431124404E-02 8.957310812E-01
 7.045862675E-01 4.562304541E-02 8.990212373E-01
 6.905379295E-01 4.713141173E-02 9.072066746E-01
 6.772025824E-01 4.852628708E-02 9.190887588E-01
 6.670823097E-01 4.953740910E-02 9.258592370E-01
 6.554942131E-01 5.065808818E-02 9.333929708E-01
 6.439803839E-01 5.170827731E-02 9.370331141E-01
 6.318683028E-01 5.279101804E-02 9.510699981E-01
 6.206104755E-01 5.373396724E-02 9.572540206E-01
 6.094262600E-01 5.460438877E-02 9.573852348E-01
 5.963789821E-01 5.558754504E-02 9.713047466E-01
 5.844083428E-01 5.643483996E-02 9.841327113E-01
 5.705327392E-01 5.731458589E-02 9.903356765E-01
 5.576354861E-01 5.804729462E-02 9.928465642E-01
 5.450285673E-01 5.869225785E-02 1.000316815E+00
 5.340825915E-01 5.921018124E-02 1.007197787E+00
 5.221831799E-01 5.968806520E-02 1.005540132E+00
 5.092272162E-01 6.014188007E-02 1.013680440E+00
 4.981311560E-01 6.047401950E-02 1.019970135E+00
 4.848367274E-01 6.079651415E-02 1.018219380E+00
 4.716418982E-01 6.101370975E-02 1.006048145E+00
 4.570059776E-01 6.116309762E-02 1.002819577E+00
 4.432733059E-01 6.123724952E-02 1.004426173E+00
 4.301417172E-01 6.121496484E-02 9.977167160E-01
 4.171337485E-01 6.111726910E-02 9.907306097E-01
 4.048289657E-01 6.095405295E-02 9.853674465E-01
 3.925355077E-01 6.074105576E-02 9.829851269E-01
 3.802702129E-01 6.044505164E-02 9.737214609E-01
 3.691501617E-01 6.013128534E-02 9.692661562E-01
 3.561865091E-01 5.970819667E-02 9.654606024E-01
 3.440219462E-01 5.923563242E-02 9.580311070E-01
 3.315664232E-01 5.869949609E-02 9.552388039E-01
 3.208509088E-01 5.817988515E-02 9.480548107E-01
 3.083704412E-01 5.751507357E-02 9.416573475E-01
 2.952429354E-01 5.676132441E-02 9.385902993E-01
 2.813664377E-01 5.587279052E-02 9.317624803E-01
 2.684983313E-01 5.496711284E-02 9.236903028E-01
 2.565020323E-01 5.407569930E-02 9.200218280E-01
 2.437554747E-01 5.305189639E-02 9.132332379E-01
 2.308781594E-01 5.194149166E-02 9.057203964E-01
 2.186297625E-01 5.083099380E-02 9.024129463E-01
 2.069062889E-01 4.969860613E-02 8.977666792E-01
 1.956245750E-01 4.852916673E-02 8.890548740E-01
 1.832640320E-01 4.719573259E-02 8.848184634E-01
 1.711662859E-01 4.580451176E-02 8.783488717E-01
 1.597333997E-01 4.441927001E-02 8.719367179E-01
 1.475604475E-01 4.286179319E-02 8.663667705E-01
 1.368409395E-01 4.141662642E-02 8.609288193E-01
 1.252583712E-01 3.975923359E-02 8.530199799E-01
 1.135711670E-01 3.799367696E-02 8.475003576E-01
 1.030012071E-01 3.629397601E-02 8.388834245E-01
 9.313005209E-02 3.462186828E-02 8.342430820E-01
 8.176264167E-02 3.256737068E-02 8.251408464E-01
 6.959125400E-02 3.018713184E-02 8.159128679E-01
 5.963129178E-02 2.807822637E-02 8.068160599E-01
 4.972336814E-02 2.579628490E-02 7.928113963E-01
 4.091008008E-02 2.357326075E-02 7.834036079E-01
 3.354158625E-02 2.153030597E-02 7.720913436E-01
 2.710533701E-02 1.955811493E-02 7.578041708E-01
 2.171217278E-02 1.773176901E-02 7.442886567E-01
 1.789397933E-02 1.631435379E-02 7.291926694E-01
 1.434373017E-02 1.486340445E-02 7.137512514E-01
 1.180585753E-02 1.372434944E-02 6.971725690E-01
 9.508830495E-03 1.259623002E-02 6.791819995E-01
 7.810214534E-03 1.168681681E-02 6.621473690E-01
 6.290788762E-03 1.080389228E-02 6.445049895E-01
 4.883924965E-03 9.910378605E-03 6.165516513E-01
 3.018165473E-03 8.569155820E-03 5.705926497E-01
 1.409302349E-03 7.193306927E-03 5.180534932E-01
 5.553482424E-06 5.694543943E-03 4.294496923E-01
 -1.297850278E-03 3.724627197E-03 3.083105381E-01
 -1.910785562E-03 2.152052475E-03 1.826350732E-01
 -2.136336174E-03 9.159356123E-04 5.573786357E-02
 -2.109745052E-03 -5.254368880E-04 7.156511091E-02
 -1.738533378E-03 -2.115583746E-03 1.926607786E-01
 -8.855212945E-04 -3.932299092E-03 3.161728197E-01
 5.307222600E-04 -5.882599857E-03 4.249668504E-01
 2.553342842E-03 -7.908023894E-03 5.143757215E-01
 4.338313825E-03 -9.348854423E-03 5.736842467E-01
 6.457672920E-03 -1.082129963E-02 6.134896436E-01
 8.010467514E-03 -1.177882124E-02 6.456489610E-01
 9.987649508E-03 -1.289540995E-02 6.698257772E-01
 1.232973952E-02 -1.409785263E-02 6.926101862E-01
 1.551560778E-02 -1.557368692E-02 7.155311479E-01
 1.854319125E-02 -1.684413292E-02 7.372746868E-01
 2.247768268E-02 -1.834647171E-02 7.522937366E-01
 2.786494046E-02 -2.020214871E-02 7.682572985E-01
 3.354955092E-02 -2.196045406E-02 7.835355457E-01
 4.100148752E-02 -2.402811125E-02 7.952148902E-01
 4.850518703E-02 -2.591576800E-02 8.060912551E-01
 5.744444951E-02 -2.796784788E-02 8.149889599E-01
 6.611470878E-02 -2.977607399E-02 8.219264559E-01
 7.641684264E-02 -3.177546337E-02 8.292461312E-01
 8.642132580E-02 -3.356658667E-02 8.355139018E-01
 9.673369676E-02 -3.528848663E-02 8.409108881E-01
 1.074279919E-01 -3.696047142E-02 8.459012034E-01
 1.186924353E-01 -3.861881420E-02 8.521629415E-01
 1.300556213E-01 -4.019143432E-02 8.580263613E-01
 1.406751126E-01 -4.158202559E-02 8.641874016E-01
 1.515717953E-01 -4.293252900E-02 8.698197772E-01
 1.635482311E-01 -4.433169588E-02 8.757410964E-01
 1.753019094E-01 -4.562701285E-02 8.819539569E-01
 1.871401817E-01 -4.685761034E-02 8.886921535E-01
 1.977766752E-01 -4.790572077E-02 8.972682024E-01
 2.089787424E-01 -4.892931134E-02 9.010495633E-01
 2.214392573E-01 -5.001185462E-02 9.110162339E-01
 2.340868264E-01 -5.101187155E-02 9.184029666E-01
 2.466138452E-01 -5.191925913E-02 9.253280286E-01
 2.594849467E-01 -5.276882648E-02 9.341725292E-01
 2.705830932E-01 -5.342695490E-02 9.426800721E-01
 2.836748362E-01 -5.411855131E-02 9.518889012E-01
 2.964697778E-01 -5.468407646E-02 9.595881509E-01
 3.092034757E-01 -5.516031384E-02 9.707552489E-01
 3.209324479E-01 -5.549324304E-02 9.794068178E-01
 3.334585726E-01 -5.574560165E-02 9.843361469E-01
 3.441682458E-01 -5.587244034E-02 9.905507699E-01
 3.553980291E-01 -5.591876060E-02 9.950218839E-01
 3.663613796E-01 -5.586696044E-02 9.962670749E-01
 3.769833446E-01 -5.573853105E-02 9.997660074E-01
 3.882884681E-01 -5.549901351E-02 1.001733692E+00
 4.008821547E-01 -5.507275462E-02 9.840703836E-01
 4.131216407E-01 -5.457954481E-02 9.805433386E-01
 4.263007045E-01 -5.387495458E-02 9.695090006E-01
 4.391507208E-01 -5.304431915E-02 9.509875372E-01
 4.516608417E-01 -5.212678760E-02 9.400389257E-01
 4.637078345E-01 -5.109551176E-02 9.190991854E-01
 4.762235284E-01 -4.995728657E-02 9.077061412E-01
 4.875079393E-01 -4.881400615E-02 8.903551244E-01
 5.000440478E-01 -4.748817161E-02 8.781965146E-01
 5.137393475E-01 -4.589639232E-02 8.568616962E-01
 5.275560021E-01 -4.423239082E-02 8.424666236E-01
 5.410361886E-01 -4.251370579E-02 8.242592373E-01
 5.546616316E-01 -4.074675590E-02 8.125334068E-01
 5.674568415E-01 -3.901432082E-02 7.967604229E-01
 5.807636976E-01 -3.719703853E-02 7.847454680E-01
 5.926359892E-01 -3.554847464E-02 7.730361470E-01
 6.048000455E-01 -3.385743871E-02 7.639294402E-01
 6.183583140E-01 -3.194039688E-02 7.512649834E-01
 6.326881051E-01 -2.991004288E-02 7.391848889E-01
 6.468548179E-01 -2.792272530E-02 7.302061542E-01
 6.601379514E-01 -2.605806850E-02 7.204548716E-01
 6.738380194E-01 -2.416253462E-02 7.130956973E-01
 6.863829494E-01 -2.241521887E-02 7.030874663E-01
 6.988382339E-01 -2.072131261E-02 6.973843240E-01
 7.130627036E-01 -1.876205020E-02 6.852351159E-01
 7.260696292E-01 -1.704105362E-02 6.794317536E-01
 7.378281355E-01 -1.549948193E-02 6.717506182E-01
 7.501993179E-01 -1.391294226E-02 6.648157000E-01
 7.627040744E-01 -1.234319992E-02 6.571835024E-01
 7.755790353E-01 -1.079471502E-02 6.521907163E-01
 7.874566317E-01 -9.393567219E-03 6.458153756E-01
 7.998309135E-01 -7.950100116E-03 6.359459652E-01
 8.113264441E-01 -6.723145023E-03 6.341228549E-01
 8.225302100E-01 -5.506623536E-03 6.234350465E-01
 8.353124857E-01 -4.267330281E-03 6.208277739E-01
 8.473787904E-01 -3.132401966E-03 6.120971283E-01
 8.594686985E-01 -2.106596716E-03 6.065269791E-01
 8.719555736E-01 -1.182405627E-03 6.038315589E-01
 8.839364052E-01 -3.699456574E-04 5.974039296E-01
 8.975453973E-01 3.716463689E-04 5.950412538E-01
 9.077032208E-01 8.245467325E-04 5.922888970E-01
 9.179174900E-01 1.174483448E-03 5.915926969E-01
 9.270932078E-01 1.409277902E-03 5.912594193E-01
 9.360746741E-01 1.557326526E-03 5.913398667E-01
 9.479849935E-01 1.643426600E-03 5.920528448E-01
 9.613618851E-01 1.588645740E-03 5.931232821E-01
 9.763703346E-01 1.348328660E-03 5.931998740E-01
 9.889746904E-01 9.793480858E-04 5.918168205E-01
 -5.000000000E-01 -1.000000000E+00 7.244091391E-01
 3.500000000E+00 -1.000000000E+00 7.282984494E-01
 3.500000000E+00 1.000000000E+00 7.136724331E-01
 -5.000000000E-01 1.000000000E+00 7.247973287E-01
 9.945743084E-01 1.629364007E-03 6.243624534E-01
 9.831164479E-01 3.824744374E-03 6.625533268E-01
 9.705318809E-01 6.210996071E-03 6.895233751E-01
 9.569665790E-01 8.762210375E-03 7.111748142E-01
 9.436478913E-01 1.123646228E-02 7.262929429E-01
 9.317742288E-01 1.347254450E-02 7.487409702E-01
 9.202685654E-01 1.559155481E-02 7.640416608E-01
 9.085070193E-01 1.768881362E-02 7.797158537E-01
 8.968337476E-01 1.970399544E-02 7.906310620E-01
 8.847712874E-01 2.171876840E-02 8.064363317E-01
 8.726281822E-01 2.364960872E-02 8.127187154E-01
 8.600594997E-01 2.555653825E-02 8.170185520E-01
 8.478389084E-01 2.737904806E-02 8.241460475E-01
 8.361339867E-01 2.908009477E-02 8.323761878E-01
 8.236285150E-01 3.084673453E-02 8.385821098E-01
 8.103656173E-01 3.266260587E-02 8.433166283E-01
 7.976227403E-01 3.437534720E-02 8.512242758E-01
 7.852300107E-01 3.600204736E-02 8.583681079E-01
 7.727399766E-01 3.759366646E-02 8.644161946E-01
 7.598212659E-01 3.919222951E-02 8.691138611E-01
 7.458800375E-01 4.087611474E-02 8.745720985E-01
 7.331588864E-01 4.238785245E-02 8.834802091E-01
 7.220878005E-01 4.367432743E-02 8.928309916E-01
 7.105571330E-01 4.496714473E-02 8.972059267E-01
 6.975620985E-01 4.637722857E-02 9.023037156E-01
 6.838702559E-01 4.782884941E-02 9.134507846E-01
 6.721424460E-01 4.903184809E-02 9.225031397E-01
 6.612882614E-01 5.009774864E-02 9.304722267E-01
 6.497372985E-01 5.118318275E-02 9.340166089E-01
 6.379243433E-01 5.224964768E-02 9.440913229E-01
 6.262393892E-01 5.326249264E-02 9.556825915E-01
 6.150183678E-01 5.416917801E-02 9.563138872E-01
 6.029026210E-01 5.509596691E-02 9.631048524E-01
 5.903936625E-01 5.601119250E-02 9.791417774E-01
 5.774705410E-01 5.687471293E-02 9.874734698E-01
 5.640841126E-01 5.768094026E-02 9.918037103E-01
 5.513320267E-01 5.836977623E-02 9.951114221E-01
 5.395555794E-01 5.895121954E-02 1.005863254E+00
 5.281328857E-01 5.944912322E-02 1.005621512E+00
 5.157051980E-01 5.991497263E-02 1.008644951E+00
 5.036791861E-01 6.030794978E-02 1.017799771E+00
 4.914839417E-01 6.063526683E-02 1.020927533E+00
 4.782393128E-01 6.090511195E-02 1.012061578E+00
 4.643239379E-01 6.108840369E-02 1.002645333E+00
 4.501396418E-01 6.120017357E-02 1.004648399E+00
 4.367075115E-01 6.122610718E-02 1.001283359E+00
 4.236377329E-01 6.116611697E-02 9.943717865E-01
 4.109813571E-01 6.103566103E-02 9.869268960E-01
 3.986822367E-01 6.084755436E-02 9.855124675E-01
 3.864028603E-01 6.059305370E-02 9.778050066E-01
 3.747101873E-01 6.028816849E-02 9.712146768E-01
 3.626683354E-01 5.991974100E-02 9.679318413E-01
 3.501042277E-01 5.947191454E-02 9.612937400E-01
 3.377941847E-01 5.896756425E-02 9.565676849E-01
 3.262086660E-01 5.843969062E-02 9.523149898E-01
 3.146106750E-01 5.784747936E-02 9.440988242E-01
 3.018066883E-01 5.713819899E-02 9.405608474E-01
 2.883046865E-01 5.631705746E-02 9.355247979E-01
 2.749323845E-01 5.541995168E-02 9.269884152E-01
 2.625001818E-01 5.452140607E-02 9.221810653E-01
 2.501287535E-01 5.356379785E-02 9.169941294E-01
 2.373168170E-01 5.249669403E-02 9.089473811E-01
 2.247539610E-01 5.138624273E-02 9.038379446E-01
 2.127680257E-01 5.026479997E-02 9.007797966E-01
 2.012654319E-01 4.911388643E-02 8.930328415E-01
 1.894443035E-01 4.786244966E-02 8.871127779E-01
 1.772151589E-01 4.650012217E-02 8.813677501E-01
 1.654498428E-01 4.511189088E-02 8.755467710E-01
 1.536469236E-01 4.364053160E-02 8.685173753E-01
 1.422006935E-01 4.213920981E-02 8.642670291E-01
 1.310496554E-01 4.058793001E-02 8.568700103E-01
 1.194147691E-01 3.887645528E-02 8.501431548E-01
 1.082861871E-01 3.714382648E-02 8.438307078E-01
 8.744634688E-02 3.359461948E-02 8.305040300E-01
 7.567694783E-02 3.137725126E-02 8.195944526E-01
 6.461127289E-02 2.913267910E-02 8.121038322E-01
 5.467732996E-02 2.693725564E-02 8.011397387E-01
 7.126577571E-02 -3.077576868E-02 8.256268958E-01
 8.141908422E-02 -3.267102502E-02 8.328402520E-01
 9.157751128E-02 -3.442753665E-02 8.382083827E-01
 1.020808443E-01 -3.612447903E-02 8.435555383E-01
 1.130602136E-01 -3.778964281E-02 8.488486646E-01
 1.243740283E-01 -3.940512426E-02 8.550907537E-01
 1.353653669E-01 -4.088672996E-02 8.612380004E-01
 1.461234540E-01 -4.225727729E-02 8.670588190E-01
 1.575600132E-01 -4.363211244E-02 8.725816011E-01
 1.694250703E-01 -4.497935437E-02 8.789328152E-01
 1.812210456E-01 -4.624231160E-02 8.850683395E-01
 1.924584284E-01 -4.738166556E-02 8.931923984E-01
 2.033777088E-01 -4.841751605E-02 8.994736069E-01
 2.152089998E-01 -4.947058298E-02 9.050368711E-01
 2.277630419E-01 -5.051186308E-02 9.154129731E-01
 2.403503358E-01 -5.146556534E-02 9.216536516E-01
 2.530493960E-01 -5.234404281E-02 9.294190870E-01
 2.650340199E-01 -5.309789069E-02 9.390435224E-01
 2.771289647E-01 -5.377275310E-02 9.465341433E-01
 2.900723070E-01 -5.440131389E-02 9.563505341E-01
 3.028366268E-01 -5.492219515E-02 9.642537414E-01
 3.150679618E-01 -5.532677844E-02 9.763655260E-01
 3.271955103E-01 -5.561942235E-02 9.814004803E-01
 3.388134092E-01 -5.580902100E-02 9.879578928E-01
 3.497831374E-01 -5.589560047E-02 9.927113523E-01
 3.608797044E-01 -5.589286052E-02 9.961549643E-01
 3.716723621E-01 -5.580274574E-02 9.975177134E-01
 3.826359063E-01 -5.561877228E-02 1.001905152E+00
 3.945853114E-01 -5.528588407E-02 9.945461295E-01
 4.070018977E-01 -5.482614972E-02 9.798755502E-01
 4.197111726E-01 -5.422724970E-02 9.773108020E-01
 4.327257127E-01 -5.345963687E-02 9.600119733E-01
 4.454057813E-01 -5.258555338E-02 9.450031728E-01
 4.576843381E-01 -5.161114968E-02 9.310736578E-01
 4.699656814E-01 -5.052639917E-02 9.114720025E-01
 4.818657339E-01 -4.938564636E-02 9.007060693E-01
 4.937759936E-01 -4.815108888E-02 8.833424486E-01
 5.068916976E-01 -4.669228196E-02 8.685486314E-01
 5.206476748E-01 -4.506439157E-02 8.486928112E-01
 5.342960954E-01 -4.337304831E-02 8.338667886E-01
 5.478489101E-01 -4.163023084E-02 8.176928390E-01
 5.610592365E-01 -3.988053836E-02 8.051586969E-01
 5.741102695E-01 -3.810567968E-02 7.902196483E-01
 5.866998434E-01 -3.637275659E-02 7.788920300E-01
 5.987180173E-01 -3.470295668E-02 7.683853633E-01
 6.115791798E-01 -3.289891779E-02 7.579467933E-01
 6.255232096E-01 -3.092521988E-02 7.449559924E-01
 6.397714615E-01 -2.891638409E-02 7.345829873E-01
 6.534963846E-01 -2.699039690E-02 7.253177558E-01
 6.669879854E-01 -2.511030156E-02 7.166612209E-01
 6.801104844E-01 -2.328887675E-02 7.082024531E-01
 6.926105917E-01 -2.156826574E-02 7.000910323E-01
 7.059504688E-01 -1.974168140E-02 6.916456175E-01
 7.195661664E-01 -1.790155191E-02 6.818257123E-01
 7.319488823E-01 -1.627026778E-02 6.758091315E-01
 7.440137267E-01 -1.470621210E-02 6.682406015E-01
 7.564516962E-01 -1.312807109E-02 6.609102227E-01
 7.691415548E-01 -1.156895747E-02 6.546144550E-01
 7.815178335E-01 -1.009414112E-02 6.491571744E-01
 7.936437726E-01 -8.671833668E-03 6.408599201E-01
 8.055786788E-01 -7.336622570E-03 6.346355873E-01
 8.169283271E-01 -6.114884280E-03 6.291160217E-01
 8.289213479E-01 -4.886976909E-03 6.220774908E-01
 8.413456380E-01 -3.699866123E-03 6.165642993E-01
 8.534237444E-01 -2.619499341E-03 6.090690626E-01
 8.657121360E-01 -1.644501172E-03 6.052076499E-01
 8.779459894E-01 -7.761756424E-04 6.003825074E-01
 8.907409012E-01 8.503557183E-07 5.965416685E-01
 9.026243091E-01 5.980965507E-04 5.930862540E-01
 9.128103554E-01 9.995150904E-04 5.919569776E-01
 9.420298338E-01 1.600376563E-03 5.917793882E-01
 9.546734393E-01 1.616036170E-03 5.926061155E-01
 9.688661098E-01 1.468487200E-03 5.934223200E-01
 9.826725125E-01 1.163838373E-03 5.904779857E-01
 9.946010709E-01 7.528222923E-04 5.947671653E-01
 -5.000000000E-01 9.500000000E-01 7.227467349E-01
 -5.000000000E-01 9.000000000E-01 7.195194713E-01
 -5.000000000E-01 8.500000000E-01 7.171045344E-01
 -5.000000000E-01 8.000000000E-01 7.149250927E-01
 -5.000000000E-01 7.500000000E-01 7.128422850E-01
 -5.000000000E-01 7.000000000E-01 7.107990248E-01
 -5.000000000E-01 6.500000000E-01 7.087396367E-01
 -5.000000000E-01 6.000000000E-01 7.066120816E-01
 -5.000000000E-01 5.500000000E-01 7.044344565E-01
 -5.000000000E-01 5.000000000E-01 7.022103887E-01
 -5.000000000E-01 4.500000000E-01 6.999587129E-01
 -5.000000000E-01 4.000000000E-01 6.976977441E-01
 -5.000000000E-01 3.500000000E-01 6.954796671E-01
 -5.000000000E-01 3.000000000E-01 6.933421814E-01
 -5.000000000E-01 2.500000000E-01 6.913525376E-01
 -5.000000000E-01 2.000000000E-01 6.895857097E-01
 -5.000000000E-01 1.500000000E-01 6.881030921E-01
 -5.000000000E-01 1.000000000E-01 6.869634813E-01
 -5.000000000E-01 5.000000000E-02 6.862608141E-01
 -5.000000000E-01 2.752242878E-12 6.859754810E-01
 -5.000000000E-01 -5.000000000E-02 6.861166632E-01
 -5.000000000E-01 -1.000000000E-01 6.866820520E-01
 -5.000000000E-01 -1.500000000E-01 6.877048556E-01
 -5.000000000E-01 -2.000000000E-01 6.890454548E-01
 -5.000000000E-01 -2.500000000E-01 6.906869562E-01
 -5.000000000E-01 -3.000000000E-01 6.925392653E-01
 -5.000000000E-01 -3.500000000E-01 6.945587585E-01
 -5.000000000E-01 -4.000000000E-01 6.966899236E-01
 -5.000000000E-01 -4.500000000E-01 6.988787293E-01
 -5.000000000E-01 -5.000000000E-01 7.010596586E-01
 -5.000000000E-01 -5.500000000E-01 7.032467067E-01
 -5.000000000E-01 -6.000000000E-01 7.053878864E-01
 -5.000000000E-01 -6.500000000E-01 7.075030897E-01
 -5.000000000E-01 -7.000000000E-01 7.095928864E-01
 -5.000000000E-01 -7.500000000E-01 7.116831386E-01
 -5.000000000E-01 -8.000000000E-01 7.138382477E-01
 -5.000000000E-01 -8.500000000E-01 7.161246242E-01
 -5.000000000E-01 -9.000000000E-01 7.187834545E-01
 -5.000000000E-01 -9.500000000E-01 7.221878317E-01
 -4.500000000E-01 -1.000000000E+00 7.220132281E-01
 -4.000000000E-01 -1.000000000E+00 7.187263031E-01
 -3.500000000E-01 -1.000000000E+00 7.165263192E-01
 -3.000000000E-01 -1.000000000E+00 7.150849358E-01
 -2.500000000E-01 -1.000000000E+00 7.142203549E-01
 -2.000000000E-01 -1.000000000E+00 7.139022834E-01
 -1.500000000E-01 -1.000000000E+00 7.141513099E-01
 -1.000000000E-01 -1.000000000E+00 7.149496515E-01
 -5.000000000E-02 -1.000000000E+00 7.162556014E-01
 -9.424683256E-13 -1.000000000E+00 7.181046768E-01
 5.000000000E-02 -1.000000000E+00 7.204195426E-01
 1.000000000E-01 -1.000000000E+00 7.231065213E-01
 1.500000000E-01 -1.000000000E+00 7.259487559E-01
 2.000000000E-01 -1.000000000E+00 7.289968991E-01
 2.500000000E-01 -1.000000000E+00 7.322213509E-01
 3.000000000E-01 -1.000000000E+00 7.351993880E-01
 3.500000000E-01 -1.000000000E+00 7.376450304E-01
 4.000000000E-01 -1.000000000E+00 7.396910962E-01
 4.500000000E-01 -1.000000000E+00 7.411004110E-01
 5.000000000E-01 -1.000000000E+00 7.418346753E-01
 5.500000000E-01 -1.000000000E+00 7.418367119E-01
 6.000000000E-01 -1.000000000E+00 7.412734799E-01
 6.500000000E-01 -1.000000000E+00 7.400438898E-01
 7.000000000E-01 -1.000000000E+00 7.383621424E-01
 7.500000000E-01 -1.000000000E+00 7.363891033E-01
 8.000000000E-01 -1.000000000E+00 7.341326792E-01
 8.500000000E-01 -1.000000000E+00 7.316283867E-01
 9.000000000E-01 -1.000000000E+00 7.291786167E-01
 9.500000000E-01 -1.000000000E+00 7.268564583E-01
 1.000000000E+00 -1.000000000E+00 7.245761113E-01
 1.050000000E+00 -1.000000000E+00 7.224775458E-01
 1.100000000E+00 -1.000000000E+00 7.206438741E-01
 1.150000000E+00 -1.000000000E+00 7.190591962E-01
 1.200000000E+00 -1.000000000E+00 7.177658094E-01
 1.250000000E+00 -1.000000000E+00 7.167200817E-01
 1.300000000E+00 -1.000000000E+00 7.159145030E-01
 1.350000000E+00 -1.000000000E+00 7.153104029E-01
 1.400000000E+00 -1.000000000E+00 7.149619177E-01
 1.450000000E+00 -1.000000000E+00 7.147532728E-01
 1.500000000E+00 -1.000000000E+00 7.146813446E-01
 1.550000000E+00 -1.000000000E+00 7.147471705E-01
 1.600000000E+00 -1.000000000E+00 7.148795217E-01
 1.650000000E+00 -1.000000000E+00 7.151125893E-01
 1.700000000E+00 -1.000000000E+00 7.154168406E-01
 1.750000000E+00 -1.000000000E+00 7.157648527E-01
 1.800000000E+00 -1.000000000E+00 7.161471305E-01
 1.850000000E+00 -1.000000000E+00 7.165526956E-01
 1.900000000E+00 -1.000000000E+00 7.169961384E-01
 1.950000000E+00 -1.000000000E+00 7.174065114E-01
 2.000000000E+00 -1.000000000E+00 7.178103994E-01
 2.050000000E+00 -1.000000000E+00 7.182297488E-01
 2.100000000E+00 -1.000000000E+00 7.186594465E-01
 2.150000000E+00 -1.000000000E+00 7.190603454E-01
 2.200000000E+00 -1.000000000E+00 7.194518675E-01
 2.250000000E+00 -1.000000000E+00 7.198203348E-01
 2.300000000E+00 -1.000000000E+00 7.202536662E-01
 2.350000000E+00 -1.000000000E+00 7.206461626E-01
 2.400000000E+00 -1.000000000E+00 7.209938458E-01
 2.450000000E+00 -1.000000000E+00 7.212917040E-01
 2.500000000E+00 -1.000000000E+00 7.215862782E-01
 2.550000000E+00 -1.000000000E+00 7.218674136E-01
 2.600000000E+00 -1.000000000E+00 7.221227224E-01
 2.650000000E+00 -1.000000000E+00 7.223438067E-01
 2.700000000E+00 -1.000000000E+00 7.225306420E-01
 2.750000000E+00 -1.000000000E+00 7.227209262E-01
 2.800000000E+00 -1.000000000E+00 7.229584166E-01
 2.850000000E+00 -1.000000000E+00 7.230999233E-01
 2.900000000E+00 -1.000000000E+00 7.232300736E-01
 2.950000000E+00 -1.000000000E+00 7.234237635E-01
 3.000000000E+00 -1.000000000E+00 7.235739900E-01
 3.050000000E+00 -1.000000000E+00 7.237035375E-01
 3.100000000E+00 -1.000000000E+00 7.238445280E-01
 3.150000000E+00 -1.000000000E+00 7.239679853E-01
 3.200000000E+00 -1.000000000E+00 7.241102728E-01
 3.250000000E+00 -1.000000000E+00 7.242216790E-01
 3.300000000E+00 -1.000000000E+00 7.244155849E-01
 3.350000000E+00 -1.000000000E+00 7.246847311E-01
 3.400000000E+00 -1.000000000E+00 7.251121496E-01
 3.450000000E+00 -1.000000000E+00 7.262192118E-01
 3.500000000E+00 -9.500000000E-01 7.295541891E-01
 3.500000000E+00 -9.000000000E-01 7.302108226E-01
 3.500000000E+00 -8.500000000E-01 7.306688902E-01
 3.500000000E+00 -8.000000000E-01 7.310073481E-01
 3.500000000E+00 -7.500000000E-01 7.312848839E-01
 3.500000000E+00 -7.000000000E-01 7.315258550E-01
 3.500000000E+00 -6.500000000E-01 7.317735713E-01
 3.500000000E+00 -6.000000000E-01 7.320505550E-01
 3.500000000E+00 -5.500000000E-01 7.323328373E-01
 3.500000000E+00 -5.000000000E-01 7.326316506E-01
 3.500000000E+00 -4.500000000E-01 7.329265307E-01
 3.500000000E+00 -4.000000000E-01 7.332254147E-01
 3.500000000E+00 -3.500000000E-01 7.335298633E-01
 3.500000000E+00 -3.000000000E-01 7.338361350E-01
 3.500000000E+00 -2.500000000E-01 7.341095909E-01
 3.500000000E+00 -2.000000000E-01 7.343027299E-01
 3.500000000E+00 -1.500000000E-01 7.344100982E-01
 3.500000000E+00 -1.000000000E-01 7.344256637E-01
 3.500000000E+00 -5.000000000E-02 7.343959638E-01
 3.500000000E+00 -2.752242878E-12 7.344042293E-01
 3.500000000E+00 5.000000000E-02 7.344097290E-01
 3.500000000E+00 1.000000000E-01 7.343177581E-01
 3.500000000E+00 1.500000000E-01 7.340805704E-01
 3.500000000E+00 2.000000000E-01 7.337715344E-01
 3.500000000E+00 2.500000000E-01 7.334642564E-01
 3.500000000E+00 3.000000000E-01 7.331823951E-01
 3.500000000E+00 3.500000000E-01 7.329012980E-01
 3.500000000E+00 4.000000000E-01 7.326001978E-01
 3.500000000E+00 4.500000000E-01 7.322839808E-01
 3.500000000E+00 5.000000000E-01 7.319197298E-01
 3.500000000E+00 5.500000000E-01 7.315188752E-01
 3.500000000E+00 6.000000000E-01 7.312780339E-01
 3.500000000E+00 6.500000000E-01 7.313746300E-01
 3.500000000E+00 7.000000000E-01 7.316934038E-01
 3.500000000E+00 7.500000000E-01 7.318300979E-01
 3.500000000E+00 8.000000000E-01 7.310245015E-01
 3.500000000E+00 8.500000000E-01 7.290053903E-01
 3.500000000E+00 9.000000000E-01 7.253764438E-01
 3.500000000E+00 9.500000000E-01 7.203636655E-01
 3.450000000E+00 1.000000000E+00 7.040439709E-01
 3.400000000E+00 1.000000000E+00 7.000056479E-01
 3.350000000E+00 1.000000000E+00 6.994643561E-01
 3.300000000E+00 1.000000000E+00 6.990743780E-01
 3.250000000E+00 1.000000000E+00 6.991128305E-01
 3.200000000E+00 1.000000000E+00 6.994243320E-01
 3.150000000E+00 1.000000000E+00 6.997198027E-01
 3.100000000E+00 1.000000000E+00 6.999798090E-01
 3.050000000E+00 1.000000000E+00 7.002648455E-01
 3.000000000E+00 1.000000000E+00 7.000983179E-01
 2.950000000E+00 1.000000000E+00 7.005684586E-01
 2.900000000E+00 1.000000000E+00 7.010203162E-01
 2.850000000E+00 1.000000000E+00 7.012318344E-01
 2.800000000E+00 1.000000000E+00 7.018068391E-01
 2.750000000E+00 1.000000000E+00 7.021004635E-01
 2.700000000E+00 1.000000000E+00 7.021547014E-01
 2.650000000E+00 1.000000000E+00 7.025753721E-01
 2.600000000E+00 1.000000000E+00 7.029451742E-01
 2.550000000E+00 1.000000000E+00 7.033746071E-01
 2.500000000E+00 1.000000000E+00 7.039524981E-01
 2.450000000E+00 1.000000000E+00 7.044861878E-01
 2.400000000E+00 1.000000000E+00 7.048399288E-01
 2.350000000E+00 1.000000000E+00 7.053836452E-01
 2.300000000E+00 1.000000000E+00 7.058015326E-01
 2.250000000E+00 1.000000000E+00 7.061122944E-01
 2.200000000E+00 1.000000000E+00 7.066103363E-01
 2.150000000E+00 1.000000000E+00 7.070849548E-01
 2.100000000E+00 1.000000000E+00 7.074846383E-01
 2.050000000E+00 1.000000000E+00 7.080788919E-01
 2.000000000E+00 1.000000000E+00 7.085065358E-01
 1.950000000E+00 1.000000000E+00 7.090599566E-01
 1.900000000E+00 1.000000000E+00 7.098173927E-01
 1.850000000E+00 1.000000000E+00 7.104541530E-01
 1.800000000E+00 1.000000000E+00 7.110343200E-01
 1.750000000E+00 1.000000000E+00 7.121223791E-01
 1.700000000E+00 1.000000000E+00 7.136773340E-01
 1.650000000E+00 1.000000000E+00 7.148639530E-01
 1.600000000E+00 1.000000000E+00 7.162175006E-01
 1.550000000E+00 1.000000000E+00 7.175872169E-01
 1.500000000E+00 1.000000000E+00 7.194249248E-01
 1.450000000E+00 1.000000000E+00 7.217481825E-01
 1.400000000E+00 1.000000000E+00 7.233719618E-01
 1.350000000E+00 1.000000000E+00 7.251236026E-01
 1.300000000E+00 1.000000000E+00 7.274064971E-01
 1.250000000E+00 1.000000000E+00 7.300122698E-01
 1.200000000E+00 1.000000000E+00 7.324572821E-01
 1.150000000E+00 1.000000000E+00 7.352045942E-01
 1.100000000E+00 1.000000000E+00 7.388283919E-01
 1.050000000E+00 1.000000000E+00 7.419549665E-01
 1.000000000E+00 1.000000000E+00 7.446410055E-01
 9.500000000E-01 1.000000000E+00 7.490732607E-01
 9.000000000E-01 1.000000000E+00 7.541140413E-01
 8.500000000E-01 1.000000000E+00 7.575998564E-01
 8.000000000E-01 1.000000000E+00 7.603992897E-01
 7.500000000E-01 1.000000000E+00 7.628523560E-01
 7.000000000E-01 1.000000000E+00 7.647502834E-01
 6.500000000E-01 1.000000000E+00 7.660840412E-01
 6.000000000E-01 1.000000000E+00 7.656199371E-01
 5.500000000E-01 1.000000000E+00 7.655170491E-01
 5.000000000E-01 1.000000000E+00 7.635556939E-01
 4.500000000E-01 1.000000000E+00 7.601886110E-01
 4.000000000E-01 1.000000000E+00 7.566726561E-01
 3.500000000E-01 1.000000000E+00 7.526916675E-01
 3.000000000E-01 1.000000000E+00 7.480712595E-01
 2.500000000E-01 1.000000000E+00 7.432815261E-01
 2.000000000E-01 1.000000000E+00 7.384478093E-01
 1.500000000E-01 1.000000000E+00 7.337854958E-01
 1.000000000E-01 1.000000000E+00 7.294900021E-01
 5.000000000E-02 1.000000000E+00 7.256290428E-01
 1.733724275E-12 1.000000000E+00 7.223876089E-01
 -5.000000000E-02 1.000000000E+00 7.197788226E-01
 -1.000000000E-01 1.000000000E+00 7.178200330E-01
 -1.500000000E-01 1.000000000E+00 7.165101885E-01
 -2.000000000E-01 1.000000000E+00 7.158946656E-01
 -2.500000000E-01 1.000000000E+00 7.159177380E-01
 -3.000000000E-01 1.000000000E+00 7.165297902E-01
 -3.500000000E-01 1.000000000E+00 7.177000696E-01
 -4.000000000E-01 1.000000000E+00 7.196142323E-01
 -4.500000000E-01 1.000000000E+00 7.226217285E-01
 9.049540779E-01 -4.154190501E-03 5.961363216E-01
 9.857511148E-01 -4.246186458E-03 5.974498609E-01
 8.326384480E-01 -9.956313032E-03 6.232462287E-01
 7.601699568E-01 -1.821577650E-02 6.607975800E-01
 6.902487651E-01 -2.712441060E-02 7.023420971E-01
 6.227962464E-01 -3.747063032E-02 7.493722563E-01
 5.520085639E-01 -4.700509871E-02 8.138322137E-01
 4.915316589E-01 -5.361365950E-02 8.837511277E-01
 4.354893919E-01 -5.925523116E-02 9.522560916E-01
 3.800455946E-01 -6.065515868E-02 9.960129827E-01
 3.240773502E-01 -6.130481001E-02 9.761474248E-01
 2.619665082E-01 -5.788647345E-02 9.338779070E-01
 2.050357905E-01 -5.346289049E-02 8.978859068E-01
 1.482628395E-01 -4.731330518E-02 8.660079782E-01
 9.271577909E-02 -4.020508064E-02 8.346353481E-01
 5.163517830E-02 -3.363375079E-02 7.983392779E-01
 1.554724134E-02 -1.919501685E-02 7.038278607E-01