TITLE     = "Visualization of the solution"
VARIABLES = "x"
"y"
"Mach"
ZONE T="Zone"
 STRANDID=0, SOLUTIONTIME=0
 Nodes=12005, Elements=23429, ZONETYPE=FEQuadrilateral
 DATAPACKING=POINT
 DT=(DOUBLE DOUBLE DOUBLE )
 1.000141144E+00 5.097707035E-04 5.483902313E-01
 9.869961143E-01 2.928388305E-03 6.491330397E-01
 9.742636681E-01 5.345173180E-03 6.797705115E-01
 9.584125280E-01 8.334953338E-03 7.048031385E-01
 9.434609413E-01 1.112401020E-02 7.262825157E-01
 9.285061359E-01 1.378442999E-02 7.309297696E-01
 9.167114496E-01 1.599442773E-02 7.520769382E-01
 9.042580724E-01 1.824636571E-02 7.633852199E-01
 8.923355341E-01 2.040534653E-02 7.814103707E-01
 8.798316121E-01 2.255997621E-02 7.904811810E-01
 8.672508597E-01 2.465990558E-02 7.966406522E-01
 8.549239635E-01 2.670253813E-02 8.074978088E-01
 8.423739076E-01 2.872078680E-02 8.138366924E-01
 8.311367631E-01 3.051730804E-02 8.245089494E-01
 8.194774985E-01 3.232622147E-02 8.308239052E-01
 8.069185615E-01 3.423405066E-02 8.376676359E-01
 7.943730950E-01 3.612543270E-02 8.499180132E-01
 7.820888162E-01 3.788606450E-02 8.513841211E-01
 7.699151635E-01 3.963874280E-02 8.622605189E-01
 7.582871914E-01 4.126180336E-02 8.681755739E-01
 7.456374764E-01 4.301005974E-02 8.796140683E-01
 7.321518064E-01 4.480678961E-02 8.878918252E-01
 7.215221524E-01 4.618228599E-02 8.939870292E-01
 7.106392980E-01 4.756674916E-02 9.019782225E-01
 6.991305351E-01 4.898905754E-02 9.099373447E-01
 6.860247254E-01 5.057118833E-02 9.220778681E-01
 6.731815338E-01 5.204567313E-02 9.290023678E-01
 6.630830169E-01 5.317200720E-02 9.373583653E-01
 6.516723037E-01 5.441253260E-02 9.515732645E-01
 6.402400732E-01 5.558725074E-02 9.583341446E-01
 6.284309030E-01 5.673095211E-02 9.639030619E-01
 6.172395945E-01 5.778377876E-02 9.766750349E-01
 6.065834761E-01 5.871742219E-02 9.836431695E-01
 5.943010449E-01 5.974691361E-02 9.968838260E-01
 5.826722980E-01 6.065210328E-02 9.951555171E-01
 5.693740845E-01 6.159227341E-02 9.992672951E-01
 5.569244027E-01 6.240873784E-02 1.029415280E+00
 5.446217656E-01 6.311824918E-02 1.058683536E+00
 5.336209536E-01 6.369534880E-02 1.068298924E+00
 5.220119357E-01 6.424470246E-02 1.065353932E+00
 5.096024275E-01 6.474126130E-02 1.059525432E+00
 4.984695613E-01 6.512072682E-02 1.057101950E+00
 4.853932261E-01 6.550128758E-02 1.056550167E+00
 4.724079669E-01 6.580900401E-02 1.047057603E+00
 4.584168792E-01 6.601767242E-02 1.033843790E+00
 4.449797869E-01 6.614518911E-02 1.025462949E+00
 4.318968356E-01 6.616651267E-02 1.017927965E+00
 4.191383421E-01 6.614296138E-02 1.020508011E+00
 4.066632390E-01 6.604138017E-02 1.013942365E+00
 3.940900564E-01 6.586132944E-02 1.005298905E+00
 3.818641603E-01 6.562105566E-02 1.000834475E+00
 3.703038692E-01 6.534014642E-02 9.936395294E-01
 3.570947945E-01 6.493394822E-02 9.846900965E-01
 3.447288871E-01 6.450513005E-02 9.830312020E-01
 3.319326341E-01 6.398992240E-02 9.817169057E-01
 3.209589422E-01 6.348560750E-02 9.745130937E-01
 3.082727492E-01 6.282404065E-02 9.648750332E-01
 2.952095270E-01 6.208361313E-02 9.617359589E-01
 2.814623713E-01 6.122534350E-02 9.579840596E-01
 2.689512968E-01 6.034199521E-02 9.475131679E-01
 2.569662631E-01 5.944656208E-02 9.429532921E-01
 2.443801016E-01 5.842946097E-02 9.368790669E-01
 2.318931967E-01 5.734756216E-02 9.320478308E-01
 2.197133899E-01 5.621813238E-02 9.276688587E-01
 2.079196423E-01 5.504010245E-02 9.210036061E-01
 1.963499635E-01 5.381357297E-02 9.150294714E-01
 1.839924902E-01 5.241200328E-02 9.077294173E-01
 1.721048057E-01 5.098351464E-02 9.023701549E-01
 1.606842130E-01 4.951995611E-02 8.953435693E-01
 1.488256305E-01 4.790752009E-02 8.890298741E-01
 1.380950660E-01 4.635716602E-02 8.820901339E-01
 1.265241951E-01 4.458243772E-02 8.742597134E-01
 1.151874512E-01 4.272598401E-02 8.665616074E-01
 1.046740338E-01 4.090206698E-02 8.579335351E-01
 9.483064711E-02 3.907765821E-02 8.508131075E-01
 8.380939066E-02 3.689927980E-02 8.407500895E-01
 7.227472216E-02 3.443249315E-02 8.283925948E-01
 6.248888001E-02 3.216551989E-02 8.172774350E-01
 5.281488970E-02 2.972914651E-02 8.038512066E-01
 4.413110390E-02 2.733757347E-02 7.900887476E-01
 3.672559559E-02 2.510901541E-02 7.755308350E-01
 3.018726036E-02 2.296117507E-02 7.593314819E-01
 2.460684255E-02 2.093895152E-02 7.436896979E-01
 2.057395503E-02 1.934234612E-02 7.254599576E-01
 1.673324779E-02 1.768423431E-02 7.055736294E-01
 1.380600501E-02 1.630315743E-02 6.853190819E-01
 1.113264915E-02 1.492929272E-02 6.650899431E-01
 9.184517898E-03 1.383054536E-02 6.452833202E-01
 7.442308124E-03 1.276495401E-02 6.255376567E-01
 5.839398131E-03 1.169795543E-02 5.953237798E-01
 3.742435016E-03 1.010868046E-02 5.515093234E-01
 1.941571129E-03 8.480033837E-03 4.974550872E-01
 4.368670052E-04 6.772372406E-03 4.105366192E-01
 -1.007583574E-03 4.427418113E-03 2.842254073E-01
 -1.630372135E-03 2.615907229E-03 1.635928120E-01
 -1.829835470E-03 1.157563529E-03 4.864978877E-02
 -1.750680152E-03 -4.527619167E-04 6.460626869E-02
 -1.327204984E-03 -2.169018378E-03 1.790503154E-01
 -4.027956165E-04 -4.187283106E-03 2.993718343E-01
 1.050989260E-03 -6.304994691E-03 4.029198291E-01
 3.081535222E-03 -8.512002416E-03 4.885509372E-01
 4.901840817E-03 -1.013014093E-02 5.452727052E-01
 7.023188286E-03 -1.175727975E-02 5.866744422E-01
 8.677615784E-03 -1.289432030E-02 6.192032386E-01
 1.076594181E-02 -1.420678850E-02 6.503213200E-01
 1.314395387E-02 -1.556528080E-02 6.782499392E-01
 1.643495075E-02 -1.727146097E-02 7.029970960E-01
 1.946644671E-02 -1.869316958E-02 7.268368032E-01
 2.340877801E-02 -2.038940229E-02 7.475775843E-01
 2.881259844E-02 -2.248013578E-02 7.693728781E-01
 3.457410261E-02 -2.448918484E-02 7.880737465E-01
 4.171290249E-02 -2.672520466E-02 8.029319710E-01
 4.927738383E-02 -2.887109481E-02 8.165732863E-01
 5.818860978E-02 -3.115958720E-02 8.283072664E-01
 6.693228334E-02 -3.320996091E-02 8.381751334E-01
 7.718090713E-02 -3.541062772E-02 8.465304943E-01
 8.710749447E-02 -3.737918660E-02 8.550521367E-01
 9.738585353E-02 -3.927227855E-02 8.623114634E-01
 1.083205864E-01 -4.114452004E-02 8.687620991E-01
 1.196229085E-01 -4.294911399E-02 8.752372534E-01
 1.311772466E-01 -4.467418790E-02 8.823396824E-01
 1.418001503E-01 -4.616126418E-02 8.889042191E-01
 1.529690325E-01 -4.763387144E-02 8.952674878E-01
 1.648395807E-01 -4.910339415E-02 9.029360082E-01
 1.764892936E-01 -5.044619367E-02 9.086438062E-01
 1.883435249E-01 -5.173536763E-02 9.176670418E-01
 1.989231259E-01 -5.280094966E-02 9.241062256E-01
 2.101915181E-01 -5.386893824E-02 9.313290990E-01
 2.224049866E-01 -5.493866652E-02 9.403949783E-01
 2.348967195E-01 -5.592801422E-02 9.466181345E-01
 2.471996844E-01 -5.682375655E-02 9.561334464E-01
 2.595694065E-01 -5.762752518E-02 9.660296335E-01
 2.706028223E-01 -5.825710297E-02 9.730830716E-01
 2.833290994E-01 -5.890285969E-02 9.839547385E-01
 2.957071960E-01 -5.941520259E-02 9.947297595E-01
 3.084934652E-01 -5.982966349E-02 9.995841712E-01
 3.203406334E-01 -6.012361497E-02 1.009717705E+00
 3.329119682E-01 -6.031651795E-02 1.017656151E+00
 3.437588513E-01 -6.039091945E-02 1.026974052E+00
 3.551037908E-01 -6.036566198E-02 1.032235722E+00
 3.661805391E-01 -6.024628878E-02 1.037933886E+00
 3.768389821E-01 -6.001652032E-02 1.028713485E+00
 3.884868920E-01 -5.967099220E-02 1.010112928E+00
 4.015033543E-01 -5.915434659E-02 9.973844580E-01
 4.137920439E-01 -5.853956565E-02 9.906031228E-01
 4.266197085E-01 -5.774247274E-02 9.683678239E-01
 4.394095838E-01 -5.685437843E-02 9.577574981E-01
 4.518123567E-01 -5.584990606E-02 9.429841700E-01
 4.638715684E-01 -5.476666987E-02 9.250701444E-01
 4.763742685E-01 -5.353977904E-02 9.084344386E-01
 4.879869521E-01 -5.231459439E-02 8.935158178E-01
 5.007597804E-01 -5.088150129E-02 8.785434032E-01
 5.144456029E-01 -4.923273250E-02 8.586996507E-01
 5.279414654E-01 -4.754426703E-02 8.439888412E-01
 5.412142873E-01 -4.580680653E-02 8.272606098E-01
 5.544171929E-01 -4.405349866E-02 8.170324141E-01
 5.675745606E-01 -4.220914841E-02 7.979368771E-01
 5.808040500E-01 -4.037408158E-02 7.887085868E-01
 5.932460427E-01 -3.861321881E-02 7.778060880E-01
 6.059188247E-01 -3.680168465E-02 7.680057167E-01
 6.198374033E-01 -3.477317095E-02 7.547692946E-01
 6.340617537E-01 -3.269176930E-02 7.418251024E-01
 6.485611200E-01 -3.060671315E-02 7.338184313E-01
 6.618101001E-01 -2.869307809E-02 7.246724597E-01
 6.753341556E-01 -2.673648112E-02 7.146718979E-01
 6.878253222E-01 -2.495464124E-02 7.079151350E-01
 6.999842525E-01 -2.320002019E-02 6.967492174E-01
 7.146818042E-01 -2.116615698E-02 6.921017750E-01
 7.275864482E-01 -1.934910379E-02 6.807021988E-01
 7.396463752E-01 -1.772053167E-02 6.767181905E-01
 7.523669600E-01 -1.597279310E-02 6.647993050E-01
 7.649361491E-01 -1.434908621E-02 6.615547008E-01
 7.780097127E-01 -1.265266631E-02 6.517585101E-01
 7.901315689E-01 -1.116728969E-02 6.488441010E-01
 8.024130464E-01 -9.629112668E-03 6.369556592E-01
 8.133989573E-01 -8.331449702E-03 6.307619128E-01
 8.249521852E-01 -7.042198908E-03 6.260769706E-01
 8.374689221E-01 -5.689377431E-03 6.175037892E-01
 8.500183225E-01 -4.448255524E-03 6.123061156E-01
 8.624060154E-01 -3.321266733E-03 6.075293791E-01
 8.738196492E-01 -2.350554569E-03 6.009549851E-01
 8.854850531E-01 -1.474282704E-03 5.966893341E-01
 8.985514641E-01 -6.318176747E-04 5.921555302E-01
 9.088374972E-01 -8.614055696E-05 5.902496121E-01
 9.191409349E-01 3.671300656E-04 5.881694333E-01
 9.287868142E-01 6.940387539E-04 5.874467313E-01
 9.377961755E-01 9.210478747E-04 5.869287939E-01
 9.497513175E-01 1.108220895E-03 5.868679067E-01
 9.627703428E-01 1.166959759E-03 5.866335647E-01
 9.769354463E-01 1.065399032E-03 5.852405629E-01
 9.893755317E-01 8.346160175E-04 5.765228895E-01
 -5.000000000E-01 -1.000000000E+00 7.239480076E-01
 3.500000000E+00 -1.000000000E+00 7.281361660E-01
 3.500000000E+00 1.000000000E+00 7.119599151E-01
 -5.000000000E-01 1.000000000E+00 7.242725858E-01
 9.935686290E-01 1.719079504E-03 6.326974419E-01
 9.806298912E-01 4.136780743E-03 6.653692350E-01
 9.663380980E-01 6.840063259E-03 6.929562706E-01
 9.509367347E-01 9.729481768E-03 7.168782292E-01
 9.359835386E-01 1.245422009E-02 7.282160252E-01
 9.226087928E-01 1.488942886E-02 7.416306020E-01
 9.104847610E-01 1.712039672E-02 7.573854426E-01
 8.982968032E-01 1.932585612E-02 7.730930621E-01
 8.860835731E-01 2.148266137E-02 7.863878465E-01
 8.735412359E-01 2.360994089E-02 7.932055465E-01
 8.610874116E-01 2.568122186E-02 8.023770726E-01
 8.486489356E-01 2.771166246E-02 8.102721961E-01
 8.367553353E-01 2.961904742E-02 8.195476528E-01
 8.253071308E-01 3.142176475E-02 8.279333096E-01
 8.131980300E-01 3.328013606E-02 8.333592722E-01
 8.006458282E-01 3.517974168E-02 8.449448144E-01
 7.882309556E-01 3.700574860E-02 8.498716132E-01
 7.760019898E-01 3.876240365E-02 8.572545682E-01
 7.641011775E-01 4.045027308E-02 8.647129917E-01
 7.519623339E-01 4.213593155E-02 8.741470169E-01
 7.388946414E-01 4.390842468E-02 8.838871144E-01
 7.268369794E-01 4.549453780E-02 8.908105070E-01
 7.160807252E-01 4.687451757E-02 8.982439155E-01
 7.048849165E-01 4.827790335E-02 9.052867507E-01
 6.925776303E-01 4.978012294E-02 9.165279120E-01
 6.796031296E-01 5.130843073E-02 9.254040580E-01
 6.681322753E-01 5.260884017E-02 9.325427902E-01
 6.573776603E-01 5.379226990E-02 9.447063993E-01
 6.459561884E-01 5.499989167E-02 9.561104899E-01
 6.343354881E-01 5.615910143E-02 9.595758642E-01
 6.228352487E-01 5.725736544E-02 9.712823191E-01
 6.119115353E-01 5.825060047E-02 9.793070843E-01
 6.004422605E-01 5.923216790E-02 9.909901034E-01
 5.884866714E-01 6.019950844E-02 9.980306323E-01
 5.760231912E-01 6.112218834E-02 9.936402650E-01
 5.631492436E-01 6.200050563E-02 1.012511411E+00
 5.507730842E-01 6.276349351E-02 1.045752687E+00
 5.391213596E-01 6.340679899E-02 1.065888265E+00
 5.278164446E-01 6.397002563E-02 1.068294425E+00
 5.158071816E-01 6.449298188E-02 1.061654510E+00
 5.040359944E-01 6.493099406E-02 1.058061602E+00
 4.919313937E-01 6.531100720E-02 1.057089905E+00
 4.789005965E-01 6.565514579E-02 1.053894083E+00
 4.654124230E-01 6.591333821E-02 1.038834340E+00
 4.516983330E-01 6.608143076E-02 1.030579194E+00
 4.384383112E-01 6.615585089E-02 1.019546348E+00
 4.255175889E-01 6.615473703E-02 1.019968206E+00
 4.129007906E-01 6.609217077E-02 1.018134692E+00
 4.003766477E-01 6.595135480E-02 1.009185765E+00
 3.879771084E-01 6.574119255E-02 1.002582995E+00
 3.760840148E-01 6.548060104E-02 9.986201973E-01
 3.636993319E-01 6.513704732E-02 9.878200162E-01
 3.509118408E-01 6.471953914E-02 9.838498127E-01
 3.383307606E-01 6.424752623E-02 9.822809533E-01
 3.264457881E-01 6.373776495E-02 9.794404551E-01
 3.146158457E-01 6.315482408E-02 9.689003801E-01
 3.017411381E-01 6.245382689E-02 9.628211094E-01
 2.883359492E-01 6.165447831E-02 9.609680430E-01
 2.752068341E-01 6.078366935E-02 9.519864033E-01
 2.629587799E-01 5.989427865E-02 9.454411103E-01
 2.506731823E-01 5.893801153E-02 9.398411139E-01
 2.381366491E-01 5.788851157E-02 9.342147997E-01
 2.258032933E-01 5.678284727E-02 9.301918469E-01
 2.138165161E-01 5.562911741E-02 9.241781360E-01
 2.021348029E-01 5.442683771E-02 9.184559784E-01
 1.901712269E-01 5.311278813E-02 9.110530686E-01
 1.780486479E-01 5.169775896E-02 9.050859342E-01
 1.663945094E-01 5.025173537E-02 8.990234594E-01
 1.547549218E-01 4.871373810E-02 8.919893158E-01
 1.434603482E-01 4.713234305E-02 8.858167786E-01
 1.323096305E-01 4.546980187E-02 8.784535764E-01
 1.208558232E-01 4.365421087E-02 8.697376061E-01
 1.099307425E-01 4.181402549E-02 8.638020134E-01
 8.932001889E-02 3.798846900E-02 8.460634063E-01
 7.804205641E-02 3.566588648E-02 8.353051980E-01
 7.205659524E-02 -3.431029432E-02 8.434489705E-01
 8.214420080E-02 -3.639490716E-02 8.508065654E-01
 9.224667400E-02 -3.832573257E-02 8.591078984E-01
 1.028532200E-01 -4.020839930E-02 8.653500037E-01
 1.139717475E-01 -4.204681702E-02 8.721150812E-01
 1.254000776E-01 -4.381165095E-02 8.786277086E-01
 1.364886984E-01 -4.541772604E-02 8.860765720E-01
 1.473845914E-01 -4.689756781E-02 8.919285063E-01
 1.589043066E-01 -4.836863279E-02 8.988302892E-01
 1.706644371E-01 -4.977479391E-02 9.061804013E-01
 1.824164093E-01 -5.109078065E-02 9.124298822E-01
 1.936333254E-01 -5.226815864E-02 9.218391069E-01
 2.045573220E-01 -5.333494395E-02 9.271694521E-01
 2.162982523E-01 -5.440380238E-02 9.356817530E-01
 2.286508530E-01 -5.543334037E-02 9.438814805E-01
 2.410482019E-01 -5.637588538E-02 9.507633111E-01
 2.533845454E-01 -5.722564086E-02 9.611233754E-01
 2.650861144E-01 -5.794231407E-02 9.703836299E-01
 2.769659609E-01 -5.857998133E-02 9.770158241E-01
 2.895181477E-01 -5.915903114E-02 9.904599417E-01
 3.021003306E-01 -5.962243304E-02 9.971467305E-01
 3.144170493E-01 -5.997663923E-02 1.004148103E+00
 3.266263008E-01 -6.022006646E-02 1.013894041E+00
 3.383354098E-01 -6.035371870E-02 1.022518145E+00
 3.494313210E-01 -6.037829071E-02 1.029971191E+00
 3.606421649E-01 -6.030597538E-02 1.035159082E+00
 3.715097606E-01 -6.013140455E-02 1.036479459E+00
 3.826629370E-01 -5.984375626E-02 1.018898310E+00
 3.949951231E-01 -5.941266939E-02 1.002292083E+00
 4.076476991E-01 -5.884695612E-02 9.948014539E-01
 4.202058762E-01 -5.814101920E-02 9.805733698E-01
 4.330146462E-01 -5.729842559E-02 9.610552687E-01
 4.456109703E-01 -5.635214224E-02 9.521020605E-01
 4.578419626E-01 -5.530828796E-02 9.337755347E-01
 4.701229185E-01 -5.415322445E-02 9.166167006E-01
 4.821806103E-01 -5.292718671E-02 9.009055212E-01
 4.943733662E-01 -5.159804784E-02 8.861660548E-01
 5.076026917E-01 -5.005711690E-02 8.687592370E-01
 5.211935341E-01 -4.838849977E-02 8.510243250E-01
 5.345778763E-01 -4.667553678E-02 8.357026626E-01
 5.478157401E-01 -4.493015260E-02 8.218143768E-01
 5.609958768E-01 -4.313132353E-02 8.080212955E-01
 5.741893053E-01 -4.129161499E-02 7.924517517E-01
 5.870250463E-01 -3.949365020E-02 7.834910544E-01
 5.995824337E-01 -3.770745173E-02 7.729205154E-01
 6.128781140E-01 -3.578742780E-02 7.617444681E-01
 6.269495785E-01 -3.373247012E-02 7.479673196E-01
 6.413114369E-01 -3.164924122E-02 7.374895331E-01
 6.551856101E-01 -2.964989562E-02 7.293729677E-01
 6.685721278E-01 -2.771477960E-02 7.196690807E-01
 6.815797389E-01 -2.584556118E-02 7.110778745E-01
 6.939047873E-01 -2.407733072E-02 7.024612494E-01
 7.073330283E-01 -2.218308859E-02 6.942628730E-01
 7.211341262E-01 -2.025763039E-02 6.866825355E-01
 7.336164117E-01 -1.853481773E-02 6.783297233E-01
 7.460066676E-01 -1.684666239E-02 6.711087865E-01
 7.586515546E-01 -1.516093966E-02 6.627181919E-01
 7.714729309E-01 -1.350087626E-02 6.569875487E-01
 7.840706408E-01 -1.190997800E-02 6.500652413E-01
 7.962723076E-01 -1.039820118E-02 6.433404491E-01
 8.079060018E-01 -8.980281185E-03 6.334074877E-01
 8.191755712E-01 -7.686824305E-03 6.285443812E-01
 8.312105536E-01 -6.365788169E-03 6.218994697E-01
 8.437436223E-01 -5.068816477E-03 6.147656524E-01
 8.562121689E-01 -3.884761129E-03 6.100058142E-01
 8.681128323E-01 -2.835910651E-03 6.041480558E-01
 8.796523511E-01 -1.912418636E-03 5.985769934E-01
 8.920182586E-01 -1.053050190E-03 5.947710732E-01
 9.036944807E-01 -3.589791158E-04 5.905977867E-01
 9.139892161E-01 1.404947543E-04 5.891558919E-01
 9.437737465E-01 1.014634385E-03 5.869692058E-01
 9.562608302E-01 1.137590327E-03 5.867749622E-01
 9.698528945E-01 1.116179395E-03 5.864108032E-01
 9.831554890E-01 9.500075248E-04 5.806633611E-01
 9.947583377E-01 6.721933605E-04 5.703506555E-01
 -5.000000000E-01 9.500000000E-01 7.219924437E-01
 -5.000000000E-01 9.000000000E-01 7.184217924E-01
 -5.000000000E-01 8.500000000E-01 7.156874540E-01
 -5.000000000E-01 8.000000000E-01 7.132549029E-01
 -5.000000000E-01 7.500000000E-01 7.109496183E-01
 -5.000000000E-01 7.000000000E-01 7.086761292E-01
 -5.000000000E-01 6.500000000E-01 7.063637719E-01
 -5.000000000E-01 6.000000000E-01 7.040006885E-01
 -5.000000000E-01 5.500000000E-01 7.015788226E-01
 -5.000000000E-01 5.000000000E-01 6.991226000E-01
 -5.000000000E-01 4.500000000E-01 6.965953125E-01
 -5.000000000E-01 4.000000000E-01 6.941044351E-01
 -5.000000000E-01 3.500000000E-01 6.916102546E-01
 -5.000000000E-01 3.000000000E-01 6.892578028E-01
 -5.000000000E-01 2.500000000E-01 6.870567391E-01
 -5.000000000E-01 2.000000000E-01 6.851366550E-01
 -5.000000000E-01 1.500000000E-01 6.834922833E-01
 -5.000000000E-01 1.000000000E-01 6.822432539E-01
 -5.000000000E-01 5.000000000E-02 6.814615812E-01
 -5.000000000E-01 2.752242878E-12 6.811311377E-01
 -5.000000000E-01 -5.000000000E-02 6.813891937E-01
 -5.000000000E-01 -1.000000000E-01 6.820432652E-01
 -5.000000000E-01 -1.500000000E-01 6.831086566E-01
 -5.000000000E-01 -2.000000000E-01 6.846921274E-01
 -5.000000000E-01 -2.500000000E-01 6.865285984E-01
 -5.000000000E-01 -3.000000000E-01 6.886110362E-01
 -5.000000000E-01 -3.500000000E-01 6.908686745E-01
 -5.000000000E-01 -4.000000000E-01 6.932395225E-01
 -5.000000000E-01 -4.500000000E-01 6.956860259E-01
 -5.000000000E-01 -5.000000000E-01 6.981421564E-01
 -5.000000000E-01 -5.500000000E-01 7.005641604E-01
 -5.000000000E-01 -6.000000000E-01 7.029317876E-01
 -5.000000000E-01 -6.500000000E-01 7.052952140E-01
 -5.000000000E-01 -7.000000000E-01 7.076205205E-01
 -5.000000000E-01 -7.500000000E-01 7.099485276E-01
 -5.000000000E-01 -8.000000000E-01 7.123079544E-01
 -5.000000000E-01 -8.500000000E-01 7.148322714E-01
 -5.000000000E-01 -9.000000000E-01 7.177017786E-01
 -5.000000000E-01 -9.500000000E-01 7.215007700E-01
 -4.500000000E-01 -1.000000000E+00 7.212687002E-01
 -4.000000000E-01 -1.000000000E+00 7.177007736E-01
 -3.500000000E-01 -1.000000000E+00 7.153045133E-01
 -3.000000000E-01 -1.000000000E+00 7.137991224E-01
 -2.500000000E-01 -1.000000000E+00 7.128498163E-01
 -2.000000000E-01 -1.000000000E+00 7.125153537E-01
 -1.500000000E-01 -1.000000000E+00 7.127725416E-01
 -1.000000000E-01 -1.000000000E+00 7.137579113E-01
 -5.000000000E-02 -1.000000000E+00 7.153461073E-01
 -9.424683256E-13 -1.000000000E+00 7.174629980E-01
 5.000000000E-02 -1.000000000E+00 7.200854219E-01
 1.000000000E-01 -1.000000000E+00 7.231254727E-01
 1.500000000E-01 -1.000000000E+00 7.265367359E-01
 2.000000000E-01 -1.000000000E+00 7.299955227E-01
 2.500000000E-01 -1.000000000E+00 7.334735323E-01
 3.000000000E-01 -1.000000000E+00 7.368080928E-01
 3.500000000E-01 -1.000000000E+00 7.396639996E-01
 4.000000000E-01 -1.000000000E+00 7.419082087E-01
 4.500000000E-01 -1.000000000E+00 7.434724538E-01
 5.000000000E-01 -1.000000000E+00 7.442451891E-01
 5.500000000E-01 -1.000000000E+00 7.443596524E-01
 6.000000000E-01 -1.000000000E+00 7.435936051E-01
 6.500000000E-01 -1.000000000E+00 7.422080151E-01
 7.000000000E-01 -1.000000000E+00 7.403152665E-01
 7.500000000E-01 -1.000000000E+00 7.380595573E-01
 8.000000000E-01 -1.000000000E+00 7.356810852E-01
 8.500000000E-01 -1.000000000E+00 7.331207756E-01
 9.000000000E-01 -1.000000000E+00 7.304888466E-01
 9.500000000E-01 -1.000000000E+00 7.278510725E-01
 1.000000000E+00 -1.000000000E+00 7.254200642E-01
 1.050000000E+00 -1.000000000E+00 7.231548423E-01
 1.100000000E+00 -1.000000000E+00 7.211280268E-01
 1.150000000E+00 -1.000000000E+00 7.193266233E-01
 1.200000000E+00 -1.000000000E+00 7.178999118E-01
 1.250000000E+00 -1.000000000E+00 7.167440890E-01
 1.300000000E+00 -1.000000000E+00 7.158039885E-01
 1.350000000E+00 -1.000000000E+00 7.150897298E-01
 1.400000000E+00 -1.000000000E+00 7.146418754E-01
 1.450000000E+00 -1.000000000E+00 7.143715872E-01
 1.500000000E+00 -1.000000000E+00 7.142235638E-01
 1.550000000E+00 -1.000000000E+00 7.142332967E-01
 1.600000000E+00 -1.000000000E+00 7.143556799E-01
 1.650000000E+00 -1.000000000E+00 7.145307843E-01
 1.700000000E+00 -1.000000000E+00 7.147838883E-01
 1.750000000E+00 -1.000000000E+00 7.151245525E-01
 1.800000000E+00 -1.000000000E+00 7.155019996E-01
 1.850000000E+00 -1.000000000E+00 7.159033260E-01
 1.900000000E+00 -1.000000000E+00 7.163346355E-01
 1.950000000E+00 -1.000000000E+00 7.167681998E-01
 2.000000000E+00 -1.000000000E+00 7.171831665E-01
 2.050000000E+00 -1.000000000E+00 7.176599228E-01
 2.100000000E+00 -1.000000000E+00 7.180968470E-01
 2.150000000E+00 -1.000000000E+00 7.184820042E-01
 2.200000000E+00 -1.000000000E+00 7.188655409E-01
 2.250000000E+00 -1.000000000E+00 7.192337736E-01
 2.300000000E+00 -1.000000000E+00 7.196162355E-01
 2.350000000E+00 -1.000000000E+00 7.199554877E-01
 2.400000000E+00 -1.000000000E+00 7.203210576E-01
 2.450000000E+00 -1.000000000E+00 7.206650640E-01
 2.500000000E+00 -1.000000000E+00 7.209820434E-01
 2.550000000E+00 -1.000000000E+00 7.212691752E-01
 2.600000000E+00 -1.000000000E+00 7.215522429E-01
 2.650000000E+00 -1.000000000E+00 7.218004908E-01
 2.700000000E+00 -1.000000000E+00 7.220041882E-01
 2.750000000E+00 -1.000000000E+00 7.222000612E-01
 2.800000000E+00 -1.000000000E+00 7.224044217E-01
 2.850000000E+00 -1.000000000E+00 7.226631895E-01
 2.900000000E+00 -1.000000000E+00 7.227258753E-01
 2.950000000E+00 -1.000000000E+00 7.229786615E-01
 3.000000000E+00 -1.000000000E+00 7.230988769E-01
 3.050000000E+00 -1.000000000E+00 7.231843558E-01
 3.100000000E+00 -1.000000000E+00 7.232792008E-01
 3.150000000E+00 -1.000000000E+00 7.234265710E-01
 3.200000000E+00 -1.000000000E+00 7.235208966E-01
 3.250000000E+00 -1.000000000E+00 7.236982656E-01
 3.300000000E+00 -1.000000000E+00 7.239527206E-01
 3.350000000E+00 -1.000000000E+00 7.242726901E-01
 3.400000000E+00 -1.000000000E+00 7.247099761E-01
 3.450000000E+00 -1.000000000E+00 7.258698963E-01
 3.500000000E+00 -9.500000000E-01 7.295548653E-01
 3.500000000E+00 -9.000000000E-01 7.303296047E-01
 3.500000000E+00 -8.500000000E-01 7.308536826E-01
 3.500000000E+00 -8.000000000E-01 7.312356586E-01
 3.500000000E+00 -7.500000000E-01 7.315268597E-01
 3.500000000E+00 -7.000000000E-01 7.317926767E-01
 3.500000000E+00 -6.500000000E-01 7.320693247E-01
 3.500000000E+00 -6.000000000E-01 7.323773715E-01
 3.500000000E+00 -5.500000000E-01 7.327040752E-01
 3.500000000E+00 -5.000000000E-01 7.330343207E-01
 3.500000000E+00 -4.500000000E-01 7.333738067E-01
 3.500000000E+00 -4.000000000E-01 7.337234352E-01
 3.500000000E+00 -3.500000000E-01 7.340607952E-01
 3.500000000E+00 -3.000000000E-01 7.344057388E-01
 3.500000000E+00 -2.500000000E-01 7.347059381E-01
 3.500000000E+00 -2.000000000E-01 7.349327721E-01
 3.500000000E+00 -1.500000000E-01 7.350536722E-01
 3.500000000E+00 -1.000000000E-01 7.351034329E-01
 3.500000000E+00 -5.000000000E-02 7.351080295E-01
 3.500000000E+00 -2.752242878E-12 7.351046638E-01
 3.500000000E+00 5.000000000E-02 7.350646509E-01
 3.500000000E+00 1.000000000E-01 7.349269373E-01
 3.500000000E+00 1.500000000E-01 7.346836662E-01
 3.500000000E+00 2.000000000E-01 7.343695900E-01
 3.500000000E+00 2.500000000E-01 7.340260707E-01
 3.500000000E+00 3.000000000E-01 7.336793977E-01
 3.500000000E+00 3.500000000E-01 7.333430057E-01
 3.500000000E+00 4.000000000E-01 7.330044118E-01
 3.500000000E+00 4.500000000E-01 7.326525833E-01
 3.500000000E+00 5.000000000E-01 7.322348493E-01
 3.500000000E+00 5.500000000E-01 7.318171076E-01
 3.500000000E+00 6.000000000E-01 7.316048044E-01
 3.500000000E+00 6.500000000E-01 7.317835752E-01
 3.500000000E+00 7.000000000E-01 7.321923287E-01
 3.500000000E+00 7.500000000E-01 7.322946646E-01
 3.500000000E+00 8.000000000E-01 7.313101859E-01
 3.500000000E+00 8.500000000E-01 7.286510070E-01
 3.500000000E+00 9.000000000E-01 7.244949969E-01
 3.500000000E+00 9.500000000E-01 7.191859013E-01
 3.450000000E+00 1.000000000E+00 7.013518966E-01
 3.400000000E+00 1.000000000E+00 6.968757533E-01
 3.350000000E+00 1.000000000E+00 6.958660122E-01
 3.300000000E+00 1.000000000E+00 6.954042194E-01
 3.250000000E+00 1.000000000E+00 6.956032687E-01
 3.200000000E+00 1.000000000E+00 6.956817129E-01
 3.150000000E+00 1.000000000E+00 6.962471511E-01
 3.100000000E+00 1.000000000E+00 6.962301623E-01
 3.050000000E+00 1.000000000E+00 6.962868919E-01
 3.000000000E+00 1.000000000E+00 6.964974878E-01
 2.950000000E+00 1.000000000E+00 6.969357090E-01
 2.900000000E+00 1.000000000E+00 6.967473059E-01
 2.850000000E+00 1.000000000E+00 6.970590859E-01
 2.800000000E+00 1.000000000E+00 6.983566627E-01
 2.750000000E+00 1.000000000E+00 6.985915613E-01
 2.700000000E+00 1.000000000E+00 6.988706251E-01
 2.650000000E+00 1.000000000E+00 6.990543300E-01
 2.600000000E+00 1.000000000E+00 6.997584660E-01
 2.550000000E+00 1.000000000E+00 7.000986051E-01
 2.500000000E+00 1.000000000E+00 7.000897963E-01
 2.450000000E+00 1.000000000E+00 7.001736370E-01
 2.400000000E+00 1.000000000E+00 7.009236923E-01
 2.350000000E+00 1.000000000E+00 7.019073969E-01
 2.300000000E+00 1.000000000E+00 7.021669911E-01
 2.250000000E+00 1.000000000E+00 7.026696846E-01
 2.200000000E+00 1.000000000E+00 7.032120740E-01
 2.150000000E+00 1.000000000E+00 7.038480160E-01
 2.100000000E+00 1.000000000E+00 7.043252162E-01
 2.050000000E+00 1.000000000E+00 7.048222939E-01
 2.000000000E+00 1.000000000E+00 7.054050970E-01
 1.950000000E+00 1.000000000E+00 7.060232505E-01
 1.900000000E+00 1.000000000E+00 7.067020813E-01
 1.850000000E+00 1.000000000E+00 7.076773884E-01
 1.800000000E+00 1.000000000E+00 7.088827003E-01
 1.750000000E+00 1.000000000E+00 7.096672676E-01
 1.700000000E+00 1.000000000E+00 7.110860080E-01
 1.650000000E+00 1.000000000E+00 7.119292173E-01
 1.600000000E+00 1.000000000E+00 7.129667721E-01
 1.550000000E+00 1.000000000E+00 7.147275140E-01
 1.500000000E+00 1.000000000E+00 7.161473980E-01
 1.450000000E+00 1.000000000E+00 7.176934796E-01
 1.400000000E+00 1.000000000E+00 7.196588557E-01
 1.350000000E+00 1.000000000E+00 7.215730218E-01
 1.300000000E+00 1.000000000E+00 7.235052149E-01
 1.250000000E+00 1.000000000E+00 7.266332844E-01
 1.200000000E+00 1.000000000E+00 7.301767401E-01
 1.150000000E+00 1.000000000E+00 7.337455979E-01
 1.100000000E+00 1.000000000E+00 7.367927998E-01
 1.050000000E+00 1.000000000E+00 7.411982946E-01
 1.000000000E+00 1.000000000E+00 7.458060176E-01
 9.500000000E-01 1.000000000E+00 7.495407088E-01
 9.000000000E-01 1.000000000E+00 7.539691380E-01
 8.500000000E-01 1.000000000E+00 7.575270391E-01
 8.000000000E-01 1.000000000E+00 7.595475018E-01
 7.500000000E-01 1.000000000E+00 7.620595289E-01
 7.000000000E-01 1.000000000E+00 7.656136862E-01
 6.500000000E-01 1.000000000E+00 7.671468296E-01
 6.000000000E-01 1.000000000E+00 7.677222717E-01
 5.500000000E-01 1.000000000E+00 7.672095314E-01
 5.000000000E-01 1.000000000E+00 7.658380903E-01
 4.500000000E-01 1.000000000E+00 7.629894065E-01
 4.000000000E-01 1.000000000E+00 7.591921276E-01
 3.500000000E-01 1.000000000E+00 7.549671826E-01
 3.000000000E-01 1.000000000E+00 7.500876816E-01
 2.500000000E-01 1.000000000E+00 7.446999986E-01
 2.000000000E-01 1.000000000E+00 7.391982091E-01
 1.500000000E-01 1.000000000E+00 7.340801873E-01
 1.000000000E-01 1.000000000E+00 7.293636932E-01
 5.000000000E-02 1.000000000E+00 7.251661300E-01
 1.733724275E-12 1.000000000E+00 7.214186707E-01
 -5.000000000E-02 1.000000000E+00 7.185829222E-01
 -1.000000000E-01 1.000000000E+00 7.164825610E-01
 -1.500000000E-01 1.000000000E+00 7.150690937E-01
 -2.000000000E-01 1.000000000E+00 7.143334797E-01
 -2.500000000E-01 1.000000000E+00 7.143093748E-01
 -3.000000000E-01 1.000000000E+00 7.149664957E-01
 -3.500000000E-01 1.000000000E+00 7.162962345E-01
 -4.000000000E-01 1.000000000E+00 7.184437053E-01
 -4.500000000E-01 1.000000000E+00 7.218797970E-01
 9.862183208E-01 -4.253263255E-03 5.856891642E-01
 9.013592575E-01 -4.949381403E-03 5.945232968E-01
 8.226221401E-01 -1.236720604E-02 6.289860708E-01
 7.498801807E-01 -2.156860061E-02 6.693285859E-01
 6.792116296E-01 -3.199866867E-02 7.137408021E-01
 6.103378978E-01 -4.190779942E-02 7.644955427E-01
 5.458873548E-01 -5.194208398E-02 8.230431838E-01
 4.798079599E-01 -5.826192235E-02 9.028008490E-01
 4.240325806E-01 -6.385113252E-02 9.701491944E-01
 3.689416236E-01 -6.542248388E-02 1.031639572E+00
 3.172128408E-01 -6.537359331E-02 1.002616657E+00
 2.620551453E-01 -6.256252881E-02 9.649954103E-01
 2.067432795E-01 -5.847559806E-02 9.259500506E-01
 1.495391543E-01 -5.210198750E-02 8.900118578E-01
 9.941345747E-02 -4.417442056E-02 8.591963388E-01
 6.115447775E-02 -3.818042857E-02 8.218143791E-01
 2.499991004E-02 -2.592572633E-02 7.374614573E-01
 1.976437509E+00 -9.588083676E-01 7.187779969E-01
 1.975249898E+00 9.570977984E-01 7.159205961E-01