TITLE     = "Visualization of the solution"
VARIABLES = "x"
"y"
"Mach"
ZONE T="Zone"
 STRANDID=0, SOLUTIONTIME=0
 Nodes=12088, Elements=23597, ZONETYPE=FEQuadrilateral
 DATAPACKING=POINT
 DT=(DOUBLE DOUBLE DOUBLE )
 1.000308514E+00 5.250450922E-04 5.606778813E-01
 9.879018068E-01 2.658697544E-03 6.598536164E-01
 9.760090113E-01 4.666376859E-03 6.839896321E-01
 9.627915621E-01 6.972501986E-03 7.115781126E-01
 9.495907426E-01 9.212903678E-03 7.326908937E-01
 9.362494946E-01 1.136552729E-02 7.402805237E-01
 9.254274964E-01 1.318845991E-02 7.637257130E-01
 9.124202132E-01 1.523364242E-02 7.751361890E-01
 9.007603526E-01 1.702522114E-02 7.879943157E-01
 8.883877993E-01 1.885814965E-02 8.011862677E-01
 8.757127523E-01 2.061579563E-02 8.066962153E-01
 8.638972640E-01 2.221242897E-02 8.158230668E-01
 8.510006666E-01 2.384388261E-02 8.164187122E-01
 8.393903375E-01 2.530546114E-02 8.248996637E-01
 8.273726702E-01 2.673398145E-02 8.247664684E-01
 8.141975403E-01 2.828449383E-02 8.297261289E-01
 8.010345101E-01 2.980567329E-02 8.358641620E-01
 7.888790965E-01 3.115370125E-02 8.363108910E-01
 7.765280008E-01 3.254866600E-02 8.474515825E-01
 7.639008760E-01 3.389605880E-02 8.486010316E-01
 7.506781220E-01 3.529421240E-02 8.539033404E-01
 7.365630865E-01 3.676655889E-02 8.627856289E-01
 7.254958749E-01 3.788247705E-02 8.676503119E-01
 7.141147852E-01 3.900071979E-02 8.716133556E-01
 7.023814917E-01 4.013950378E-02 8.793859660E-01
 6.884977818E-01 4.144632816E-02 8.888193451E-01
 6.748979092E-01 4.265300930E-02 8.930871845E-01
 6.647363305E-01 4.353086650E-02 8.981453840E-01
 6.531076431E-01 4.450806230E-02 9.060660811E-01
 6.420502067E-01 4.540450871E-02 9.141521973E-01
 6.299713850E-01 4.632081091E-02 9.188193542E-01
 6.189960837E-01 4.712822661E-02 9.284691214E-01
 6.078551412E-01 4.788602144E-02 9.323729780E-01
 5.949351788E-01 4.870953411E-02 9.381855896E-01
 5.827798843E-01 4.942483827E-02 9.430735990E-01
 5.691705346E-01 5.016420037E-02 9.495348969E-01
 5.563734174E-01 5.078507960E-02 9.550185403E-01
 5.439102650E-01 5.133533478E-02 9.630245668E-01
 5.326610208E-01 5.175365135E-02 9.623344898E-01
 5.207159519E-01 5.214781687E-02 9.640489500E-01
 5.077374578E-01 5.250175670E-02 9.663502039E-01
 4.966552854E-01 5.275114998E-02 9.679106764E-01
 4.832764566E-01 5.297218263E-02 9.656111722E-01
 4.701849818E-01 5.310795829E-02 9.609669779E-01
 4.556010664E-01 5.318882689E-02 9.598832186E-01
 4.416119754E-01 5.318127573E-02 9.569889938E-01
 4.284101427E-01 5.310476571E-02 9.545838822E-01
 4.153750539E-01 5.295807868E-02 9.512039822E-01
 4.031146467E-01 5.275212973E-02 9.453038703E-01
 3.907038569E-01 5.248746648E-02 9.402100637E-01
 3.784960806E-01 5.217799917E-02 9.380846358E-01
 3.676289320E-01 5.185124651E-02 9.327014369E-01
 3.546741903E-01 5.140296370E-02 9.275677498E-01
 3.429423571E-01 5.095289648E-02 9.242564478E-01
 3.309113681E-01 5.043238029E-02 9.190718591E-01
 3.205542862E-01 4.994513839E-02 9.143314175E-01
 3.085541129E-01 4.934018105E-02 9.104327490E-01
 2.954491377E-01 4.862090573E-02 9.056793599E-01
 2.818913460E-01 4.781477898E-02 9.013034856E-01
 2.691691816E-01 4.699629545E-02 8.964523488E-01
 2.573576868E-01 4.618200287E-02 8.910272344E-01
 2.448645979E-01 4.527597502E-02 8.872593918E-01
 2.320884615E-01 4.428035021E-02 8.810741508E-01
 2.199326903E-01 4.328736663E-02 8.771827779E-01
 2.085644752E-01 4.231225699E-02 8.742689656E-01
 1.974626034E-01 4.130270705E-02 8.685516593E-01
 1.851917654E-01 4.013746977E-02 8.647622821E-01
 1.732163578E-01 3.893661126E-02 8.601113591E-01
 1.616898626E-01 3.772211447E-02 8.552395419E-01
 1.494634897E-01 3.637227044E-02 8.519021689E-01
 1.387460530E-01 3.512624651E-02 8.479490368E-01
 1.272725612E-01 3.372238204E-02 8.433137437E-01
 1.155481562E-01 3.220506012E-02 8.389688768E-01
 1.049226746E-01 3.075614385E-02 8.344587923E-01
 9.515987337E-02 2.935276926E-02 8.313923383E-01
 8.370365947E-02 2.759938687E-02 8.263407217E-01
 7.159060240E-02 2.559865825E-02 8.208646055E-01
 6.182894856E-02 2.386241592E-02 8.164929360E-01
 5.214306340E-02 2.198819630E-02 8.109607745E-01
 4.338616133E-02 2.013239637E-02 8.051532263E-01
 3.586937860E-02 1.838552207E-02 7.990677507E-01
 2.936793119E-02 1.671575010E-02 7.913141771E-01
 2.386000752E-02 1.514133811E-02 7.832872569E-01
 1.990803517E-02 1.389612909E-02 7.748170016E-01
 1.630714908E-02 1.265109424E-02 7.661331730E-01
 1.376535278E-02 1.167958509E-02 7.558505968E-01
 1.147467829E-02 1.073089335E-02 7.434529758E-01
 9.785783477E-03 9.965807199E-03 7.318117745E-01
 8.240026422E-03 9.209048003E-03 7.210484533E-01
 6.772827823E-03 8.423056453E-03 6.998519720E-01
 4.819893744E-03 7.247029804E-03 6.653398736E-01
 3.098845482E-03 6.024782546E-03 6.225934040E-01
 1.562060905E-03 4.683898296E-03 5.520461124E-01
 9.743798000E-05 2.958579455E-03 4.448403107E-01
 -6.921467721E-04 1.544952160E-03 3.208780372E-01
 -1.072465908E-03 4.127518041E-04 2.018145143E-01
 -1.253767288E-03 -9.780353867E-04 7.256242984E-02
 -1.076619024E-03 -2.624202287E-03 7.216370200E-02
 -4.124015104E-04 -4.445855971E-03 2.209243111E-01
 8.524145233E-04 -6.445291918E-03 3.519879878E-01
 2.769216429E-03 -8.553616703E-03 4.520094105E-01
 4.532023799E-03 -1.008229796E-02 5.145363972E-01
 6.630849559E-03 -1.163054910E-02 5.619167869E-01
 8.177199401E-03 -1.264511142E-02 5.979610515E-01
 1.011289284E-02 -1.379983313E-02 6.244712651E-01
 1.245184988E-02 -1.506712846E-02 6.521204055E-01
 1.559520233E-02 -1.660329849E-02 6.795476531E-01
 1.867523044E-02 -1.797174849E-02 7.051208825E-01
 2.256236598E-02 -1.953781396E-02 7.245989113E-01
 2.792458050E-02 -2.148373425E-02 7.445713915E-01
 3.351533413E-02 -2.331654914E-02 7.642734580E-01
 4.091950133E-02 -2.549105138E-02 7.808360568E-01
 4.832525551E-02 -2.745730802E-02 7.946645581E-01
 5.703223869E-02 -2.955876477E-02 8.062519701E-01
 6.565391272E-02 -3.146427497E-02 8.167068147E-01
 7.584326714E-02 -3.352693841E-02 8.250340430E-01
 8.567082882E-02 -3.538481146E-02 8.323950812E-01
 9.601757675E-02 -3.719083965E-02 8.415693298E-01
 1.066144556E-01 -3.892032802E-02 8.472579539E-01
 1.182057187E-01 -4.069275036E-02 8.543002064E-01
 1.294477880E-01 -4.230200499E-02 8.612385938E-01
 1.401502341E-01 -4.374716058E-02 8.676981036E-01
 1.510077417E-01 -4.513432458E-02 8.749219036E-01
 1.628445238E-01 -4.655129090E-02 8.806281487E-01
 1.745892912E-01 -4.787822440E-02 8.877048504E-01
 1.865604073E-01 -4.915271327E-02 8.958876214E-01
 1.970851719E-01 -5.019883066E-02 9.019960487E-01
 2.082494944E-01 -5.124635249E-02 9.088438480E-01
 2.206111401E-01 -5.232886598E-02 9.175827863E-01
 2.330676615E-01 -5.332692340E-02 9.240889466E-01
 2.455813885E-01 -5.426205322E-02 9.364406213E-01
 2.585088313E-01 -5.510750040E-02 9.416425055E-01
 2.700673342E-01 -5.580781773E-02 9.534990085E-01
 2.832609713E-01 -5.648994073E-02 9.617456936E-01
 2.963158190E-01 -5.706350505E-02 9.695943322E-01
 3.091220856E-01 -5.752917007E-02 9.805880259E-01
 3.210457861E-01 -5.786039680E-02 9.897340033E-01
 3.335497081E-01 -5.810805410E-02 9.995908852E-01
 3.442560434E-01 -5.822693929E-02 1.010380838E+00
 3.554746807E-01 -5.824771151E-02 1.011680394E+00
 3.667219579E-01 -5.818730593E-02 1.017556466E+00
 3.773857355E-01 -5.801142380E-02 1.012440902E+00
 3.889119625E-01 -5.775798112E-02 1.014426580E+00
 4.012116194E-01 -5.732940137E-02 1.008521831E+00
 4.133893847E-01 -5.678200722E-02 9.927632981E-01
 4.268057048E-01 -5.603567511E-02 9.749721326E-01
 4.398079515E-01 -5.518839136E-02 9.664721086E-01
 4.525520205E-01 -5.420013145E-02 9.483959906E-01
 4.649497867E-01 -5.312798172E-02 9.316918030E-01
 4.776481092E-01 -5.190941319E-02 9.160684067E-01
 4.892530441E-01 -5.069788173E-02 9.002821544E-01
 5.013906360E-01 -4.933522642E-02 8.831689584E-01
 5.148030519E-01 -4.773077741E-02 8.640663805E-01
 5.286095142E-01 -4.600280523E-02 8.477680180E-01
 5.419967771E-01 -4.425390810E-02 8.318195719E-01
 5.555028915E-01 -4.242239147E-02 8.155131837E-01
 5.682072639E-01 -4.068283364E-02 8.054570784E-01
 5.812481642E-01 -3.882158175E-02 7.892759080E-01
 5.932550430E-01 -3.709165752E-02 7.762757100E-01
 6.054591537E-01 -3.535477817E-02 7.694290448E-01
 6.183133125E-01 -3.347418085E-02 7.563104487E-01
 6.322640777E-01 -3.142698482E-02 7.436255497E-01
 6.459687948E-01 -2.945379354E-02 7.360962678E-01
 6.592873931E-01 -2.750718594E-02 7.236937257E-01
 6.730606556E-01 -2.554533444E-02 7.177413578E-01
 6.855748892E-01 -2.373734489E-02 7.069484454E-01
 6.980710626E-01 -2.195697092E-02 6.978175664E-01
 7.125996351E-01 -1.994979195E-02 6.919122731E-01
 7.252065539E-01 -1.819283888E-02 6.808255254E-01
 7.371188998E-01 -1.661829464E-02 6.785622622E-01
 7.490795851E-01 -1.500588842E-02 6.684970342E-01
 7.616079450E-01 -1.336278208E-02 6.604756928E-01
 7.742705345E-01 -1.176735479E-02 6.537399114E-01
 7.861899137E-01 -1.032402832E-02 6.490904696E-01
 7.986681461E-01 -8.847883902E-03 6.427482626E-01
 8.095289469E-01 -7.586133666E-03 6.348307418E-01
 8.207235932E-01 -6.347488146E-03 6.282266237E-01
 8.327538371E-01 -5.094755907E-03 6.219230415E-01
 8.449481726E-01 -3.921643831E-03 6.166711200E-01
 8.569899201E-01 -2.855432453E-03 6.114719874E-01
 8.691989183E-01 -1.882722485E-03 6.073888662E-01
 8.813515306E-01 -1.014044159E-03 6.024725501E-01
 8.946907520E-01 -2.140294673E-04 5.986021792E-01
 9.051594138E-01 2.845680865E-04 5.977549496E-01
 9.150615335E-01 6.830948405E-04 5.968584624E-01
 9.245474339E-01 9.692569729E-04 5.961472020E-01
 9.336215258E-01 1.168869901E-03 5.966434942E-01
 9.465079904E-01 1.324416720E-03 5.979102400E-01
 9.605101943E-01 1.337508438E-03 5.990249147E-01
 9.756290317E-01 1.174557605E-03 5.996069136E-01
 9.889696240E-01 8.804528625E-04 5.948732745E-01
 -5.000000000E-01 -1.000000000E+00 7.248034158E-01
 3.500000000E+00 -1.000000000E+00 7.278130985E-01
 3.500000000E+00 1.000000000E+00 7.174794982E-01
 -5.000000000E-01 1.000000000E+00 7.251087361E-01
 9.941051602E-01 1.591871318E-03 6.405969407E-01
 9.819554090E-01 3.662537201E-03 6.724573737E-01
 9.694002867E-01 5.819439422E-03 6.981925536E-01
 9.561911523E-01 8.092702832E-03 7.232812157E-01
 9.429201186E-01 1.028921548E-02 7.358218579E-01
 9.308384955E-01 1.227699360E-02 7.528412015E-01
 9.189238548E-01 1.421105117E-02 7.694108640E-01
 9.065902829E-01 1.612943178E-02 7.816037220E-01
 8.945740759E-01 1.794168539E-02 7.954042705E-01
 8.820502758E-01 1.973697264E-02 8.034690407E-01
 8.698050082E-01 2.141411230E-02 8.124447375E-01
 8.574489653E-01 2.302815579E-02 8.152720431E-01
 8.451955020E-01 2.457467187E-02 8.214638515E-01
 8.333815038E-01 2.601972129E-02 8.246027038E-01
 8.207851052E-01 2.750923764E-02 8.267784475E-01
 8.076160252E-01 2.904508356E-02 8.335094709E-01
 7.949568033E-01 3.047968727E-02 8.349735259E-01
 7.827035487E-01 3.185118362E-02 8.426715494E-01
 7.702144384E-01 3.322236240E-02 8.479406035E-01
 7.572894990E-01 3.459513560E-02 8.507887980E-01
 7.436206043E-01 3.603038564E-02 8.583388294E-01
 7.310294807E-01 3.732451797E-02 8.657048083E-01
 7.198053300E-01 3.844159842E-02 8.692320462E-01
 7.082481384E-01 3.957011178E-02 8.752188477E-01
 6.954396367E-01 4.079291597E-02 8.845892988E-01
 6.816978455E-01 4.204966873E-02 8.908031177E-01
 6.698171198E-01 4.309193790E-02 8.956944054E-01
 6.589219868E-01 4.401946440E-02 9.015515122E-01
 6.475789249E-01 4.495628551E-02 9.110285613E-01
 6.360107958E-01 4.586265981E-02 9.155526482E-01
 6.244837344E-01 4.672451876E-02 9.243095507E-01
 6.134256124E-01 4.750712402E-02 9.305370138E-01
 6.013951600E-01 4.829777777E-02 9.351713540E-01
 5.888575315E-01 4.906718619E-02 9.405596892E-01
 5.759752095E-01 4.979451932E-02 9.465128831E-01
 5.627719760E-01 5.047463998E-02 9.515791123E-01
 5.501418412E-01 5.106020719E-02 9.600686582E-01
 5.382856429E-01 5.154449306E-02 9.625658897E-01
 5.266884863E-01 5.195073411E-02 9.634960148E-01
 5.142267048E-01 5.232478678E-02 9.645496310E-01
 5.021963716E-01 5.262645334E-02 9.680215160E-01
 4.899658710E-01 5.286166631E-02 9.670668302E-01
 4.767307192E-01 5.304007046E-02 9.630427418E-01
 4.628930241E-01 5.314839259E-02 9.603933353E-01
 4.486065209E-01 5.318505131E-02 9.583949220E-01
 4.350110590E-01 5.314302072E-02 9.558397806E-01
 4.218925983E-01 5.303142220E-02 9.531042183E-01
 4.092448503E-01 5.285510421E-02 9.484253475E-01
 3.969092518E-01 5.261979811E-02 9.423076581E-01
 3.845999688E-01 5.233273283E-02 9.390807248E-01
 3.730625063E-01 5.201462284E-02 9.360754816E-01
 3.611515611E-01 5.162710510E-02 9.294675010E-01
 3.488082737E-01 5.117793009E-02 9.263117977E-01
 3.369268626E-01 5.069263838E-02 9.214337507E-01
 3.257328272E-01 5.018875934E-02 9.167391681E-01
 3.145541996E-01 4.964265972E-02 9.125352292E-01
 3.020016253E-01 4.898054339E-02 9.080398524E-01
 2.886702418E-01 4.821784236E-02 9.034612670E-01
 2.755302638E-01 4.740553722E-02 8.989313891E-01
 2.632634342E-01 4.658914916E-02 8.935247203E-01
 2.511111423E-01 4.572898895E-02 8.894904005E-01
 2.384765297E-01 4.477816261E-02 8.840020647E-01
 2.260105759E-01 4.378385842E-02 8.788101795E-01
 2.142485827E-01 4.279981181E-02 8.760032976E-01
 2.030135393E-01 4.180748202E-02 8.714470659E-01
 1.913271844E-01 4.072008841E-02 8.665582685E-01
 1.792040616E-01 3.953704052E-02 8.624327425E-01
 1.674531102E-01 3.832936287E-02 8.577491929E-01
 1.555766761E-01 3.704719245E-02 8.532582666E-01
 1.441047713E-01 3.574925847E-02 8.502383107E-01
 1.330093071E-01 3.442431428E-02 8.457441482E-01
 1.214103587E-01 3.296372108E-02 8.407900136E-01
 1.102354154E-01 3.148060199E-02 8.372043282E-01
 8.943176642E-02 2.847607806E-02 8.292534975E-01
 7.764713094E-02 2.659902256E-02 8.234719173E-01
 7.074858993E-02 -3.249560669E-02 8.218139858E-01
 9.084420279E-02 -3.628782555E-02 8.390215224E-01
 1.013160162E-01 -3.805558383E-02 8.441506755E-01
 1.124100871E-01 -3.980653919E-02 8.505476110E-01
 1.238267533E-01 -4.149737768E-02 8.579858816E-01
 1.347990111E-01 -4.302458279E-02 8.645798040E-01
 1.455789879E-01 -4.444074258E-02 8.712365518E-01
 1.569261327E-01 -4.584280774E-02 8.777719264E-01
 1.687169075E-01 -4.721475765E-02 8.841169152E-01
 1.805748492E-01 -4.851546884E-02 8.915396627E-01
 1.918227896E-01 -4.967577197E-02 8.995535410E-01
 2.026673332E-01 -5.072259158E-02 9.050720096E-01
 2.144303173E-01 -5.178760923E-02 9.129392722E-01
 2.268394008E-01 -5.282789469E-02 9.211267414E-01
 2.393245250E-01 -5.379448831E-02 9.295656753E-01
 2.520451099E-01 -5.468477681E-02 9.399520168E-01
 2.642880827E-01 -5.545765907E-02 9.467016702E-01
 2.766641527E-01 -5.614887923E-02 9.581500275E-01
 2.897883952E-01 -5.677672289E-02 9.654512677E-01
 3.027189523E-01 -5.729633756E-02 9.747510311E-01
 3.150839359E-01 -5.769478343E-02 9.857511822E-01
 3.272977471E-01 -5.798422545E-02 9.939487438E-01
 3.389028758E-01 -5.816749670E-02 1.005987248E+00
 3.498653620E-01 -5.823732540E-02 1.011794742E+00
 3.610983193E-01 -5.821750872E-02 1.013674307E+00
 3.720538467E-01 -5.809936486E-02 1.017445451E+00
 3.831488490E-01 -5.788470246E-02 1.011071091E+00
 3.950617909E-01 -5.754369125E-02 1.014148718E+00
 4.073005021E-01 -5.705570430E-02 1.001247616E+00
 4.200975448E-01 -5.640884116E-02 9.831541369E-01
 4.333068281E-01 -5.561203323E-02 9.701051542E-01
 4.461799860E-01 -5.469426140E-02 9.590972405E-01
 4.587509036E-01 -5.366405658E-02 9.391181562E-01
 4.712989479E-01 -5.251869746E-02 9.240312361E-01
 4.834505767E-01 -5.130364746E-02 9.084438629E-01
 4.953218400E-01 -5.001655407E-02 8.917833511E-01
 5.080968440E-01 -4.853300191E-02 8.737384272E-01
 5.217062831E-01 -4.686679132E-02 8.555194179E-01
 5.353031456E-01 -4.512835667E-02 8.399316238E-01
 5.487498343E-01 -4.333814979E-02 8.234574855E-01
 5.618550777E-01 -4.155261256E-02 8.101763187E-01
 5.747277141E-01 -3.975220770E-02 7.978669861E-01
 5.872516036E-01 -3.795661964E-02 7.822512616E-01
 5.993570983E-01 -3.622321784E-02 7.726391303E-01
 6.118862331E-01 -3.441447951E-02 7.634069305E-01
 6.252886951E-01 -3.245058283E-02 7.496996634E-01
 6.391164362E-01 -3.044038918E-02 7.397128821E-01
 6.526280940E-01 -2.848048974E-02 7.299051893E-01
 6.661740243E-01 -2.652626019E-02 7.205272966E-01
 6.793177724E-01 -2.464133967E-02 7.126467821E-01
 6.918229759E-01 -2.284715790E-02 7.020737603E-01
 7.053353488E-01 -2.095338143E-02 6.949072706E-01
 7.189030945E-01 -1.907131542E-02 6.864668025E-01
 7.311627269E-01 -1.740556676E-02 6.793090905E-01
 7.430992424E-01 -1.581209153E-02 6.738430607E-01
 7.553437650E-01 -1.418433525E-02 6.644077284E-01
 7.679392397E-01 -1.256506843E-02 6.569007823E-01
 7.802302241E-01 -1.104569156E-02 6.512596877E-01
 7.924290299E-01 -9.585956112E-03 6.462761600E-01
 8.040985465E-01 -8.217008784E-03 6.386759998E-01
 8.151262701E-01 -6.966810906E-03 6.314506624E-01
 8.267387152E-01 -5.721122026E-03 6.251125584E-01
 8.388510048E-01 -4.508199869E-03 6.192378797E-01
 8.509690464E-01 -3.388538142E-03 6.140342584E-01
 8.630944192E-01 -2.369077469E-03 6.094535288E-01
 8.752752244E-01 -1.448383322E-03 6.047839937E-01
 8.880211413E-01 -6.140368132E-04 6.008470040E-01
 8.999250829E-01 3.526930959E-05 5.976850815E-01
 9.400647581E-01 1.246643311E-03 5.974124659E-01
 9.535090923E-01 1.330962579E-03 5.986286875E-01
 9.680696130E-01 1.256033021E-03 5.997747863E-01
 9.822993279E-01 1.027505234E-03 5.980046573E-01
 9.946390688E-01 7.027489773E-04 5.929299633E-01
 -5.000000000E-01 9.500000000E-01 7.232264469E-01
 -5.000000000E-01 9.000000000E-01 7.202597357E-01
 -5.000000000E-01 8.500000000E-01 7.179957501E-01
 -5.000000000E-01 8.000000000E-01 7.159986187E-01
 -5.000000000E-01 7.500000000E-01 7.140769032E-01
 -5.000000000E-01 7.000000000E-01 7.121637624E-01
 -5.000000000E-01 6.500000000E-01 7.102601562E-01
 -5.000000000E-01 6.000000000E-01 7.083151857E-01
 -5.000000000E-01 5.500000000E-01 7.063218430E-01
 -5.000000000E-01 5.000000000E-01 7.042557259E-01
 -5.000000000E-01 4.500000000E-01 7.021349233E-01
 -5.000000000E-01 4.000000000E-01 7.000706500E-01
 -5.000000000E-01 3.500000000E-01 6.979848040E-01
 -5.000000000E-01 3.000000000E-01 6.960075675E-01
 -5.000000000E-01 2.500000000E-01 6.941350655E-01
 -5.000000000E-01 2.000000000E-01 6.924654096E-01
 -5.000000000E-01 1.500000000E-01 6.910737847E-01
 -5.000000000E-01 1.000000000E-01 6.899847453E-01
 -5.000000000E-01 5.000000000E-02 6.892651142E-01
 -5.000000000E-01 2.752242878E-12 6.889686233E-01
 -5.000000000E-01 -5.000000000E-02 6.890762482E-01
 -5.000000000E-01 -1.000000000E-01 6.895835847E-01
 -5.000000000E-01 -1.500000000E-01 6.904898023E-01
 -5.000000000E-01 -2.000000000E-01 6.917709044E-01
 -5.000000000E-01 -2.500000000E-01 6.932343044E-01
 -5.000000000E-01 -3.000000000E-01 6.950028233E-01
 -5.000000000E-01 -3.500000000E-01 6.969097450E-01
 -5.000000000E-01 -4.000000000E-01 6.989322134E-01
 -5.000000000E-01 -4.500000000E-01 7.009762034E-01
 -5.000000000E-01 -5.000000000E-01 7.030530723E-01
 -5.000000000E-01 -5.500000000E-01 7.051164802E-01
 -5.000000000E-01 -6.000000000E-01 7.071478236E-01
 -5.000000000E-01 -6.500000000E-01 7.091435869E-01
 -5.000000000E-01 -7.000000000E-01 7.111141553E-01
 -5.000000000E-01 -7.500000000E-01 7.130799713E-01
 -5.000000000E-01 -8.000000000E-01 7.150772158E-01
 -5.000000000E-01 -8.500000000E-01 7.171814765E-01
 -5.000000000E-01 -9.000000000E-01 7.196114386E-01
 -5.000000000E-01 -9.500000000E-01 7.227795872E-01
 -4.500000000E-01 -1.000000000E+00 7.226379256E-01
 -4.000000000E-01 -1.000000000E+00 7.195725842E-01
 -3.500000000E-01 -1.000000000E+00 7.176349249E-01
 -3.000000000E-01 -1.000000000E+00 7.163326858E-01
 -2.500000000E-01 -1.000000000E+00 7.156184531E-01
 -2.000000000E-01 -1.000000000E+00 7.154426629E-01
 -1.500000000E-01 -1.000000000E+00 7.158014707E-01
 -1.000000000E-01 -1.000000000E+00 7.167115171E-01
 -5.000000000E-02 -1.000000000E+00 7.181925935E-01
 -9.424683256E-13 -1.000000000E+00 7.201599324E-01
 5.000000000E-02 -1.000000000E+00 7.225968775E-01
 1.000000000E-01 -1.000000000E+00 7.254722179E-01
 1.500000000E-01 -1.000000000E+00 7.286482171E-01
 2.000000000E-01 -1.000000000E+00 7.319969098E-01
 2.500000000E-01 -1.000000000E+00 7.352926756E-01
 3.000000000E-01 -1.000000000E+00 7.384113237E-01
 3.500000000E-01 -1.000000000E+00 7.411146705E-01
 4.000000000E-01 -1.000000000E+00 7.431905080E-01
 4.500000000E-01 -1.000000000E+00 7.445865040E-01
 5.000000000E-01 -1.000000000E+00 7.452982285E-01
 5.500000000E-01 -1.000000000E+00 7.454327859E-01
 6.000000000E-01 -1.000000000E+00 7.448197348E-01
 6.500000000E-01 -1.000000000E+00 7.435376249E-01
 7.000000000E-01 -1.000000000E+00 7.418678440E-01
 7.500000000E-01 -1.000000000E+00 7.396003196E-01
 8.000000000E-01 -1.000000000E+00 7.372668150E-01
 8.500000000E-01 -1.000000000E+00 7.347058128E-01
 9.000000000E-01 -1.000000000E+00 7.321854646E-01
 9.500000000E-01 -1.000000000E+00 7.297678414E-01
 1.000000000E+00 -1.000000000E+00 7.274425774E-01
 1.050000000E+00 -1.000000000E+00 7.253562716E-01
 1.100000000E+00 -1.000000000E+00 7.234600629E-01
 1.150000000E+00 -1.000000000E+00 7.218303771E-01
 1.200000000E+00 -1.000000000E+00 7.203478099E-01
 1.250000000E+00 -1.000000000E+00 7.191865181E-01
 1.300000000E+00 -1.000000000E+00 7.183054708E-01
 1.350000000E+00 -1.000000000E+00 7.176380625E-01
 1.400000000E+00 -1.000000000E+00 7.171449316E-01
 1.450000000E+00 -1.000000000E+00 7.168211692E-01
 1.500000000E+00 -1.000000000E+00 7.166448575E-01
 1.550000000E+00 -1.000000000E+00 7.165793474E-01
 1.600000000E+00 -1.000000000E+00 7.166242608E-01
 1.650000000E+00 -1.000000000E+00 7.167372548E-01
 1.700000000E+00 -1.000000000E+00 7.169684706E-01
 1.750000000E+00 -1.000000000E+00 7.171696840E-01
 1.800000000E+00 -1.000000000E+00 7.175187823E-01
 1.850000000E+00 -1.000000000E+00 7.176888925E-01
 1.900000000E+00 -1.000000000E+00 7.180508826E-01
 1.950000000E+00 -1.000000000E+00 7.184398643E-01
 2.000000000E+00 -1.000000000E+00 7.187978468E-01
 2.050000000E+00 -1.000000000E+00 7.191661303E-01
 2.100000000E+00 -1.000000000E+00 7.195476756E-01
 2.150000000E+00 -1.000000000E+00 7.199110402E-01
 2.200000000E+00 -1.000000000E+00 7.201590834E-01
 2.250000000E+00 -1.000000000E+00 7.204298030E-01
 2.300000000E+00 -1.000000000E+00 7.207106445E-01
 2.350000000E+00 -1.000000000E+00 7.209908612E-01
 2.400000000E+00 -1.000000000E+00 7.212458672E-01
 2.450000000E+00 -1.000000000E+00 7.215082527E-01
 2.500000000E+00 -1.000000000E+00 7.217430836E-01
 2.550000000E+00 -1.000000000E+00 7.219941992E-01
 2.600000000E+00 -1.000000000E+00 7.221951974E-01
 2.650000000E+00 -1.000000000E+00 7.223763982E-01
 2.700000000E+00 -1.000000000E+00 7.225541817E-01
 2.750000000E+00 -1.000000000E+00 7.227292428E-01
 2.800000000E+00 -1.000000000E+00 7.228391993E-01
 2.850000000E+00 -1.000000000E+00 7.229736097E-01
 2.900000000E+00 -1.000000000E+00 7.230823382E-01
 2.950000000E+00 -1.000000000E+00 7.231789855E-01
 3.000000000E+00 -1.000000000E+00 7.233330774E-01
 3.050000000E+00 -1.000000000E+00 7.234285679E-01
 3.100000000E+00 -1.000000000E+00 7.235152287E-01
 3.150000000E+00 -1.000000000E+00 7.236125121E-01
 3.200000000E+00 -1.000000000E+00 7.237242979E-01
 3.250000000E+00 -1.000000000E+00 7.238658543E-01
 3.300000000E+00 -1.000000000E+00 7.239932295E-01
 3.350000000E+00 -1.000000000E+00 7.242730478E-01
 3.400000000E+00 -1.000000000E+00 7.246438173E-01
 3.450000000E+00 -1.000000000E+00 7.256254371E-01
 3.500000000E+00 -9.500000000E-01 7.292322967E-01
 3.500000000E+00 -9.000000000E-01 7.300344394E-01
 3.500000000E+00 -8.500000000E-01 7.305602070E-01
 3.500000000E+00 -8.000000000E-01 7.308931246E-01
 3.500000000E+00 -7.500000000E-01 7.311113311E-01
 3.500000000E+00 -7.000000000E-01 7.312821483E-01
 3.500000000E+00 -6.500000000E-01 7.315022560E-01
 3.500000000E+00 -6.000000000E-01 7.317597471E-01
 3.500000000E+00 -5.500000000E-01 7.320386991E-01
 3.500000000E+00 -5.000000000E-01 7.323090155E-01
 3.500000000E+00 -4.500000000E-01 7.325914075E-01
 3.500000000E+00 -4.000000000E-01 7.328660700E-01
 3.500000000E+00 -3.500000000E-01 7.331491636E-01
 3.500000000E+00 -3.000000000E-01 7.334251620E-01
 3.500000000E+00 -2.500000000E-01 7.336931475E-01
 3.500000000E+00 -2.000000000E-01 7.338899648E-01
 3.500000000E+00 -1.500000000E-01 7.339903211E-01
 3.500000000E+00 -1.000000000E-01 7.340187088E-01
 3.500000000E+00 -5.000000000E-02 7.340084861E-01
 3.500000000E+00 -2.752242878E-12 7.340049538E-01
 3.500000000E+00 5.000000000E-02 7.339724812E-01
 3.500000000E+00 1.000000000E-01 7.338584279E-01
 3.500000000E+00 1.500000000E-01 7.336820525E-01
 3.500000000E+00 2.000000000E-01 7.334660506E-01
 3.500000000E+00 2.500000000E-01 7.331942097E-01
 3.500000000E+00 3.000000000E-01 7.329090576E-01
 3.500000000E+00 3.500000000E-01 7.326313372E-01
 3.500000000E+00 4.000000000E-01 7.323668118E-01
 3.500000000E+00 4.500000000E-01 7.320882193E-01
 3.500000000E+00 5.000000000E-01 7.317680221E-01
 3.500000000E+00 5.500000000E-01 7.314303039E-01
 3.500000000E+00 6.000000000E-01 7.311833847E-01
 3.500000000E+00 6.500000000E-01 7.311688245E-01
 3.500000000E+00 7.000000000E-01 7.313445454E-01
 3.500000000E+00 7.500000000E-01 7.314363673E-01
 3.500000000E+00 8.000000000E-01 7.310742512E-01
 3.500000000E+00 8.500000000E-01 7.297446636E-01
 3.500000000E+00 9.000000000E-01 7.270270645E-01
 3.500000000E+00 9.500000000E-01 7.230114616E-01
 3.450000000E+00 1.000000000E+00 7.099111226E-01
 3.400000000E+00 1.000000000E+00 7.069477336E-01
 3.350000000E+00 1.000000000E+00 7.065126940E-01
 3.300000000E+00 1.000000000E+00 7.066192931E-01
 3.250000000E+00 1.000000000E+00 7.066064397E-01
 3.200000000E+00 1.000000000E+00 7.067289677E-01
 3.150000000E+00 1.000000000E+00 7.069265039E-01
 3.100000000E+00 1.000000000E+00 7.070921004E-01
 3.050000000E+00 1.000000000E+00 7.072608123E-01
 3.000000000E+00 1.000000000E+00 7.074613933E-01
 2.950000000E+00 1.000000000E+00 7.077699515E-01
 2.900000000E+00 1.000000000E+00 7.079753118E-01
 2.850000000E+00 1.000000000E+00 7.080174146E-01
 2.800000000E+00 1.000000000E+00 7.083817242E-01
 2.750000000E+00 1.000000000E+00 7.090817362E-01
 2.700000000E+00 1.000000000E+00 7.094449896E-01
 2.650000000E+00 1.000000000E+00 7.095073999E-01
 2.600000000E+00 1.000000000E+00 7.097674344E-01
 2.550000000E+00 1.000000000E+00 7.099660985E-01
 2.500000000E+00 1.000000000E+00 7.100138358E-01
 2.450000000E+00 1.000000000E+00 7.103177096E-01
 2.400000000E+00 1.000000000E+00 7.106281016E-01
 2.350000000E+00 1.000000000E+00 7.110150244E-01
 2.300000000E+00 1.000000000E+00 7.113987231E-01
 2.250000000E+00 1.000000000E+00 7.118190641E-01
 2.200000000E+00 1.000000000E+00 7.121873001E-01
 2.150000000E+00 1.000000000E+00 7.123964888E-01
 2.100000000E+00 1.000000000E+00 7.129371602E-01
 2.050000000E+00 1.000000000E+00 7.135893207E-01
 2.000000000E+00 1.000000000E+00 7.144146931E-01
 1.950000000E+00 1.000000000E+00 7.150041665E-01
 1.900000000E+00 1.000000000E+00 7.156006907E-01
 1.850000000E+00 1.000000000E+00 7.162890335E-01
 1.800000000E+00 1.000000000E+00 7.169291977E-01
 1.750000000E+00 1.000000000E+00 7.178158858E-01
 1.700000000E+00 1.000000000E+00 7.188759885E-01
 1.650000000E+00 1.000000000E+00 7.198510074E-01
 1.600000000E+00 1.000000000E+00 7.209227977E-01
 1.550000000E+00 1.000000000E+00 7.223372233E-01
 1.500000000E+00 1.000000000E+00 7.238255573E-01
 1.450000000E+00 1.000000000E+00 7.253234446E-01
 1.400000000E+00 1.000000000E+00 7.269666437E-01
 1.350000000E+00 1.000000000E+00 7.287779110E-01
 1.300000000E+00 1.000000000E+00 7.312621215E-01
 1.250000000E+00 1.000000000E+00 7.338207325E-01
 1.200000000E+00 1.000000000E+00 7.367351306E-01
 1.150000000E+00 1.000000000E+00 7.391937641E-01
 1.100000000E+00 1.000000000E+00 7.415429501E-01
 1.050000000E+00 1.000000000E+00 7.444380436E-01
 1.000000000E+00 1.000000000E+00 7.485540654E-01
 9.500000000E-01 1.000000000E+00 7.514523222E-01
 9.000000000E-01 1.000000000E+00 7.541397551E-01
 8.500000000E-01 1.000000000E+00 7.564211900E-01
 8.000000000E-01 1.000000000E+00 7.586145061E-01
 7.500000000E-01 1.000000000E+00 7.600020184E-01
 7.000000000E-01 1.000000000E+00 7.614380685E-01
 6.500000000E-01 1.000000000E+00 7.618854155E-01
 6.000000000E-01 1.000000000E+00 7.611391683E-01
 5.500000000E-01 1.000000000E+00 7.600790318E-01
 5.000000000E-01 1.000000000E+00 7.583191627E-01
 4.500000000E-01 1.000000000E+00 7.557459456E-01
 4.000000000E-01 1.000000000E+00 7.527439326E-01
 3.500000000E-01 1.000000000E+00 7.489773369E-01
 3.000000000E-01 1.000000000E+00 7.450199060E-01
 2.500000000E-01 1.000000000E+00 7.408201983E-01
 2.000000000E-01 1.000000000E+00 7.365146962E-01
 1.500000000E-01 1.000000000E+00 7.323265232E-01
 1.000000000E-01 1.000000000E+00 7.284333651E-01
 5.000000000E-02 1.000000000E+00 7.251064845E-01
 1.733724275E-12 1.000000000E+00 7.223513230E-01
 -5.000000000E-02 1.000000000E+00 7.200745441E-01
 -1.000000000E-01 1.000000000E+00 7.183598186E-01
 -1.500000000E-01 1.000000000E+00 7.172142518E-01
 -2.000000000E-01 1.000000000E+00 7.167303377E-01
 -2.500000000E-01 1.000000000E+00 7.167881685E-01
 -3.000000000E-01 1.000000000E+00 7.174121283E-01
 -3.500000000E-01 1.000000000E+00 7.185002873E-01
 -4.000000000E-01 1.000000000E+00 7.202866849E-01
 -4.500000000E-01 1.000000000E+00 7.231277659E-01
 8.971398086E-01 -4.977135862E-03 6.014301569E-01
 8.184612809E-01 -1.150457359E-02 6.320680543E-01
 7.467882997E-01 -2.095151256E-02 6.724089333E-01
 6.768275492E-01 -3.043697353E-02 7.156751845E-01
 9.788857015E-01 -4.814779475E-03 6.029995841E-01
 6.087073576E-01 -4.092332059E-02 7.665833909E-01
 5.467438532E-01 -5.038592473E-02 8.255929685E-01
 4.810334944E-01 -5.641768573E-02 9.091233402E-01
 4.240730653E-01 -6.221279920E-02 9.738697929E-01
 3.641491330E-01 -6.327267148E-02 1.010906367E+00
 3.112118095E-01 -6.270478897E-02 9.788678028E-01
 2.549190439E-01 -6.001003841E-02 9.383913882E-01
 1.940009987E-01 -5.449465810E-02 8.986215981E-01
 1.368724695E-01 -4.796865477E-02 8.635641415E-01
 9.272587172E-02 -4.092506288E-02 8.361676251E-01
 5.154515264E-02 -3.552750140E-02 7.884646440E-01
 1.594896696E-02 -2.021073845E-02 6.746092020E-01
 1.977711087E+00 -9.581114170E-01 7.204403454E-01
 1.975336256E+00 9.569036940E-01 7.233882667E-01
 9.343982733E-01 1.675755846E-02 7.470902893E-01
 8.793573217E-01 2.510984856E-02 8.034914182E-01