TITLE     = "Visualization of the solution"
VARIABLES = "x"
"y"
"Mach"
ZONE T="Zone"
 STRANDID=0, SOLUTIONTIME=0
 Nodes=12085, Elements=23592, ZONETYPE=FEQuadrilateral
 DATAPACKING=POINT
 DT=(DOUBLE DOUBLE DOUBLE )
 9.999154806E-01 5.120345159E-04 5.455168947E-01
 9.869501591E-01 2.970709465E-03 6.536754234E-01
 9.739670157E-01 5.421915557E-03 6.809924225E-01
 9.578325748E-01 8.456689306E-03 7.052992105E-01
 9.428396821E-01 1.123230066E-02 7.201743505E-01
 9.285549521E-01 1.390603837E-02 7.376703862E-01
 9.168753624E-01 1.609082893E-02 7.545488687E-01
 9.043599367E-01 1.835705712E-02 7.648518579E-01
 8.924997449E-01 2.050106227E-02 7.807661799E-01
 8.800237775E-01 2.264698595E-02 7.853427443E-01
 8.677475452E-01 2.478755452E-02 8.029596002E-01
 8.554080725E-01 2.682798170E-02 8.095377329E-01
 8.428803086E-01 2.883985080E-02 8.134490819E-01
 8.319689035E-01 3.061557747E-02 8.286376990E-01
 8.203037977E-01 3.240027651E-02 8.286222825E-01
 8.078384399E-01 3.432048857E-02 8.392226107E-01
 7.952444553E-01 3.621948138E-02 8.496743616E-01
 7.830260992E-01 3.798417747E-02 8.515264418E-01
 7.709665895E-01 3.971304372E-02 8.585585524E-01
 7.595032454E-01 4.136371985E-02 8.731288231E-01
 7.464527488E-01 4.312555864E-02 8.720896797E-01
 7.331275940E-01 4.494773597E-02 8.879378449E-01
 7.226601243E-01 4.633591697E-02 8.982634797E-01
 7.115718126E-01 4.773462564E-02 8.991875779E-01
 7.001198530E-01 4.916189238E-02 9.071661313E-01
 6.869839430E-01 5.077582225E-02 9.206751275E-01
 6.740642190E-01 5.227809027E-02 9.318498527E-01
 6.640589237E-01 5.342024565E-02 9.404750351E-01
 6.525375247E-01 5.466027930E-02 9.445120898E-01
 6.411603093E-01 5.583050102E-02 9.498724901E-01
 6.295930147E-01 5.702105165E-02 9.693106532E-01
 6.182578802E-01 5.808825418E-02 9.747607236E-01
 6.076627374E-01 5.904891342E-02 9.835358257E-01
 5.952774882E-01 6.009710953E-02 9.883292789E-01
 5.837368369E-01 6.102886423E-02 9.864469348E-01
 5.703787208E-01 6.200935319E-02 9.986020927E-01
 5.579166412E-01 6.285943091E-02 1.049516402E+00
 5.454617143E-01 6.360849738E-02 1.069853888E+00
 5.343601108E-01 6.419511139E-02 1.069555101E+00
 5.226450562E-01 6.478270888E-02 1.070933024E+00
 5.101162195E-01 6.532976776E-02 1.062916588E+00
 4.988932014E-01 6.573409587E-02 1.055246650E+00
 4.855916202E-01 6.614562869E-02 1.051686184E+00
 4.721131623E-01 6.644736230E-02 1.047314384E+00
 4.580469131E-01 6.671374291E-02 1.046375440E+00
 4.444286823E-01 6.685487181E-02 1.032941014E+00
 4.314019978E-01 6.690829992E-02 1.025876492E+00
 4.184268117E-01 6.689585000E-02 1.020612143E+00
 4.059259593E-01 6.680049002E-02 1.012039224E+00
 3.933458626E-01 6.663949043E-02 1.010504634E+00
 3.811348677E-01 6.643213332E-02 1.008279343E+00
 3.695484996E-01 6.614941359E-02 9.983908210E-01
 3.563129008E-01 6.577678770E-02 9.940753193E-01
 3.436488509E-01 6.532779336E-02 9.862493045E-01
 3.307588696E-01 6.481887400E-02 9.854711373E-01
 3.198402226E-01 6.431347877E-02 9.761946911E-01
 3.072242737E-01 6.366827339E-02 9.694956139E-01
 2.939464450E-01 6.291839480E-02 9.645902332E-01
 2.800656557E-01 6.204900146E-02 9.606243882E-01
 2.677389681E-01 6.119440868E-02 9.544850766E-01
 2.559024394E-01 6.029953063E-02 9.468614037E-01
 2.434522212E-01 5.929213390E-02 9.415351722E-01
 2.311679721E-01 5.821951851E-02 9.358172860E-01
 2.189215273E-01 5.707311258E-02 9.310379838E-01
 2.072651088E-01 5.590048060E-02 9.244410218E-01
 1.957911402E-01 5.466610938E-02 9.169029108E-01
 1.836425811E-01 5.328625441E-02 9.120752072E-01
 1.719061136E-01 5.185262486E-02 9.044928853E-01
 1.605325788E-01 5.038502067E-02 8.986057614E-01
 1.487556100E-01 4.875924438E-02 8.914532080E-01
 1.382122189E-01 4.721636325E-02 8.836852136E-01
 1.268007606E-01 4.544346035E-02 8.758762485E-01
 1.155421883E-01 4.357803985E-02 8.684655807E-01
 1.050089449E-01 4.171720520E-02 8.583434579E-01
 9.541381150E-02 3.991544619E-02 8.514151757E-01
 8.446525037E-02 3.772005811E-02 8.397300270E-01
 7.281832397E-02 3.519969434E-02 8.274232871E-01
 6.305070221E-02 3.290668875E-02 8.150819958E-01
 5.335898325E-02 3.043108620E-02 8.004204807E-01
 4.467655346E-02 2.801223658E-02 7.854085950E-01
 3.715978935E-02 2.572206594E-02 7.683874405E-01
 3.053688072E-02 2.351776697E-02 7.495452221E-01
 2.488156967E-02 2.145242319E-02 7.342369837E-01
 2.076696232E-02 1.980422437E-02 7.151670030E-01
 1.684574224E-02 1.809991710E-02 6.964051830E-01
 1.389770117E-02 1.669868641E-02 6.767280064E-01
 1.120351255E-02 1.530099101E-02 6.549556176E-01
 9.214258753E-03 1.417387649E-02 6.344960380E-01
 7.459790912E-03 1.310343761E-02 6.136155133E-01
 5.829939153E-03 1.200979482E-02 5.831310954E-01
 3.709473880E-03 1.040384360E-02 5.374494649E-01
 1.884465222E-03 8.754444309E-03 4.844866208E-01
 3.544715873E-04 7.038526237E-03 4.003487912E-01
 -1.107377349E-03 4.689216614E-03 2.773116366E-01
 -1.746473601E-03 2.879876643E-03 1.649933258E-01
 -1.958273817E-03 1.433701953E-03 4.475184793E-02
 -1.890156185E-03 -1.778375299E-04 7.874617126E-02
 -1.472507021E-03 -1.879158779E-03 2.026193853E-01
 -5.515902885E-04 -3.877023235E-03 3.192352581E-01
 8.827007841E-04 -5.943263881E-03 4.212133355E-01
 2.888674848E-03 -8.094665594E-03 5.045304580E-01
 4.711217713E-03 -9.680420160E-03 5.631164013E-01
 6.799325347E-03 -1.125225425E-02 6.047423998E-01
 8.437583223E-03 -1.235407125E-02 6.371296505E-01
 1.050357707E-02 -1.362054143E-02 6.618100887E-01
 1.287406124E-02 -1.494325045E-02 6.873002576E-01
 1.613479108E-02 -1.658704132E-02 7.138341677E-01
 1.911176369E-02 -1.795337535E-02 7.373954702E-01
 2.295370027E-02 -1.956444606E-02 7.547287811E-01
 2.827945352E-02 -2.157243714E-02 7.722958940E-01
 3.398595750E-02 -2.350962535E-02 7.905155670E-01
 4.106078297E-02 -2.566953935E-02 8.054763004E-01
 4.852141067E-02 -2.773694135E-02 8.176338513E-01
 5.733386427E-02 -2.994355559E-02 8.273799658E-01
 6.599157304E-02 -3.192804009E-02 8.369918256E-01
 7.606593519E-02 -3.404097259E-02 8.444579081E-01
 8.593198657E-02 -3.596317396E-02 8.505289093E-01
 9.622891992E-02 -3.781541437E-02 8.583499060E-01
 1.071497649E-01 -3.965102136E-02 8.643223557E-01
 1.184585616E-01 -4.142556340E-02 8.706430515E-01
 1.300347298E-01 -4.312795401E-02 8.776154261E-01
 1.406046450E-01 -4.458396882E-02 8.832459625E-01
 1.516634673E-01 -4.602221027E-02 8.891767704E-01
 1.636768878E-01 -4.748939723E-02 8.955186044E-01
 1.752703637E-01 -4.881925136E-02 9.029178423E-01
 1.871600598E-01 -5.009755120E-02 9.101201949E-01
 1.977417171E-01 -5.116062984E-02 9.164908924E-01
 2.090137601E-01 -5.222680047E-02 9.239742978E-01
 2.212386578E-01 -5.329196900E-02 9.309961168E-01
 2.336937487E-01 -5.429579690E-02 9.402815000E-01
 2.458014190E-01 -5.517257750E-02 9.469157773E-01
 2.582288384E-01 -5.598938838E-02 9.541545165E-01
 2.694419324E-01 -5.665612593E-02 9.658699935E-01
 2.821852863E-01 -5.731036142E-02 9.748594533E-01
 2.946219742E-01 -5.784148723E-02 9.808573479E-01
 3.074045479E-01 -5.829633400E-02 9.920050308E-01
 3.191425502E-01 -5.860372633E-02 1.001479549E+00
 3.316867948E-01 -5.882860720E-02 1.008609148E+00
 3.424155116E-01 -5.891806260E-02 1.012247556E+00
 3.539738357E-01 -5.893829837E-02 1.020232112E+00
 3.648818433E-01 -5.883780494E-02 1.022161581E+00
 3.757173717E-01 -5.865156651E-02 1.016621354E+00
 3.874037862E-01 -5.834281445E-02 1.008651239E+00
 4.004543722E-01 -5.786675960E-02 9.992912673E-01
 4.128440619E-01 -5.727031827E-02 9.852004301E-01
 4.260264933E-01 -5.651999265E-02 9.748430120E-01
 4.385705888E-01 -5.564575270E-02 9.571389750E-01
 4.510916770E-01 -5.466641113E-02 9.413648837E-01
 4.631921351E-01 -5.359350890E-02 9.232686948E-01
 4.756616354E-01 -5.240247399E-02 9.092569267E-01
 4.873735011E-01 -5.118237436E-02 8.936345585E-01
 4.998956919E-01 -4.978842661E-02 8.759324138E-01
 5.137887001E-01 -4.815665632E-02 8.600463743E-01
 5.273883939E-01 -4.646528885E-02 8.432706521E-01
 5.406385064E-01 -4.475264624E-02 8.277598293E-01
 5.536402464E-01 -4.302155599E-02 8.139192908E-01
 5.668455362E-01 -4.121687636E-02 8.000926825E-01
 5.800587535E-01 -3.939272463E-02 7.903854186E-01
 5.921663046E-01 -3.765276819E-02 7.744263372E-01
 6.047256589E-01 -3.586596251E-02 7.644321552E-01
 6.186683774E-01 -3.387799859E-02 7.542227295E-01
 6.331477761E-01 -3.180466220E-02 7.441382215E-01
 6.474214196E-01 -2.973423526E-02 7.316821566E-01
 6.605388522E-01 -2.784581855E-02 7.218982385E-01
 6.741663218E-01 -2.591294236E-02 7.144813188E-01
 6.867195964E-01 -2.413148619E-02 7.060763702E-01
 6.991076469E-01 -2.237893455E-02 6.968043864E-01
 7.136415839E-01 -2.035680786E-02 6.883292729E-01
 7.267225385E-01 -1.856344007E-02 6.797645041E-01
 7.388096452E-01 -1.696783677E-02 6.769314334E-01
 7.514176965E-01 -1.524259895E-02 6.625032157E-01
 7.640287280E-01 -1.363845821E-02 6.594439617E-01
 7.771497965E-01 -1.199099328E-02 6.521531793E-01
 7.891630530E-01 -1.052125171E-02 6.455563307E-01
 8.018766642E-01 -8.998255245E-03 6.374659382E-01
 8.128059506E-01 -7.741086185E-03 6.306709398E-01
 8.243005872E-01 -6.487684790E-03 6.251072030E-01
 8.370157480E-01 -5.181915592E-03 6.200232869E-01
 8.490841389E-01 -3.985071555E-03 6.113179012E-01
 8.611440659E-01 -2.901393455E-03 6.059149062E-01
 8.728337884E-01 -1.963091781E-03 6.020338918E-01
 8.843151927E-01 -1.116697444E-03 5.957363538E-01
 8.974462152E-01 -3.197001643E-04 5.932031156E-01
 9.074088335E-01 1.941004739E-04 5.901106857E-01
 9.178710580E-01 6.209314452E-04 5.887054584E-01
 9.274020195E-01 9.211245342E-04 5.878543681E-01
 9.362792969E-01 1.123952679E-03 5.872395683E-01
 9.483516812E-01 1.279317890E-03 5.876852636E-01
 9.613530040E-01 1.303901547E-03 5.877568186E-01
 9.762290120E-01 1.159525011E-03 5.861408348E-01
 9.890567660E-01 8.787773550E-04 5.777038103E-01
 -5.000000000E-01 -1.000000000E+00 7.239325098E-01
 3.500000000E+00 -1.000000000E+00 7.282335365E-01
 3.500000000E+00 1.000000000E+00 7.112894555E-01
 -5.000000000E-01 1.000000000E+00 7.243044736E-01
 9.934328198E-01 1.741371991E-03 6.347601983E-01
 9.804585874E-01 4.196312511E-03 6.677826452E-01
 9.658997953E-01 6.939302431E-03 6.941796742E-01
 9.503361285E-01 9.844494984E-03 7.127237463E-01
 9.356973171E-01 1.256916951E-02 7.287514885E-01
 9.227151573E-01 1.499843365E-02 7.468508402E-01
 9.106176496E-01 1.722394302E-02 7.593181608E-01
 8.984298408E-01 1.942905970E-02 7.739184782E-01
 8.862617612E-01 2.157402411E-02 7.821372941E-01
 8.738856614E-01 2.371727023E-02 7.947176224E-01
 8.615778089E-01 2.580776811E-02 8.070174236E-01
 8.491441905E-01 2.783391625E-02 8.102132621E-01
 8.374246061E-01 2.972771414E-02 8.225372943E-01
 8.261363506E-01 3.150792699E-02 8.280343692E-01
 8.140711188E-01 3.336038254E-02 8.334408404E-01
 8.015414476E-01 3.526998498E-02 8.452521708E-01
 7.891352773E-01 3.710182942E-02 8.508011419E-01
 7.769963443E-01 3.884861059E-02 8.533332850E-01
 7.652349174E-01 4.053838179E-02 8.680123774E-01
 7.529779971E-01 4.224463925E-02 8.711744477E-01
 7.397901714E-01 4.403664730E-02 8.793884242E-01
 7.278938591E-01 4.564182647E-02 8.948117087E-01
 7.171159685E-01 4.703527130E-02 8.984536609E-01
 7.058458328E-01 4.844825901E-02 9.019525445E-01
 6.935518980E-01 4.996885732E-02 9.149274892E-01
 6.805240810E-01 5.152695626E-02 9.242885697E-01
 6.582982242E-01 5.404026248E-02 9.442882117E-01
 6.468489170E-01 5.524539016E-02 9.442945310E-01
 6.353766620E-01 5.642577633E-02 9.615838995E-01
 6.239254475E-01 5.755465291E-02 9.713996527E-01
 6.129603088E-01 5.856858380E-02 9.800830582E-01
 6.014701128E-01 5.957301147E-02 9.856761789E-01
 5.895071626E-01 6.056298688E-02 9.894258641E-01
 5.770577788E-01 6.151910871E-02 9.860759069E-01
 5.641476810E-01 6.243439205E-02 1.024058966E+00
 5.516891778E-01 6.323396415E-02 1.064570715E+00
 5.399109125E-01 6.390180439E-02 1.069151014E+00
 5.285025835E-01 6.448891014E-02 1.071693181E+00
 5.163806379E-01 6.505623832E-02 1.067617885E+00
 5.045047104E-01 6.553193182E-02 1.057753110E+00
 4.922424108E-01 6.593986228E-02 1.054801990E+00
 4.788523912E-01 6.629649550E-02 1.047276870E+00
 4.650800377E-01 6.658055261E-02 1.049382885E+00
 4.512377977E-01 6.678430736E-02 1.039159031E+00
 4.379153401E-01 6.688158587E-02 1.028571521E+00
 4.249144047E-01 6.690207496E-02 1.023976905E+00
 4.121763855E-01 6.684817001E-02 1.015835874E+00
 3.996359110E-01 6.671999022E-02 1.010207830E+00
 3.872403651E-01 6.653581187E-02 1.011216455E+00
 3.753416836E-01 6.629077345E-02 1.002256240E+00
 3.629307002E-01 6.596310064E-02 9.972254702E-01
 3.499808758E-01 6.555229053E-02 9.888432936E-01
 3.372038603E-01 6.507333368E-02 9.865241552E-01
 3.252995461E-01 6.456617638E-02 9.811750980E-01
 3.135322481E-01 6.399087608E-02 9.725019299E-01
 3.005853593E-01 6.329333410E-02 9.669869646E-01
 2.870060503E-01 6.248369813E-02 9.624911537E-01
 2.739023119E-01 6.162170507E-02 9.579151345E-01
 2.618207037E-01 6.074696966E-02 9.505643868E-01
 2.496773303E-01 5.979583226E-02 9.441251660E-01
 2.373100966E-01 5.875582621E-02 9.386039908E-01
 2.250447497E-01 5.764631554E-02 9.334115421E-01
 2.130933180E-01 5.648679659E-02 9.280467266E-01
 2.015281245E-01 5.528329499E-02 9.203730392E-01
 1.897168607E-01 5.397618189E-02 9.147884206E-01
 1.777743474E-01 5.256943963E-02 9.078924687E-01
 1.662193462E-01 5.111882277E-02 9.020976398E-01
 1.546440944E-01 4.957213253E-02 8.945456611E-01
 1.434839144E-01 4.798780382E-02 8.881413688E-01
 1.325064898E-01 4.632991180E-02 8.797050543E-01
 1.211714745E-01 4.451075010E-02 8.719376297E-01
 1.102755666E-01 4.264762253E-02 8.645678015E-01
 8.993953094E-02 3.881775215E-02 8.456131299E-01
 7.864178717E-02 3.645987622E-02 8.346815720E-01
 7.102875412E-02 -3.298450634E-02 8.419673084E-01
 9.108045325E-02 -3.688929416E-02 8.563520701E-01
 1.016893424E-01 -3.873321787E-02 8.609313619E-01
 1.128041632E-01 -4.053829238E-02 8.675374599E-01
 1.242466457E-01 -4.227675870E-02 8.739816883E-01
 1.353196874E-01 -4.385596141E-02 8.809508006E-01
 1.461340562E-01 -4.530308954E-02 8.859790448E-01
 1.576701775E-01 -4.675580375E-02 8.921460625E-01
 1.694736257E-01 -4.815432429E-02 8.993070284E-01
 1.812152117E-01 -4.945840128E-02 9.063793802E-01
 1.924508885E-01 -5.062909052E-02 9.136973194E-01
 2.033777386E-01 -5.169371516E-02 9.198865681E-01
 2.151262090E-01 -5.275938474E-02 9.274789438E-01
 2.274662033E-01 -5.379388295E-02 9.353371008E-01
 2.397475839E-01 -5.473418720E-02 9.442403857E-01
 2.520151287E-01 -5.558098294E-02 9.498755746E-01
 2.638353854E-01 -5.632275715E-02 9.600536090E-01
 2.758136094E-01 -5.698324367E-02 9.704585787E-01
 2.884036303E-01 -5.757592432E-02 9.782685033E-01
 3.010132611E-01 -5.806891061E-02 9.852589953E-01
 3.132735491E-01 -5.845003016E-02 9.979311348E-01
 3.254146725E-01 -5.871616676E-02 1.004488973E+00
 3.370511532E-01 -5.887333490E-02 1.011808720E+00
 3.481946737E-01 -5.892818049E-02 1.014546897E+00
 3.594278395E-01 -5.888805166E-02 1.023514707E+00
 3.702996075E-01 -5.874468572E-02 1.019459673E+00
 3.815605789E-01 -5.849719048E-02 1.013124097E+00
 3.939290792E-01 -5.810478702E-02 1.003578943E+00
 4.066492170E-01 -5.756853893E-02 9.934023312E-01
 4.194352776E-01 -5.689515546E-02 9.787670885E-01
 4.322985411E-01 -5.608287267E-02 9.677786120E-01
 4.448311329E-01 -5.515608191E-02 9.482210831E-01
 4.571419060E-01 -5.412996002E-02 9.330264798E-01
 4.694268852E-01 -5.299799144E-02 9.154089139E-01
 4.815175682E-01 -5.179242417E-02 9.022014162E-01
 4.936345965E-01 -5.048540048E-02 8.847580602E-01
 5.068421960E-01 -4.897254147E-02 8.676339723E-01
 5.205885470E-01 -4.731097259E-02 8.519234964E-01
 5.340134501E-01 -4.560896754E-02 8.352300402E-01
 5.471393764E-01 -4.388710111E-02 8.207565713E-01
 5.602428913E-01 -4.211921617E-02 8.068943106E-01
 5.734521449E-01 -4.030480050E-02 7.950041586E-01
 5.861125290E-01 -3.852274641E-02 7.829407892E-01
 5.984459817E-01 -3.675936535E-02 7.688846715E-01
 6.116970181E-01 -3.487198055E-02 7.593931636E-01
 6.259080768E-01 -3.284133039E-02 7.491907727E-01
 6.402845979E-01 -3.076944873E-02 7.380329102E-01
 6.539801359E-01 -2.879002690E-02 7.264418607E-01
 6.673525870E-01 -2.687938046E-02 7.180535596E-01
 6.804429591E-01 -2.502221428E-02 7.103462806E-01
 6.929136217E-01 -2.325521037E-02 7.014455511E-01
 7.063746154E-01 -2.136787120E-02 6.927140898E-01
 7.201820612E-01 -1.946012396E-02 6.837578520E-01
 7.327660918E-01 -1.776563842E-02 6.781623076E-01
 7.451136708E-01 -1.610521786E-02 6.703122602E-01
 7.577232122E-01 -1.444052858E-02 6.604334231E-01
 7.705892622E-01 -1.281472575E-02 6.560433977E-01
 7.831564248E-01 -1.125612250E-02 6.488159825E-01
 7.955198586E-01 -9.759753477E-03 6.417167016E-01
 8.073413074E-01 -8.369670715E-03 6.337083466E-01
 8.185532689E-01 -7.114385488E-03 6.278544595E-01
 8.306581676E-01 -5.834800191E-03 6.227838645E-01
 8.430499434E-01 -4.583493574E-03 6.158014917E-01
 8.551141024E-01 -3.443232505E-03 6.083220707E-01
 8.669889271E-01 -2.432242618E-03 6.039658811E-01
 8.785744905E-01 -1.539894613E-03 5.987619523E-01
 8.908807039E-01 -7.181988040E-04 5.947447978E-01
 9.126399457E-01 4.075159595E-04 5.886748322E-01
 9.423154891E-01 1.201635285E-03 5.875817525E-01
 9.548523426E-01 1.291609718E-03 5.877106090E-01
 9.687910080E-01 1.231713279E-03 5.877089141E-01
 9.826428890E-01 1.019151183E-03 5.818725304E-01
 9.944861233E-01 6.954059354E-04 5.739009016E-01
 -5.000000000E-01 9.500000000E-01 7.220437107E-01
 -5.000000000E-01 9.000000000E-01 7.184966476E-01
 -5.000000000E-01 8.500000000E-01 7.157728204E-01
 -5.000000000E-01 8.000000000E-01 7.133639711E-01
 -5.000000000E-01 7.500000000E-01 7.110797534E-01
 -5.000000000E-01 7.000000000E-01 7.087963772E-01
 -5.000000000E-01 6.500000000E-01 7.065101023E-01
 -5.000000000E-01 6.000000000E-01 7.041505426E-01
 -5.000000000E-01 5.500000000E-01 7.017361521E-01
 -5.000000000E-01 5.000000000E-01 6.992720710E-01
 -5.000000000E-01 4.500000000E-01 6.967729778E-01
 -5.000000000E-01 4.000000000E-01 6.942581556E-01
 -5.000000000E-01 3.500000000E-01 6.918084344E-01
 -5.000000000E-01 3.000000000E-01 6.894535437E-01
 -5.000000000E-01 2.500000000E-01 6.872876245E-01
 -5.000000000E-01 2.000000000E-01 6.853123160E-01
 -5.000000000E-01 1.500000000E-01 6.836958431E-01
 -5.000000000E-01 1.000000000E-01 6.824648016E-01
 -5.000000000E-01 5.000000000E-02 6.816829425E-01
 -5.000000000E-01 2.752242878E-12 6.813864888E-01
 -5.000000000E-01 -5.000000000E-02 6.816000410E-01
 -5.000000000E-01 -1.000000000E-01 6.822661186E-01
 -5.000000000E-01 -1.500000000E-01 6.833670465E-01
 -5.000000000E-01 -2.000000000E-01 6.848832893E-01
 -5.000000000E-01 -2.500000000E-01 6.867121754E-01
 -5.000000000E-01 -3.000000000E-01 6.888025640E-01
 -5.000000000E-01 -3.500000000E-01 6.910523022E-01
 -5.000000000E-01 -4.000000000E-01 6.933741319E-01
 -5.000000000E-01 -4.500000000E-01 6.958004276E-01
 -5.000000000E-01 -5.000000000E-01 6.982406499E-01
 -5.000000000E-01 -5.500000000E-01 7.006315699E-01
 -5.000000000E-01 -6.000000000E-01 7.030122035E-01
 -5.000000000E-01 -6.500000000E-01 7.053348196E-01
 -5.000000000E-01 -7.000000000E-01 7.076260014E-01
 -5.000000000E-01 -7.500000000E-01 7.099540977E-01
 -5.000000000E-01 -8.000000000E-01 7.123087242E-01
 -5.000000000E-01 -8.500000000E-01 7.148210952E-01
 -5.000000000E-01 -9.000000000E-01 7.176959373E-01
 -5.000000000E-01 -9.500000000E-01 7.214984430E-01
 -4.500000000E-01 -1.000000000E+00 7.213236009E-01
 -4.000000000E-01 -1.000000000E+00 7.176516506E-01
 -3.500000000E-01 -1.000000000E+00 7.152764773E-01
 -3.000000000E-01 -1.000000000E+00 7.136856469E-01
 -2.500000000E-01 -1.000000000E+00 7.127375237E-01
 -2.000000000E-01 -1.000000000E+00 7.123623585E-01
 -1.500000000E-01 -1.000000000E+00 7.126486646E-01
 -1.000000000E-01 -1.000000000E+00 7.135390601E-01
 -5.000000000E-02 -1.000000000E+00 7.150073940E-01
 -9.424683256E-13 -1.000000000E+00 7.170381157E-01
 5.000000000E-02 -1.000000000E+00 7.195762416E-01
 1.000000000E-01 -1.000000000E+00 7.225084338E-01
 1.500000000E-01 -1.000000000E+00 7.257277360E-01
 2.000000000E-01 -1.000000000E+00 7.290460108E-01
 2.500000000E-01 -1.000000000E+00 7.324655447E-01
 3.000000000E-01 -1.000000000E+00 7.356461483E-01
 3.500000000E-01 -1.000000000E+00 7.384307653E-01
 4.000000000E-01 -1.000000000E+00 7.406668504E-01
 4.500000000E-01 -1.000000000E+00 7.421339219E-01
 5.000000000E-01 -1.000000000E+00 7.429305025E-01
 5.500000000E-01 -1.000000000E+00 7.428376386E-01
 6.000000000E-01 -1.000000000E+00 7.421184279E-01
 6.500000000E-01 -1.000000000E+00 7.407990479E-01
 7.000000000E-01 -1.000000000E+00 7.390694999E-01
 7.500000000E-01 -1.000000000E+00 7.369208750E-01
 8.000000000E-01 -1.000000000E+00 7.345751465E-01
 8.500000000E-01 -1.000000000E+00 7.320506840E-01
 9.000000000E-01 -1.000000000E+00 7.294024189E-01
 9.500000000E-01 -1.000000000E+00 7.267951474E-01
 1.000000000E+00 -1.000000000E+00 7.243591466E-01
 1.050000000E+00 -1.000000000E+00 7.221726354E-01
 1.100000000E+00 -1.000000000E+00 7.201859764E-01
 1.150000000E+00 -1.000000000E+00 7.184877500E-01
 1.200000000E+00 -1.000000000E+00 7.170791784E-01
 1.250000000E+00 -1.000000000E+00 7.158959572E-01
 1.300000000E+00 -1.000000000E+00 7.150540230E-01
 1.350000000E+00 -1.000000000E+00 7.144092058E-01
 1.400000000E+00 -1.000000000E+00 7.140095755E-01
 1.450000000E+00 -1.000000000E+00 7.137982924E-01
 1.500000000E+00 -1.000000000E+00 7.137085272E-01
 1.550000000E+00 -1.000000000E+00 7.138018554E-01
 1.600000000E+00 -1.000000000E+00 7.139591384E-01
 1.650000000E+00 -1.000000000E+00 7.141811931E-01
 1.700000000E+00 -1.000000000E+00 7.144876565E-01
 1.750000000E+00 -1.000000000E+00 7.148649417E-01
 1.800000000E+00 -1.000000000E+00 7.152778874E-01
 1.850000000E+00 -1.000000000E+00 7.156982807E-01
 1.900000000E+00 -1.000000000E+00 7.161353498E-01
 1.950000000E+00 -1.000000000E+00 7.165791353E-01
 2.000000000E+00 -1.000000000E+00 7.171080801E-01
 2.050000000E+00 -1.000000000E+00 7.174771888E-01
 2.100000000E+00 -1.000000000E+00 7.179416359E-01
 2.150000000E+00 -1.000000000E+00 7.184055200E-01
 2.200000000E+00 -1.000000000E+00 7.187371971E-01
 2.250000000E+00 -1.000000000E+00 7.191775880E-01
 2.300000000E+00 -1.000000000E+00 7.196599974E-01
 2.350000000E+00 -1.000000000E+00 7.200460044E-01
 2.400000000E+00 -1.000000000E+00 7.203762310E-01
 2.450000000E+00 -1.000000000E+00 7.207312730E-01
 2.500000000E+00 -1.000000000E+00 7.210599703E-01
 2.550000000E+00 -1.000000000E+00 7.213514888E-01
 2.600000000E+00 -1.000000000E+00 7.216042413E-01
 2.650000000E+00 -1.000000000E+00 7.218618102E-01
 2.700000000E+00 -1.000000000E+00 7.221178614E-01
 2.750000000E+00 -1.000000000E+00 7.222867772E-01
 2.800000000E+00 -1.000000000E+00 7.224496559E-01
 2.850000000E+00 -1.000000000E+00 7.226557502E-01
 2.900000000E+00 -1.000000000E+00 7.228637190E-01
 2.950000000E+00 -1.000000000E+00 7.230214002E-01
 3.000000000E+00 -1.000000000E+00 7.231538936E-01
 3.050000000E+00 -1.000000000E+00 7.232698368E-01
 3.100000000E+00 -1.000000000E+00 7.234170859E-01
 3.150000000E+00 -1.000000000E+00 7.235370200E-01
 3.200000000E+00 -1.000000000E+00 7.236186894E-01
 3.250000000E+00 -1.000000000E+00 7.237925976E-01
 3.300000000E+00 -1.000000000E+00 7.240323471E-01
 3.350000000E+00 -1.000000000E+00 7.243537115E-01
 3.400000000E+00 -1.000000000E+00 7.248288513E-01
 3.450000000E+00 -1.000000000E+00 7.259503922E-01
 3.500000000E+00 -9.500000000E-01 7.296598886E-01
 3.500000000E+00 -9.000000000E-01 7.304050745E-01
 3.500000000E+00 -8.500000000E-01 7.308781030E-01
 3.500000000E+00 -8.000000000E-01 7.312143903E-01
 3.500000000E+00 -7.500000000E-01 7.315215606E-01
 3.500000000E+00 -7.000000000E-01 7.318082845E-01
 3.500000000E+00 -6.500000000E-01 7.320814802E-01
 3.500000000E+00 -6.000000000E-01 7.323877745E-01
 3.500000000E+00 -5.500000000E-01 7.327118886E-01
 3.500000000E+00 -5.000000000E-01 7.330481933E-01
 3.500000000E+00 -4.500000000E-01 7.333758980E-01
 3.500000000E+00 -4.000000000E-01 7.336990314E-01
 3.500000000E+00 -3.500000000E-01 7.340253356E-01
 3.500000000E+00 -3.000000000E-01 7.343506572E-01
 3.500000000E+00 -2.500000000E-01 7.346807212E-01
 3.500000000E+00 -2.000000000E-01 7.349218899E-01
 3.500000000E+00 -1.500000000E-01 7.350364619E-01
 3.500000000E+00 -1.000000000E-01 7.350725003E-01
 3.500000000E+00 -5.000000000E-02 7.350743170E-01
 3.500000000E+00 -2.752242878E-12 7.350635344E-01
 3.500000000E+00 5.000000000E-02 7.350134617E-01
 3.500000000E+00 1.000000000E-01 7.348787834E-01
 3.500000000E+00 1.500000000E-01 7.346465413E-01
 3.500000000E+00 2.000000000E-01 7.343294204E-01
 3.500000000E+00 2.500000000E-01 7.339783934E-01
 3.500000000E+00 3.000000000E-01 7.336324383E-01
 3.500000000E+00 3.500000000E-01 7.333153898E-01
 3.500000000E+00 4.000000000E-01 7.329879824E-01
 3.500000000E+00 4.500000000E-01 7.326001272E-01
 3.500000000E+00 5.000000000E-01 7.321743468E-01
 3.500000000E+00 5.500000000E-01 7.317478974E-01
 3.500000000E+00 6.000000000E-01 7.315241756E-01
 3.500000000E+00 6.500000000E-01 7.317136561E-01
 3.500000000E+00 7.000000000E-01 7.321434018E-01
 3.500000000E+00 7.500000000E-01 7.321762811E-01
 3.500000000E+00 8.000000000E-01 7.311118755E-01
 3.500000000E+00 8.500000000E-01 7.285178947E-01
 3.500000000E+00 9.000000000E-01 7.243209991E-01
 3.500000000E+00 9.500000000E-01 7.187602613E-01
 3.450000000E+00 1.000000000E+00 7.003876871E-01
 3.400000000E+00 1.000000000E+00 6.955461469E-01
 3.350000000E+00 1.000000000E+00 6.947472848E-01
 3.300000000E+00 1.000000000E+00 6.943308188E-01
 3.250000000E+00 1.000000000E+00 6.941396909E-01
 3.200000000E+00 1.000000000E+00 6.943499723E-01
 3.150000000E+00 1.000000000E+00 6.945080636E-01
 3.100000000E+00 1.000000000E+00 6.948586398E-01
 3.050000000E+00 1.000000000E+00 6.951910515E-01
 3.000000000E+00 1.000000000E+00 6.954618193E-01
 2.950000000E+00 1.000000000E+00 6.958270987E-01
 2.900000000E+00 1.000000000E+00 6.962009353E-01
 2.850000000E+00 1.000000000E+00 6.968194845E-01
 2.800000000E+00 1.000000000E+00 6.972746919E-01
 2.750000000E+00 1.000000000E+00 6.975685877E-01
 2.700000000E+00 1.000000000E+00 6.977774889E-01
 2.650000000E+00 1.000000000E+00 6.981839297E-01
 2.600000000E+00 1.000000000E+00 6.986807150E-01
 2.550000000E+00 1.000000000E+00 6.989235909E-01
 2.500000000E+00 1.000000000E+00 6.993960324E-01
 2.450000000E+00 1.000000000E+00 7.000360685E-01
 2.400000000E+00 1.000000000E+00 7.005446703E-01
 2.350000000E+00 1.000000000E+00 7.008388602E-01
 2.300000000E+00 1.000000000E+00 7.012954291E-01
 2.250000000E+00 1.000000000E+00 7.021352715E-01
 2.200000000E+00 1.000000000E+00 7.029335360E-01
 2.150000000E+00 1.000000000E+00 7.032187045E-01
 2.100000000E+00 1.000000000E+00 7.032648179E-01
 2.050000000E+00 1.000000000E+00 7.039531410E-01
 2.000000000E+00 1.000000000E+00 7.046248064E-01
 1.950000000E+00 1.000000000E+00 7.050430188E-01
 1.900000000E+00 1.000000000E+00 7.059140238E-01
 1.850000000E+00 1.000000000E+00 7.066946070E-01
 1.800000000E+00 1.000000000E+00 7.074318123E-01
 1.750000000E+00 1.000000000E+00 7.083825299E-01
 1.700000000E+00 1.000000000E+00 7.101196148E-01
 1.650000000E+00 1.000000000E+00 7.114563269E-01
 1.600000000E+00 1.000000000E+00 7.127312830E-01
 1.550000000E+00 1.000000000E+00 7.137421355E-01
 1.500000000E+00 1.000000000E+00 7.157746445E-01
 1.450000000E+00 1.000000000E+00 7.174061775E-01
 1.400000000E+00 1.000000000E+00 7.194801700E-01
 1.350000000E+00 1.000000000E+00 7.220931052E-01
 1.300000000E+00 1.000000000E+00 7.247862123E-01
 1.250000000E+00 1.000000000E+00 7.274814656E-01
 1.200000000E+00 1.000000000E+00 7.305034473E-01
 1.150000000E+00 1.000000000E+00 7.337200118E-01
 1.100000000E+00 1.000000000E+00 7.374599303E-01
 1.050000000E+00 1.000000000E+00 7.408197579E-01
 1.000000000E+00 1.000000000E+00 7.460977234E-01
 9.500000000E-01 1.000000000E+00 7.500302713E-01
 9.000000000E-01 1.000000000E+00 7.537757384E-01
 8.500000000E-01 1.000000000E+00 7.563421088E-01
 8.000000000E-01 1.000000000E+00 7.603401728E-01
 7.500000000E-01 1.000000000E+00 7.640543775E-01
 7.000000000E-01 1.000000000E+00 7.659140189E-01
 6.500000000E-01 1.000000000E+00 7.670384609E-01
 6.000000000E-01 1.000000000E+00 7.677095159E-01
 5.500000000E-01 1.000000000E+00 7.679932459E-01
 5.000000000E-01 1.000000000E+00 7.665569363E-01
 4.500000000E-01 1.000000000E+00 7.628115943E-01
 4.000000000E-01 1.000000000E+00 7.591826043E-01
 3.500000000E-01 1.000000000E+00 7.552877549E-01
 3.000000000E-01 1.000000000E+00 7.505873589E-01
 2.500000000E-01 1.000000000E+00 7.451856903E-01
 2.000000000E-01 1.000000000E+00 7.398162557E-01
 1.500000000E-01 1.000000000E+00 7.345129932E-01
 1.000000000E-01 1.000000000E+00 7.292805630E-01
 5.000000000E-02 1.000000000E+00 7.249938398E-01
 1.733724275E-12 1.000000000E+00 7.216664746E-01
 -5.000000000E-02 1.000000000E+00 7.187939241E-01
 -1.000000000E-01 1.000000000E+00 7.166499917E-01
 -1.500000000E-01 1.000000000E+00 7.152129767E-01
 -2.000000000E-01 1.000000000E+00 7.144968203E-01
 -2.500000000E-01 1.000000000E+00 7.145095379E-01
 -3.000000000E-01 1.000000000E+00 7.151209482E-01
 -3.500000000E-01 1.000000000E+00 7.164041600E-01
 -4.000000000E-01 1.000000000E+00 7.185321201E-01
 -4.500000000E-01 1.000000000E+00 7.219193474E-01
 9.855590266E-01 -4.160855509E-03 5.868878046E-01
 8.880842698E-01 -6.082066187E-03 5.983056915E-01
 8.059822818E-01 -1.338931891E-02 6.367214392E-01
 7.364505110E-01 -2.292891492E-02 6.777697196E-01
 6.644048314E-01 -3.406362016E-02 7.211442257E-01
 5.960660115E-01 -4.254713724E-02 7.717826495E-01
 5.314081799E-01 -5.157724950E-02 8.377252002E-01
 4.670014782E-01 -5.829558788E-02 9.158826488E-01
 4.096314332E-01 -6.288262184E-02 9.844510196E-01
 3.510257486E-01 -6.367491126E-02 1.012588609E+00
 2.976767027E-01 -6.290717857E-02 9.794429912E-01
 2.364696817E-01 -5.882309766E-02 9.399595519E-01
 1.778441136E-01 -5.419867731E-02 9.016966900E-01
 1.206234322E-01 -4.680948914E-02 8.683286912E-01
 6.759523696E-02 -3.681859999E-02 8.327992135E-01
 9.393450962E-01 -3.932759087E-03 5.906138759E-01
 3.589588394E-02 -3.015760798E-02 7.804659025E-01
 1.065650948E-02 -1.639439015E-02 6.562054684E-01
 1.975191298E+00 -9.575393036E-01 7.185437159E-01
 1.974332702E+00 9.551415970E-01 7.157162820E-01
 9.267137817E-01 1.962930111E-02 7.420166751E-01
 8.651339782E-01 3.083051389E-02 8.032939560E-01