TITLE     = "Visualization of the solution"
VARIABLES = "x"
"y"
"Mach"
ZONE T="Zone"
 STRANDID=0, SOLUTIONTIME=0
 Nodes=11990, Elements=23401, ZONETYPE=FEQuadrilateral
 DATAPACKING=POINT
 DT=(DOUBLE DOUBLE DOUBLE )
 1.000250220E+00 5.143600865E-04 5.711805048E-01
 9.910513759E-01 2.432512119E-03 6.363201380E-01
 9.794887304E-01 4.960894119E-03 6.762278505E-01
 9.621100426E-01 8.664425462E-03 7.022523772E-01
 9.462888241E-01 1.202597562E-02 7.236784231E-01
 9.294508100E-01 1.556773763E-02 7.414027106E-01
 9.177193642E-01 1.804474741E-02 7.572273681E-01
 9.072477818E-01 2.025643550E-02 7.759944624E-01
 8.960443735E-01 2.252319083E-02 7.826950259E-01
 8.854947090E-01 2.467824146E-02 8.011574177E-01
 8.740651011E-01 2.694486827E-02 8.164425756E-01
 8.611083627E-01 2.935734205E-02 8.173388038E-01
 8.488953114E-01 3.166488186E-02 8.356863365E-01
 8.393344879E-01 3.337782249E-02 8.396826425E-01
 8.276854753E-01 3.544429690E-02 8.492434266E-01
 8.148401976E-01 3.764658421E-02 8.547913738E-01
 8.024815917E-01 3.975170478E-02 8.688876734E-01
 7.886205316E-01 4.202871770E-02 8.786791580E-01
 7.754381299E-01 4.407512769E-02 8.757065536E-01
 7.633944154E-01 4.598055780E-02 8.915001998E-01
 7.493407726E-01 4.812899232E-02 9.030645569E-01
 7.345680594E-01 5.027604476E-02 9.077462203E-01
 7.237131000E-01 5.183558911E-02 9.190682659E-01
 7.125228643E-01 5.337446928E-02 9.215338313E-01
 7.004432678E-01 5.499127880E-02 9.247977033E-01
 6.867632866E-01 5.677943304E-02 9.344749055E-01
 6.738840938E-01 5.837928876E-02 9.323097844E-01
 6.642283201E-01 5.953172967E-02 9.076169958E-01
 6.524132490E-01 6.087184697E-02 9.102501269E-01
 6.397382021E-01 6.226732954E-02 1.148768432E+00
 6.276113391E-01 6.354396790E-02 1.168068140E+00
 6.154715419E-01 6.472077966E-02 1.143621221E+00
 6.045904756E-01 6.571120024E-02 1.141806837E+00
 5.916936994E-01 6.680642813E-02 1.141784567E+00
 5.805798173E-01 6.771463156E-02 1.135554518E+00
 5.673244596E-01 6.867709011E-02 1.124002410E+00
 5.550876856E-01 6.947402656E-02 1.119716572E+00
 5.437056422E-01 7.017371058E-02 1.113661372E+00
 5.334318280E-01 7.071784139E-02 1.103345030E+00
 5.226960778E-01 7.125011086E-02 1.098029221E+00
 5.111404061E-01 7.173083723E-02 1.088515000E+00
 4.997918010E-01 7.215799391E-02 1.083752867E+00
 4.864977300E-01 7.256397605E-02 1.073016341E+00
 4.725872576E-01 7.288818061E-02 1.063645980E+00
 4.594268799E-01 7.310750335E-02 1.056148192E+00
 4.468175471E-01 7.324118167E-02 1.051680129E+00
 4.346363544E-01 7.331514359E-02 1.046898576E+00
 4.228163958E-01 7.330823690E-02 1.039231878E+00
 4.110189974E-01 7.325523347E-02 1.035532436E+00
 4.001116157E-01 7.313848287E-02 1.025405158E+00
 3.880444169E-01 7.295037806E-02 1.021494458E+00
 3.766245246E-01 7.272051275E-02 1.017121508E+00
 3.642363846E-01 7.239820063E-02 1.009457461E+00
 3.511855006E-01 7.198669016E-02 1.003445281E+00
 3.379243016E-01 7.148937881E-02 1.000806751E+00
 3.262963891E-01 7.099546492E-02 9.961496651E-01
 3.133573234E-01 7.035453618E-02 9.853778328E-01
 3.000446856E-01 6.962024420E-02 9.786076590E-01
 2.860434949E-01 6.876499206E-02 9.753911655E-01
 2.742571235E-01 6.796915084E-02 9.716164344E-01
 2.620020807E-01 6.706798077E-02 9.645854960E-01
 2.491279840E-01 6.601876765E-02 9.563944265E-01
 2.369997203E-01 6.497345865E-02 9.540390097E-01
 2.242666930E-01 6.376227736E-02 9.454201253E-01
 2.121044546E-01 6.252130121E-02 9.392398833E-01
 1.992210001E-01 6.110393256E-02 9.317248077E-01
 1.869103163E-01 5.964072421E-02 9.241169877E-01
 1.750737131E-01 5.814363807E-02 9.194917282E-01
 1.639606208E-01 5.661695823E-02 9.069785435E-01
 1.517886668E-01 5.484327301E-02 8.996835270E-01
 1.410458535E-01 5.318087339E-02 8.928165109E-01
 1.289080530E-01 5.114542693E-02 8.800869849E-01
 1.180700138E-01 4.921171069E-02 8.719274961E-01
 1.074756756E-01 4.717488959E-02 8.590935809E-01
 9.721481800E-02 4.507527873E-02 8.482307865E-01
 8.639605343E-02 4.268726334E-02 8.340539265E-01
 7.492031157E-02 3.993235901E-02 8.132048702E-01
 6.515901536E-02 3.738372028E-02 8.000061048E-01
 5.491038784E-02 3.446302190E-02 7.746570558E-01
 4.697899148E-02 3.197819367E-02 7.561744685E-01
 4.025413468E-02 2.970713004E-02 7.374011737E-01
 3.405119106E-02 2.742452733E-02 7.148137261E-01
 2.853379771E-02 2.522670478E-02 6.932574572E-01
 2.454550937E-02 2.351070382E-02 6.692329033E-01
 2.058924735E-02 2.166535147E-02 6.431515523E-01
 1.702687703E-02 1.986881346E-02 6.151884002E-01
 1.367086265E-02 1.801652275E-02 5.842942384E-01
 1.109747030E-02 1.645151712E-02 5.534567557E-01
 9.006039239E-03 1.507013198E-02 5.241251107E-01
 7.207221817E-03 1.376050059E-02 4.844718938E-01
 4.894519690E-03 1.186861936E-02 4.254620412E-01
 2.816441469E-03 9.843825363E-03 3.606073643E-01
 1.175708952E-03 7.826813497E-03 2.468657784E-01
 -4.699841666E-04 4.648060538E-03 7.839815401E-02
 -8.854583139E-04 2.468174556E-03 8.555705262E-02
 -7.732235827E-04 8.238545852E-04 2.209415562E-01
 -3.779833787E-04 -5.592641537E-04 3.484608280E-01
 1.556831994E-04 -1.671329839E-03 4.501484361E-01
 1.136009931E-03 -3.095048480E-03 5.553912596E-01
 2.364266664E-03 -4.409441259E-03 6.376288533E-01
 3.994181752E-03 -5.782712717E-03 6.982054857E-01
 5.559770856E-03 -6.866824813E-03 7.418062330E-01
 7.248896174E-03 -7.876384072E-03 7.693751667E-01
 8.879325353E-03 -8.738740347E-03 7.878111200E-01
 1.100511104E-02 -9.742171504E-03 8.030781021E-01
 1.326856203E-02 -1.069738530E-02 8.144058738E-01
 1.657289267E-02 -1.193444245E-02 8.241356275E-01
 1.926240325E-02 -1.284487173E-02 8.326775262E-01
 2.280824259E-02 -1.393192168E-02 8.323365621E-01
 2.803649940E-02 -1.536417659E-02 8.322146514E-01
 3.368462250E-02 -1.674824394E-02 8.343685060E-01
 4.058004171E-02 -1.826153323E-02 8.345808697E-01
 4.819278792E-02 -1.976736635E-02 8.330340933E-01
 5.757190660E-02 -2.144821920E-02 8.312089405E-01
 6.642735749E-02 -2.289860696E-02 8.324739352E-01
 7.645064592E-02 -2.441659942E-02 8.327800657E-01
 8.704970777E-02 -2.590435743E-02 8.329842642E-01
 9.699744731E-02 -2.721632458E-02 8.344207271E-01
 1.084643230E-01 -2.863308601E-02 8.368361020E-01
 1.198345497E-01 -2.995252423E-02 8.387797236E-01
 1.322458684E-01 -3.131080791E-02 8.416754315E-01
 1.435406059E-01 -3.247843683E-02 8.450662956E-01
 1.552312523E-01 -3.362572938E-02 8.489890588E-01
 1.683348417E-01 -3.483103216E-02 8.524851065E-01
 1.805959344E-01 -3.589519858E-02 8.570503417E-01
 1.928131580E-01 -3.689000383E-02 8.612137567E-01
 2.043183148E-01 -3.777178004E-02 8.658957648E-01
 2.160046250E-01 -3.861080110E-02 8.703099757E-01
 2.284749895E-01 -3.944692388E-02 8.760422525E-01
 2.418302447E-01 -4.025803879E-02 8.801096053E-01
 2.546664774E-01 -4.097772390E-02 8.877564303E-01
 2.668530345E-01 -4.157739133E-02 8.921380673E-01
 2.782102525E-01 -4.207378998E-02 8.968238041E-01
 2.905319333E-01 -4.254228249E-02 9.019234793E-01
 3.026416302E-01 -4.292188212E-02 9.066234192E-01
 3.151147366E-01 -4.323159531E-02 9.117465291E-01
 3.273694217E-01 -4.344052076E-02 9.147170573E-01
 3.401967585E-01 -4.356906191E-02 9.194879523E-01
 3.513764143E-01 -4.357998446E-02 9.201856442E-01
 3.623431921E-01 -4.351345077E-02 9.201617214E-01
 3.724439144E-01 -4.337701946E-02 9.199151291E-01
 3.831126690E-01 -4.315553978E-02 9.187682628E-01
 3.947733045E-01 -4.280930012E-02 9.139582657E-01
 4.082679152E-01 -4.227435589E-02 9.045720497E-01
 4.205366075E-01 -4.168792069E-02 9.005752224E-01
 4.321442544E-01 -4.100306332E-02 8.877452675E-01
 4.439889789E-01 -4.022527114E-02 8.786421673E-01
 4.541782737E-01 -3.947091103E-02 8.675677013E-01
 4.648773968E-01 -3.862069175E-02 8.576544251E-01
 4.761642218E-01 -3.764258698E-02 8.456198964E-01
 4.864252806E-01 -3.669758141E-02 8.342737005E-01
 4.994042814E-01 -3.543549031E-02 8.208527740E-01
 5.128179193E-01 -3.406311944E-02 8.080840555E-01
 5.255283117E-01 -3.269354627E-02 7.935421503E-01
 5.391700864E-01 -3.119876049E-02 7.830271892E-01
 5.502769947E-01 -2.994504198E-02 7.724946305E-01
 5.637907386E-01 -2.839386277E-02 7.614791998E-01
 5.757017732E-01 -2.699780278E-02 7.504173286E-01
 5.866866708E-01 -2.571281046E-02 7.421822513E-01
 5.993847847E-01 -2.422963828E-02 7.338186938E-01
 6.155918837E-01 -2.233062871E-02 7.232527499E-01
 6.306963563E-01 -2.056786232E-02 7.136467576E-01
 6.477091312E-01 -1.858280599E-02 7.031675789E-01
 6.603279114E-01 -1.712390594E-02 6.946845967E-01
 6.736418605E-01 -1.562779397E-02 6.896839480E-01
 6.860201955E-01 -1.422798820E-02 6.814791843E-01
 6.985167861E-01 -1.284121163E-02 6.742551609E-01
 7.129123211E-01 -1.130349841E-02 6.700589620E-01
 7.259427309E-01 -9.887826629E-03 6.599202125E-01
 7.390738130E-01 -8.520419709E-03 6.529684560E-01
 7.539902329E-01 -7.052227389E-03 6.487408386E-01
 7.653468847E-01 -5.940441042E-03 6.417117481E-01
 7.784124613E-01 -4.715572577E-03 6.362158270E-01
 7.896780968E-01 -3.680177731E-03 6.288004147E-01
 8.026859164E-01 -2.568877302E-03 6.242011541E-01
 8.136650324E-01 -1.666245284E-03 6.180771752E-01
 8.254013062E-01 -7.555373595E-04 6.116068554E-01
 8.393258452E-01 2.034541103E-04 6.071383187E-01
 8.515475392E-01 9.776587831E-04 6.009286550E-01
 8.636378646E-01 1.640695613E-03 5.964944516E-01
 8.752955198E-01 2.187028062E-03 5.918706813E-01
 8.877969384E-01 2.644348424E-03 5.890492950E-01
 9.007436037E-01 2.989331493E-03 5.852872774E-01
 9.109311700E-01 3.153975122E-03 5.834410136E-01
 9.216117263E-01 3.219617996E-03 5.829349710E-01
 9.306588769E-01 3.193478100E-03 5.823576795E-01
 9.384788275E-01 3.113850253E-03 5.820877260E-01
 9.491814971E-01 2.918945625E-03 5.817209251E-01
 9.598425031E-01 2.606548835E-03 5.828644179E-01
 9.743269086E-01 2.038246021E-03 5.821107657E-01
 9.867201447E-01 1.399196568E-03 5.770409076E-01
 -5.000000000E-01 -1.000000000E+00 7.238997194E-01
 3.500000000E+00 -1.000000000E+00 7.287883796E-01
 3.500000000E+00 1.000000000E+00 7.061122697E-01
 -5.000000000E-01 1.000000000E+00 7.244819980E-01
 9.852700531E-01 3.696703119E-03 6.619913347E-01
 9.707993865E-01 6.812659791E-03 6.901653646E-01
 9.541994333E-01 1.034520054E-02 7.133647744E-01
 9.378698170E-01 1.379685663E-02 7.329263868E-01
 9.235850871E-01 1.680624252E-02 7.490796470E-01
 9.124835730E-01 1.915059146E-02 7.678211989E-01
 9.016460776E-01 2.138981316E-02 7.785945254E-01
 8.907695413E-01 2.360071614E-02 7.915024077E-01
 8.797799051E-01 2.581155486E-02 8.108844692E-01
 8.675867319E-01 2.815110516E-02 8.151014741E-01
 8.550018370E-01 3.051111195E-02 8.275341780E-01
 8.335099816E-01 3.441105969E-02 8.449180896E-01
 8.212628365E-01 3.654544055E-02 8.511019293E-01
 8.086608946E-01 3.869914450E-02 8.617367122E-01
 7.955510616E-01 4.089021124E-02 8.757053965E-01
 7.820293307E-01 4.305192269E-02 8.754853076E-01
 7.694162726E-01 4.502784275E-02 8.832437762E-01
 7.563675940E-01 4.705477506E-02 8.987146778E-01
 7.419544160E-01 4.920251854E-02 9.041212749E-01
 7.291405797E-01 5.105581693E-02 9.144322911E-01
 7.181179821E-01 5.260502920E-02 9.206523275E-01
 7.064830661E-01 5.418287404E-02 9.226490177E-01
 6.936032772E-01 5.588535592E-02 9.291860104E-01
 6.803236902E-01 5.757936090E-02 9.378086099E-01
 6.583207846E-01 6.020178832E-02 8.865235077E-01
 6.460757256E-01 6.156958826E-02 1.022521452E+00
 6.336747706E-01 6.290564872E-02 1.181982276E+00
 6.215414405E-01 6.413237378E-02 1.149646680E+00
 6.100310087E-01 6.521598995E-02 1.142912851E+00
 5.981420875E-01 6.625881419E-02 1.140935712E+00
 5.861367583E-01 6.726052985E-02 1.141343334E+00
 5.739521384E-01 6.819586083E-02 1.128742474E+00
 5.612060726E-01 6.907555833E-02 1.120432730E+00
 5.493966639E-01 6.982386857E-02 1.119137664E+00
 5.385687351E-01 7.044577599E-02 1.105901497E+00
 5.280639529E-01 7.098397613E-02 1.103056863E+00
 5.169182420E-01 7.149047405E-02 1.091404455E+00
 5.054661036E-01 7.194441557E-02 1.087493309E+00
 4.931447655E-01 7.236098498E-02 1.078428820E+00
 4.795424938E-01 7.272607833E-02 1.067882755E+00
 4.660070688E-01 7.299784198E-02 1.059709851E+00
 4.531222135E-01 7.317434251E-02 1.053128634E+00
 4.407269508E-01 7.327816263E-02 1.050555594E+00
 4.287263751E-01 7.331169024E-02 1.041886104E+00
 4.169176966E-01 7.328173518E-02 1.038317228E+00
 4.055653065E-01 7.319685817E-02 1.030316933E+00
 3.940780163E-01 7.304443046E-02 1.022623256E+00
 3.823344707E-01 7.283544540E-02 1.020211719E+00
 3.704304546E-01 7.255935669E-02 1.013122635E+00
 3.577109426E-01 7.219244540E-02 1.006324136E+00
 3.445549011E-01 7.173803449E-02 1.001273754E+00
 3.321103454E-01 7.124242187E-02 1.000006849E+00
 3.198268563E-01 7.067500055E-02 9.904296889E-01
 3.067010045E-01 6.998739019E-02 9.816207105E-01
 2.930440903E-01 6.919261813E-02 9.765154334E-01
 2.801503092E-01 6.836707145E-02 9.736896057E-01
 2.681296021E-01 6.751856580E-02 9.692417806E-01
 2.555650324E-01 6.654337421E-02 9.588765176E-01
 2.430638522E-01 6.549611315E-02 9.564570443E-01
 2.306332067E-01 6.436786801E-02 9.492699194E-01
 2.181855738E-01 6.314178929E-02 9.425020302E-01
 2.056627274E-01 6.181261688E-02 9.357871709E-01
 1.930656582E-01 6.037232839E-02 9.270835693E-01
 1.809920147E-01 5.889218114E-02 9.226408472E-01
 1.695171669E-01 5.738029815E-02 9.135260447E-01
 1.578746438E-01 5.573011562E-02 9.021553338E-01
 1.464172602E-01 5.401207320E-02 8.979614433E-01
 1.349769533E-01 5.216315016E-02 8.855689413E-01
 1.234890334E-01 5.017856881E-02 8.764855702E-01
 1.127728447E-01 4.819330014E-02 8.654426649E-01
 1.023452468E-01 4.612508416E-02 8.540438295E-01
 9.180543572E-02 4.388127103E-02 8.418357328E-01
 8.065818250E-02 4.130981117E-02 8.252174187E-01
 6.003470160E-02 3.592337109E-02 7.896846548E-01
 7.143900171E-02 -2.365760319E-02 8.330364043E-01
 8.175017685E-02 -2.516047843E-02 8.327016718E-01
 1.027308851E-01 -2.792470530E-02 8.360434859E-01
 1.141494364E-01 -2.929280512E-02 8.377641821E-01
 1.260402091E-01 -3.063166607E-02 8.400275874E-01
 1.378932372E-01 -3.189462237E-02 8.435247752E-01
 1.493859291E-01 -3.305208310E-02 8.469490699E-01
 1.617830470E-01 -3.422838077E-02 8.505888233E-01
 1.744653881E-01 -3.536311537E-02 8.548029629E-01
 1.867045462E-01 -3.639260121E-02 8.590737336E-01
 1.985657364E-01 -3.733089194E-02 8.636477467E-01
 2.101614699E-01 -3.819129057E-02 8.681107804E-01
 2.222398072E-01 -3.902886249E-02 8.729409136E-01
 2.351526171E-01 -3.985248134E-02 8.781366906E-01
 2.482483611E-01 -4.061788134E-02 8.835456827E-01
 2.607597560E-01 -4.127755761E-02 8.904144242E-01
 2.725316435E-01 -4.182559066E-02 8.944281505E-01
 2.843710929E-01 -4.230803624E-02 8.991810503E-01
 2.965867817E-01 -4.273208231E-02 9.044243369E-01
 3.088781834E-01 -4.307673872E-02 9.090719894E-01
 3.212420791E-01 -4.333605804E-02 9.135404282E-01
 3.337830901E-01 -4.350479133E-02 9.166594574E-01
 3.457865864E-01 -4.357452318E-02 9.208661282E-01
 3.568598032E-01 -4.354671761E-02 9.198025160E-01
 3.673935533E-01 -4.344523512E-02 9.204256373E-01
 3.777782917E-01 -4.326627962E-02 9.193824124E-01
 3.889429867E-01 -4.298241995E-02 9.170154400E-01
 4.015206099E-01 -4.254182801E-02 9.089409903E-01
 4.144022614E-01 -4.198113829E-02 9.024990123E-01
 4.263404310E-01 -4.134549201E-02 8.953505759E-01
 4.380666167E-01 -4.061416723E-02 8.822940303E-01
 4.490836263E-01 -3.984809108E-02 8.739231082E-01
 4.595278352E-01 -3.904580139E-02 8.622982409E-01
 4.705208093E-01 -3.813163936E-02 8.517147973E-01
 4.812947512E-01 -3.717008419E-02 8.403290305E-01
 4.929147810E-01 -3.606653586E-02 8.273254719E-01
 5.061111003E-01 -3.474930488E-02 8.146553995E-01
 5.191731155E-01 -3.337833285E-02 8.008839799E-01
 5.323491991E-01 -3.194615338E-02 7.877239775E-01
 5.447235405E-01 -3.057190124E-02 7.782314135E-01
 5.570338666E-01 -2.916945238E-02 7.667898473E-01
 5.697462559E-01 -2.769583277E-02 7.559860366E-01
 5.811942220E-01 -2.635530662E-02 7.460450266E-01
 5.930357277E-01 -2.497122437E-02 7.381879501E-01
 6.074883342E-01 -2.328013349E-02 7.286677536E-01
 6.231441200E-01 -2.144924551E-02 7.183871311E-01
 6.392027438E-01 -1.957533415E-02 7.084838530E-01
 6.540185213E-01 -1.785335597E-02 6.985147932E-01
 6.669848859E-01 -1.637584995E-02 6.920772399E-01
 6.798310280E-01 -1.492789108E-02 6.857893738E-01
 6.922684908E-01 -1.353459992E-02 6.777181578E-01
 7.057145536E-01 -1.207235502E-02 6.722149594E-01
 7.194275260E-01 -1.059566252E-02 6.652727092E-01
 7.325082719E-01 -9.204123169E-03 6.560731867E-01
 7.465320230E-01 -7.786323549E-03 6.509211405E-01
 7.596685588E-01 -6.496334216E-03 6.451765826E-01
 7.718796730E-01 -5.328006810E-03 6.390687925E-01
 7.840452790E-01 -4.197875154E-03 6.323535446E-01
 7.961820066E-01 -3.124527517E-03 6.265970602E-01
 8.081754744E-01 -2.117561293E-03 6.211037909E-01
 8.195331693E-01 -1.210891322E-03 6.147221139E-01
 8.323635757E-01 -2.760416246E-04 6.096111717E-01
 8.454366922E-01 5.905564467E-04 6.038724598E-01
 8.575927019E-01 1.309177198E-03 5.987194402E-01
 8.694666922E-01 1.913861837E-03 5.940235713E-01
 8.815462291E-01 2.415688243E-03 5.904789631E-01
 8.942702711E-01 2.816839959E-03 5.873921015E-01
 9.058373868E-01 3.071653307E-03 5.838406480E-01
 9.162714481E-01 3.186796559E-03 5.831278726E-01
 9.438301623E-01 3.016397939E-03 5.820782629E-01
 9.545120001E-01 2.762747230E-03 5.819245581E-01
 9.670847058E-01 2.322397428E-03 5.833706290E-01
 9.805235267E-01 1.718721294E-03 5.788702971E-01
 9.934851825E-01 9.567783272E-04 5.760848161E-01
 -5.000000000E-01 9.500000000E-01 7.223029924E-01
 -5.000000000E-01 9.000000000E-01 7.189092031E-01
 -5.000000000E-01 8.500000000E-01 7.162510970E-01
 -5.000000000E-01 8.000000000E-01 7.139370590E-01
 -5.000000000E-01 7.500000000E-01 7.117271114E-01
 -5.000000000E-01 7.000000000E-01 7.095191416E-01
 -5.000000000E-01 6.500000000E-01 7.072597867E-01
 -5.000000000E-01 6.000000000E-01 7.050002681E-01
 -5.000000000E-01 5.500000000E-01 7.026830896E-01
 -5.000000000E-01 5.000000000E-01 7.002880917E-01
 -5.000000000E-01 4.500000000E-01 6.978723914E-01
 -5.000000000E-01 4.000000000E-01 6.954476958E-01
 -5.000000000E-01 3.500000000E-01 6.931295856E-01
 -5.000000000E-01 3.000000000E-01 6.908767776E-01
 -5.000000000E-01 2.500000000E-01 6.888126902E-01
 -5.000000000E-01 2.000000000E-01 6.870215275E-01
 -5.000000000E-01 1.500000000E-01 6.855368105E-01
 -5.000000000E-01 1.000000000E-01 6.844017300E-01
 -5.000000000E-01 5.000000000E-02 6.837868453E-01
 -5.000000000E-01 2.752242878E-12 6.835131135E-01
 -5.000000000E-01 -5.000000000E-02 6.837396611E-01
 -5.000000000E-01 -1.000000000E-01 6.844160282E-01
 -5.000000000E-01 -1.500000000E-01 6.854821469E-01
 -5.000000000E-01 -2.000000000E-01 6.869000352E-01
 -5.000000000E-01 -2.500000000E-01 6.885919962E-01
 -5.000000000E-01 -3.000000000E-01 6.904923944E-01
 -5.000000000E-01 -3.500000000E-01 6.925476477E-01
 -5.000000000E-01 -4.000000000E-01 6.946843014E-01
 -5.000000000E-01 -4.500000000E-01 6.968741559E-01
 -5.000000000E-01 -5.000000000E-01 6.990979966E-01
 -5.000000000E-01 -5.500000000E-01 7.012944079E-01
 -5.000000000E-01 -6.000000000E-01 7.034623274E-01
 -5.000000000E-01 -6.500000000E-01 7.056546143E-01
 -5.000000000E-01 -7.000000000E-01 7.078040890E-01
 -5.000000000E-01 -7.500000000E-01 7.099999886E-01
 -5.000000000E-01 -8.000000000E-01 7.122808445E-01
 -5.000000000E-01 -8.500000000E-01 7.147907991E-01
 -5.000000000E-01 -9.000000000E-01 7.176038450E-01
 -5.000000000E-01 -9.500000000E-01 7.214396257E-01
 -4.500000000E-01 -1.000000000E+00 7.211949364E-01
 -4.000000000E-01 -1.000000000E+00 7.175264422E-01
 -3.500000000E-01 -1.000000000E+00 7.150280203E-01
 -3.000000000E-01 -1.000000000E+00 7.132429998E-01
 -2.500000000E-01 -1.000000000E+00 7.120206373E-01
 -2.000000000E-01 -1.000000000E+00 7.113154557E-01
 -1.500000000E-01 -1.000000000E+00 7.111072872E-01
 -1.000000000E-01 -1.000000000E+00 7.113892189E-01
 -5.000000000E-02 -1.000000000E+00 7.121189337E-01
 -9.424683256E-13 -1.000000000E+00 7.132003468E-01
 5.000000000E-02 -1.000000000E+00 7.146116871E-01
 1.000000000E-01 -1.000000000E+00 7.163876407E-01
 1.500000000E-01 -1.000000000E+00 7.183300828E-01
 2.000000000E-01 -1.000000000E+00 7.202399700E-01
 2.500000000E-01 -1.000000000E+00 7.221316830E-01
 3.000000000E-01 -1.000000000E+00 7.237465608E-01
 3.500000000E-01 -1.000000000E+00 7.251167704E-01
 4.000000000E-01 -1.000000000E+00 7.261838241E-01
 4.500000000E-01 -1.000000000E+00 7.267779167E-01
 5.000000000E-01 -1.000000000E+00 7.267789367E-01
 5.500000000E-01 -1.000000000E+00 7.262174990E-01
 6.000000000E-01 -1.000000000E+00 7.252444752E-01
 6.500000000E-01 -1.000000000E+00 7.238322777E-01
 7.000000000E-01 -1.000000000E+00 7.221441953E-01
 7.500000000E-01 -1.000000000E+00 7.201906787E-01
 8.000000000E-01 -1.000000000E+00 7.181018744E-01
 8.500000000E-01 -1.000000000E+00 7.160017573E-01
 9.000000000E-01 -1.000000000E+00 7.139832302E-01
 9.500000000E-01 -1.000000000E+00 7.120580686E-01
 1.000000000E+00 -1.000000000E+00 7.102486689E-01
 1.050000000E+00 -1.000000000E+00 7.087218071E-01
 1.100000000E+00 -1.000000000E+00 7.074458847E-01
 1.150000000E+00 -1.000000000E+00 7.064578582E-01
 1.200000000E+00 -1.000000000E+00 7.057348325E-01
 1.250000000E+00 -1.000000000E+00 7.052649251E-01
 1.300000000E+00 -1.000000000E+00 7.049952339E-01
 1.350000000E+00 -1.000000000E+00 7.049709118E-01
 1.400000000E+00 -1.000000000E+00 7.051478546E-01
 1.450000000E+00 -1.000000000E+00 7.054453904E-01
 1.500000000E+00 -1.000000000E+00 7.058646963E-01
 1.550000000E+00 -1.000000000E+00 7.063485171E-01
 1.600000000E+00 -1.000000000E+00 7.069315491E-01
 1.650000000E+00 -1.000000000E+00 7.076265991E-01
 1.700000000E+00 -1.000000000E+00 7.083936165E-01
 1.750000000E+00 -1.000000000E+00 7.091389134E-01
 1.800000000E+00 -1.000000000E+00 7.099608872E-01
 1.850000000E+00 -1.000000000E+00 7.107470521E-01
 1.900000000E+00 -1.000000000E+00 7.114244628E-01
 1.950000000E+00 -1.000000000E+00 7.121398310E-01
 2.000000000E+00 -1.000000000E+00 7.129441129E-01
 2.050000000E+00 -1.000000000E+00 7.137202792E-01
 2.100000000E+00 -1.000000000E+00 7.144640188E-01
 2.150000000E+00 -1.000000000E+00 7.151925125E-01
 2.200000000E+00 -1.000000000E+00 7.159000827E-01
 2.250000000E+00 -1.000000000E+00 7.165169317E-01
 2.300000000E+00 -1.000000000E+00 7.171056313E-01
 2.350000000E+00 -1.000000000E+00 7.176963919E-01
 2.400000000E+00 -1.000000000E+00 7.182561099E-01
 2.450000000E+00 -1.000000000E+00 7.187857151E-01
 2.500000000E+00 -1.000000000E+00 7.193025778E-01
 2.550000000E+00 -1.000000000E+00 7.198039145E-01
 2.600000000E+00 -1.000000000E+00 7.202524886E-01
 2.650000000E+00 -1.000000000E+00 7.206377182E-01
 2.700000000E+00 -1.000000000E+00 7.210346623E-01
 2.750000000E+00 -1.000000000E+00 7.214314959E-01
 2.800000000E+00 -1.000000000E+00 7.217513498E-01
 2.850000000E+00 -1.000000000E+00 7.220500920E-01
 2.900000000E+00 -1.000000000E+00 7.223381319E-01
 2.950000000E+00 -1.000000000E+00 7.226474845E-01
 3.000000000E+00 -1.000000000E+00 7.228803591E-01
 3.050000000E+00 -1.000000000E+00 7.230852895E-01
 3.100000000E+00 -1.000000000E+00 7.233318881E-01
 3.150000000E+00 -1.000000000E+00 7.235916699E-01
 3.200000000E+00 -1.000000000E+00 7.238145857E-01
 3.250000000E+00 -1.000000000E+00 7.240966458E-01
 3.300000000E+00 -1.000000000E+00 7.244319040E-01
 3.350000000E+00 -1.000000000E+00 7.248433812E-01
 3.400000000E+00 -1.000000000E+00 7.254077347E-01
 3.450000000E+00 -1.000000000E+00 7.266386680E-01
 3.500000000E+00 -9.500000000E-01 7.300113380E-01
 3.500000000E+00 -9.000000000E-01 7.305897691E-01
 3.500000000E+00 -8.500000000E-01 7.309963455E-01
 3.500000000E+00 -8.000000000E-01 7.313264483E-01
 3.500000000E+00 -7.500000000E-01 7.316377525E-01
 3.500000000E+00 -7.000000000E-01 7.319177993E-01
 3.500000000E+00 -6.500000000E-01 7.322044608E-01
 3.500000000E+00 -6.000000000E-01 7.324829992E-01
 3.500000000E+00 -5.500000000E-01 7.327796516E-01
 3.500000000E+00 -5.000000000E-01 7.330763841E-01
 3.500000000E+00 -4.500000000E-01 7.333752783E-01
 3.500000000E+00 -4.000000000E-01 7.336763625E-01
 3.500000000E+00 -3.500000000E-01 7.339892589E-01
 3.500000000E+00 -3.000000000E-01 7.343056411E-01
 3.500000000E+00 -2.500000000E-01 7.345640710E-01
 3.500000000E+00 -2.000000000E-01 7.347233977E-01
 3.500000000E+00 -1.500000000E-01 7.347791949E-01
 3.500000000E+00 -1.000000000E-01 7.347296539E-01
 3.500000000E+00 -5.000000000E-02 7.346777503E-01
 3.500000000E+00 -2.752242878E-12 7.346788877E-01
 3.500000000E+00 5.000000000E-02 7.346631878E-01
 3.500000000E+00 1.000000000E-01 7.345417014E-01
 3.500000000E+00 1.500000000E-01 7.343086917E-01
 3.500000000E+00 2.000000000E-01 7.339876235E-01
 3.500000000E+00 2.500000000E-01 7.336415987E-01
 3.500000000E+00 3.000000000E-01 7.333072634E-01
 3.500000000E+00 3.500000000E-01 7.330029759E-01
 3.500000000E+00 4.000000000E-01 7.326882740E-01
 3.500000000E+00 4.500000000E-01 7.322899996E-01
 3.500000000E+00 5.000000000E-01 7.318173650E-01
 3.500000000E+00 5.500000000E-01 7.314548682E-01
 3.500000000E+00 6.000000000E-01 7.315269217E-01
 3.500000000E+00 6.500000000E-01 7.321024661E-01
 3.500000000E+00 7.000000000E-01 7.328534269E-01
 3.500000000E+00 7.500000000E-01 7.327056277E-01
 3.500000000E+00 8.000000000E-01 7.302682615E-01
 3.500000000E+00 8.500000000E-01 7.257289201E-01
 3.500000000E+00 9.000000000E-01 7.199334271E-01
 3.500000000E+00 9.500000000E-01 7.138396280E-01
 3.450000000E+00 1.000000000E+00 6.935336228E-01
 3.400000000E+00 1.000000000E+00 6.872143090E-01
 3.350000000E+00 1.000000000E+00 6.855962298E-01
 3.300000000E+00 1.000000000E+00 6.846772454E-01
 3.250000000E+00 1.000000000E+00 6.844286992E-01
 3.200000000E+00 1.000000000E+00 6.848530297E-01
 3.150000000E+00 1.000000000E+00 6.851384234E-01
 3.100000000E+00 1.000000000E+00 6.853979957E-01
 3.050000000E+00 1.000000000E+00 6.854819767E-01
 3.000000000E+00 1.000000000E+00 6.856340747E-01
 2.950000000E+00 1.000000000E+00 6.861547095E-01
 2.900000000E+00 1.000000000E+00 6.868310006E-01
 2.850000000E+00 1.000000000E+00 6.875631575E-01
 2.800000000E+00 1.000000000E+00 6.881635389E-01
 2.750000000E+00 1.000000000E+00 6.885880353E-01
 2.700000000E+00 1.000000000E+00 6.895058807E-01
 2.650000000E+00 1.000000000E+00 6.903211123E-01
 2.600000000E+00 1.000000000E+00 6.908972628E-01
 2.550000000E+00 1.000000000E+00 6.911538278E-01
 2.500000000E+00 1.000000000E+00 6.910348267E-01
 2.450000000E+00 1.000000000E+00 6.916152682E-01
 2.400000000E+00 1.000000000E+00 6.922653710E-01
 2.350000000E+00 1.000000000E+00 6.925837243E-01
 2.300000000E+00 1.000000000E+00 6.938724325E-01
 2.250000000E+00 1.000000000E+00 6.949108558E-01
 2.200000000E+00 1.000000000E+00 6.955948620E-01
 2.150000000E+00 1.000000000E+00 6.957744603E-01
 2.100000000E+00 1.000000000E+00 6.957092132E-01
 2.050000000E+00 1.000000000E+00 6.963789591E-01
 2.000000000E+00 1.000000000E+00 6.973139160E-01
 1.950000000E+00 1.000000000E+00 6.976360139E-01
 1.900000000E+00 1.000000000E+00 6.991547528E-01
 1.850000000E+00 1.000000000E+00 7.000083162E-01
 1.800000000E+00 1.000000000E+00 7.007187144E-01
 1.750000000E+00 1.000000000E+00 7.013972616E-01
 1.700000000E+00 1.000000000E+00 7.030275944E-01
 1.650000000E+00 1.000000000E+00 7.049560853E-01
 1.600000000E+00 1.000000000E+00 7.063343251E-01
 1.550000000E+00 1.000000000E+00 7.078736363E-01
 1.500000000E+00 1.000000000E+00 7.098839092E-01
 1.450000000E+00 1.000000000E+00 7.120366405E-01
 1.400000000E+00 1.000000000E+00 7.145601443E-01
 1.350000000E+00 1.000000000E+00 7.172131146E-01
 1.300000000E+00 1.000000000E+00 7.198731773E-01
 1.250000000E+00 1.000000000E+00 7.234292461E-01
 1.200000000E+00 1.000000000E+00 7.270053292E-01
 1.150000000E+00 1.000000000E+00 7.309036303E-01
 1.100000000E+00 1.000000000E+00 7.347869036E-01
 1.050000000E+00 1.000000000E+00 7.389041829E-01
 1.000000000E+00 1.000000000E+00 7.443525477E-01
 9.500000000E-01 1.000000000E+00 7.490084481E-01
 9.000000000E-01 1.000000000E+00 7.539526401E-01
 8.500000000E-01 1.000000000E+00 7.587198549E-01
 8.000000000E-01 1.000000000E+00 7.627312995E-01
 7.500000000E-01 1.000000000E+00 7.663981882E-01
 7.000000000E-01 1.000000000E+00 7.681763163E-01
 6.500000000E-01 1.000000000E+00 7.678627441E-01
 6.000000000E-01 1.000000000E+00 7.710594850E-01
 5.500000000E-01 1.000000000E+00 7.729285109E-01
 5.000000000E-01 1.000000000E+00 7.709913808E-01
 4.500000000E-01 1.000000000E+00 7.684763646E-01
 4.000000000E-01 1.000000000E+00 7.641366632E-01
 3.500000000E-01 1.000000000E+00 7.591628901E-01
 3.000000000E-01 1.000000000E+00 7.538573795E-01
 2.500000000E-01 1.000000000E+00 7.482126186E-01
 2.000000000E-01 1.000000000E+00 7.422590650E-01
 1.500000000E-01 1.000000000E+00 7.365918495E-01
 1.000000000E-01 1.000000000E+00 7.314064827E-01
 5.000000000E-02 1.000000000E+00 7.269261534E-01
 1.733724275E-12 1.000000000E+00 7.231893055E-01
 -5.000000000E-02 1.000000000E+00 7.200646531E-01
 -1.000000000E-01 1.000000000E+00 7.177035568E-01
 -1.500000000E-01 1.000000000E+00 7.160473734E-01
 -2.000000000E-01 1.000000000E+00 7.152288562E-01
 -2.500000000E-01 1.000000000E+00 7.151725466E-01
 -3.000000000E-01 1.000000000E+00 7.157223145E-01
 -3.500000000E-01 1.000000000E+00 7.169085276E-01
 -4.000000000E-01 1.000000000E+00 7.189548890E-01
 -4.500000000E-01 1.000000000E+00 7.221753077E-01
 9.457671565E-01 -1.912455784E-03 5.849568029E-01
 8.611227226E-01 -3.349727733E-03 5.996612582E-01
 7.814746436E-01 -1.044963243E-02 6.359652306E-01
 7.105579671E-01 -1.807508087E-02 6.712839581E-01
 6.359535348E-01 -2.671539638E-02 7.116725499E-01
 5.611929024E-01 -3.415604687E-02 7.636592397E-01
 4.967177831E-01 -4.169233775E-02 8.222030016E-01
 4.354744613E-01 -4.545659328E-02 8.820235729E-01
 3.746226167E-01 -4.742580611E-02 9.168559169E-01
 3.175261785E-01 -4.834696825E-02 9.097359966E-01
 2.574534531E-01 -4.640457475E-02 8.870934100E-01
 1.953076269E-01 -4.209232690E-02 8.608420607E-01
 1.343913629E-01 -3.640524065E-02 8.408294731E-01
 7.847320868E-02 -2.925684639E-02 8.292890291E-01
 9.037449232E-01 -1.630592337E-03 5.873371962E-01
 1.979089275E+00 -9.595812925E-01 7.139715017E-01
 1.980461456E+00 9.524395978E-01 7.083780333E-01
 4.271428311E-02 -2.462936488E-02 8.219766426E-01
 1.146256419E-02 -1.230404669E-02 7.859147918E-01
 9.894687027E-01 -4.499060421E-03 5.759869399E-01
 9.163667264E-01 2.346607251E-02 7.629740860E-01