TITLE     = "Visualization of the solution"
VARIABLES = "x"
"y"
"Mach"
ZONE T="Zone"
 STRANDID=0, SOLUTIONTIME=0
 Nodes=11987, Elements=23391, ZONETYPE=FEQuadrilateral
 DATAPACKING=POINT
 DT=(DOUBLE DOUBLE DOUBLE )
 1.000164151E+00 5.180048756E-04 5.321230227E-01
 9.853807688E-01 3.390689148E-03 6.511600798E-01
 9.721893668E-01 5.909315310E-03 6.769254077E-01
 9.568758011E-01 8.887350559E-03 7.025066095E-01
 9.427506924E-01 1.156128757E-02 7.164156882E-01
 9.305049181E-01 1.392769162E-02 7.371410389E-01
 9.191374183E-01 1.604502648E-02 7.456796833E-01
 9.075655937E-01 1.824696362E-02 7.674760312E-01
 8.957386613E-01 2.038159780E-02 7.773437823E-01
 8.836334944E-01 2.252552658E-02 7.899561623E-01
 8.714742661E-01 2.461285144E-02 8.003747498E-01
 8.594149947E-01 2.661252767E-02 8.076470531E-01
 8.474962115E-01 2.855299041E-02 8.174692243E-01
 8.361299634E-01 3.033806011E-02 8.216802729E-01
 8.246265650E-01 3.213229775E-02 8.310237239E-01
 8.121933341E-01 3.403786942E-02 8.423110876E-01
 7.995617390E-01 3.588433191E-02 8.456285019E-01
 7.876250148E-01 3.761956096E-02 8.555040570E-01
 7.750809789E-01 3.937868774E-02 8.605784659E-01
 7.633070946E-01 4.100823775E-02 8.690001471E-01
 7.503556013E-01 4.275603220E-02 8.774962553E-01
 7.369701862E-01 4.450356960E-02 8.848223731E-01
 7.259931564E-01 4.590908065E-02 8.927820356E-01
 7.143613100E-01 4.735069722E-02 8.995225650E-01
 7.025152445E-01 4.879480228E-02 9.089967423E-01
 6.893678904E-01 5.032482371E-02 9.155712048E-01
 6.762907505E-01 5.182536691E-02 9.310230379E-01
 6.649806499E-01 5.303749815E-02 9.340973290E-01
 6.529017091E-01 5.430506170E-02 9.455170739E-01
 6.415252090E-01 5.544186383E-02 9.533982485E-01
 6.293823719E-01 5.659439042E-02 9.604260821E-01
 6.176256537E-01 5.765928328E-02 9.685512943E-01
 6.067781448E-01 5.859278888E-02 9.796696180E-01
 5.948268175E-01 5.957364663E-02 9.909861676E-01
 5.829401612E-01 6.045691669E-02 9.947746070E-01
 5.695143342E-01 6.140862405E-02 1.004628048E+00
 5.565288067E-01 6.221697107E-02 1.009468709E+00
 5.436075926E-01 6.295410544E-02 1.032543071E+00
 5.320311785E-01 6.354160607E-02 1.048490624E+00
 5.198772550E-01 6.410503387E-02 1.050174867E+00
 5.072492361E-01 6.458419561E-02 1.043479438E+00
 4.963469803E-01 6.495147943E-02 1.041364668E+00
 4.832004905E-01 6.530282646E-02 1.038959117E+00
 4.704139233E-01 6.557209790E-02 1.041648984E+00
 4.571076632E-01 6.579437852E-02 1.038656894E+00
 4.433893263E-01 6.591050327E-02 1.027905750E+00
 4.306198359E-01 6.594943255E-02 1.021023398E+00
 4.173448086E-01 6.590972841E-02 1.013453701E+00
 4.048118591E-01 6.579372287E-02 1.010408604E+00
 3.919097781E-01 6.563119590E-02 1.010239658E+00
 3.796556294E-01 6.537675858E-02 9.998564183E-01
 3.679210544E-01 6.508927792E-02 9.959664161E-01
 3.546276987E-01 6.468600035E-02 9.917097855E-01
 3.421348333E-01 6.423890591E-02 9.859661779E-01
 3.295259774E-01 6.371033937E-02 9.791955062E-01
 3.190088868E-01 6.322008371E-02 9.746904232E-01
 3.069929779E-01 6.260848045E-02 9.727898426E-01
 2.944517434E-01 6.189272553E-02 9.661892633E-01
 2.806955874E-01 6.101594865E-02 9.581360559E-01
 2.684526443E-01 6.016539037E-02 9.524935787E-01
 2.566379905E-01 5.928808451E-02 9.497614688E-01
 2.442011088E-01 5.828474462E-02 9.433184649E-01
 2.315367609E-01 5.717397481E-02 9.356286234E-01
 2.195016891E-01 5.605971068E-02 9.331635265E-01
 2.076976150E-01 5.488163978E-02 9.266542964E-01
 1.959245205E-01 5.362099409E-02 9.187764534E-01
 1.836968958E-01 5.224452540E-02 9.154728593E-01
 1.718461514E-01 5.080456659E-02 9.064035890E-01
 1.600611508E-01 4.929158092E-02 9.002230119E-01
 1.484301835E-01 4.771615565E-02 8.966894018E-01
 1.374673694E-01 4.612432793E-02 8.882941273E-01
 1.261366010E-01 4.438113421E-02 8.805527937E-01
 1.151080951E-01 4.258499667E-02 8.746679975E-01
 1.042774618E-01 4.070633277E-02 8.662895332E-01
 9.445205331E-02 3.889349103E-02 8.605685261E-01
 8.366900682E-02 3.676611185E-02 8.511240481E-01
 7.259310782E-02 3.441431373E-02 8.406742394E-01
 6.295806170E-02 3.220264986E-02 8.314949910E-01
 5.371379480E-02 2.990908735E-02 8.208621002E-01
 4.501209408E-02 2.756205946E-02 8.090352372E-01
 3.727578372E-02 2.527859434E-02 7.960377289E-01
 3.056691587E-02 2.310555242E-02 7.828984665E-01
 2.481800877E-02 2.106123790E-02 7.707891481E-01
 2.057604864E-02 1.940519549E-02 7.560755663E-01
 1.658817939E-02 1.769947074E-02 7.393274286E-01
 1.354471780E-02 1.627687365E-02 7.225204651E-01
 1.085411105E-02 1.489351224E-02 7.051724511E-01
 8.915363811E-03 1.380303036E-02 6.891578584E-01
 7.110532839E-03 1.270231698E-02 6.712085966E-01
 5.408437923E-03 1.154915616E-02 6.412681836E-01
 3.217142308E-03 9.851857089E-03 5.953269673E-01
 1.439417247E-03 8.180107921E-03 5.445155695E-01
 2.775865323E-05 6.506573409E-03 4.610141247E-01
 -1.325449790E-03 4.213068169E-03 3.399590932E-01
 -1.939768321E-03 2.392384922E-03 2.309179914E-01
 -2.160701435E-03 8.698749589E-04 1.196102553E-01
 -2.106116852E-03 -9.110745741E-04 1.768243777E-03
 -1.642308431E-03 -2.980803140E-03 1.106697037E-01
 -6.129621179E-04 -5.378481932E-03 2.249286632E-01
 9.850466158E-04 -7.888476364E-03 3.342809341E-01
 3.143271897E-03 -1.045695134E-02 4.194688027E-01
 5.129616242E-03 -1.241098531E-02 4.798154926E-01
 7.467768621E-03 -1.441750117E-02 5.271864308E-01
 9.296970442E-03 -1.582370140E-02 5.620177949E-01
 1.149263699E-02 -1.738036238E-02 5.904397400E-01
 1.400672644E-02 -1.901228167E-02 6.211746875E-01
 1.733859070E-02 -2.098960616E-02 6.528410375E-01
 2.060584165E-02 -2.275766060E-02 6.828025665E-01
 2.469155937E-02 -2.478547022E-02 7.081141431E-01
 3.007274680E-02 -2.721825242E-02 7.357916550E-01
 3.569967672E-02 -2.952400036E-02 7.625962253E-01
 4.248304665E-02 -3.203865513E-02 7.844805750E-01
 5.003862455E-02 -3.458757699E-02 8.029619877E-01
 5.873923749E-02 -3.725863248E-02 8.205355735E-01
 6.748482585E-02 -3.970464319E-02 8.360732017E-01
 7.781485468E-02 -4.233778641E-02 8.499635662E-01
 8.767528087E-02 -4.465349019E-02 8.625845031E-01
 9.833577275E-02 -4.696855694E-02 8.734385309E-01
 1.096621677E-01 -4.925279692E-02 8.860360861E-01
 1.213824451E-01 -5.142708868E-02 8.943635490E-01
 1.331920922E-01 -5.346871912E-02 9.047100317E-01
 1.439127773E-01 -5.520022660E-02 9.151776389E-01
 1.552999169E-01 -5.691666901E-02 9.224361594E-01
 1.673242003E-01 -5.860840902E-02 9.315357730E-01
 1.789291203E-01 -6.012684479E-02 9.402303198E-01
 1.907169819E-01 -6.156629696E-02 9.496838288E-01
 2.013594657E-01 -6.277690083E-02 9.603033649E-01
 2.126921415E-01 -6.396967173E-02 9.672600941E-01
 2.248085290E-01 -6.514871866E-02 9.769062934E-01
 2.367128283E-01 -6.620020419E-02 9.864305797E-01
 2.485729903E-01 -6.716534495E-02 1.001629153E+00
 2.607038319E-01 -6.802017987E-02 1.009208122E+00
 2.719838321E-01 -6.873318553E-02 1.015324226E+00
 2.844813466E-01 -6.942944974E-02 1.031074814E+00
 2.966066897E-01 -6.997325271E-02 1.048419554E+00
 3.091893494E-01 -7.041766495E-02 1.058249692E+00
 3.209164143E-01 -7.072963566E-02 1.068676730E+00
 3.332727551E-01 -7.093885541E-02 1.079482466E+00
 3.436482549E-01 -7.101292908E-02 1.094131720E+00
 3.550440967E-01 -7.098376006E-02 1.103859314E+00
 3.662244976E-01 -7.085561752E-02 1.112538848E+00
 3.773835003E-01 -7.062865049E-02 1.125017998E+00
 3.892559707E-01 -7.025456429E-02 1.133028912E+00
 4.020489752E-01 -6.973231584E-02 1.140335661E+00
 4.140696824E-01 -6.908097118E-02 1.172861779E+00
 4.267489016E-01 -6.826075166E-02 1.114779021E+00
 4.391004145E-01 -6.735217571E-02 9.334482706E-01
 4.519380033E-01 -6.627874076E-02 9.295787856E-01
 4.642706811E-01 -6.513442099E-02 9.495160732E-01
 4.768278003E-01 -6.384479254E-02 9.354801418E-01
 4.888560474E-01 -6.248601526E-02 9.138474832E-01
 5.010981560E-01 -6.105489284E-02 9.037319869E-01
 5.144407153E-01 -5.937398970E-02 8.854478029E-01
 5.274830461E-01 -5.766380578E-02 8.707919238E-01
 5.398976803E-01 -5.597178638E-02 8.580160117E-01
 5.530866981E-01 -5.409644172E-02 8.423490387E-01
 5.662299395E-01 -5.217751116E-02 8.286781227E-01
 5.793673396E-01 -5.020957440E-02 8.149744996E-01
 5.925669074E-01 -4.818871617E-02 8.009787326E-01
 6.056990027E-01 -4.616671056E-02 7.912237187E-01
 6.188026071E-01 -4.410082102E-02 7.780119349E-01
 6.323013902E-01 -4.196405038E-02 7.679182003E-01
 6.456217766E-01 -3.981587291E-02 7.542149809E-01
 6.587510705E-01 -3.771647811E-02 7.454281292E-01
 6.721767783E-01 -3.557381406E-02 7.376224402E-01
 6.845389009E-01 -3.357545286E-02 7.275048461E-01
 6.968501806E-01 -3.157756478E-02 7.168234808E-01
 7.115533352E-01 -2.924082242E-02 7.100982648E-01
 7.244639397E-01 -2.715650760E-02 6.985461816E-01
 7.361176014E-01 -2.531878278E-02 6.932734218E-01
 7.494181991E-01 -2.319436520E-02 6.821270265E-01
 7.620590925E-01 -2.119070105E-02 6.711590852E-01
 7.757186890E-01 -1.911070570E-02 6.653479787E-01
 7.879951000E-01 -1.725504361E-02 6.576046891E-01
 8.004749417E-01 -1.536618825E-02 6.458551396E-01
 8.117870688E-01 -1.375387609E-02 6.427189988E-01
 8.228200078E-01 -1.216921583E-02 6.326810074E-01
 8.351103663E-01 -1.047522575E-02 6.249322116E-01
 8.473291993E-01 -8.850888349E-03 6.165471454E-01
 8.594090343E-01 -7.319384720E-03 6.071538800E-01
 8.704115152E-01 -6.037939340E-03 6.027702557E-01
 8.813424706E-01 -4.811842460E-03 5.936775031E-01
 8.940358758E-01 -3.557122778E-03 5.885386500E-01
 9.041489363E-01 -2.655272372E-03 5.830423363E-01
 9.153330326E-01 -1.807621215E-03 5.813880067E-01
 9.256797433E-01 -1.116825617E-03 5.769125046E-01
 9.360464811E-01 -5.640715244E-04 5.762278067E-01
 9.485120773E-01 -3.445338734E-05 5.741618354E-01
 9.627829790E-01 3.507095680E-04 5.741330076E-01
 9.767874479E-01 5.436472129E-04 5.715689994E-01
 9.894076586E-01 5.653878907E-04 5.593567900E-01
 -5.000000000E-01 -1.000000000E+00 7.233959348E-01
 3.500000000E+00 -1.000000000E+00 7.266912640E-01
 3.500000000E+00 1.000000000E+00 7.125815338E-01
 -5.000000000E-01 1.000000000E+00 7.237350565E-01
 9.927724600E-01 1.954347012E-03 6.307411071E-01
 9.787850678E-01 4.650002229E-03 6.641601483E-01
 9.645325840E-01 7.398332935E-03 6.901529684E-01
 9.498132467E-01 1.022431906E-02 7.094157372E-01
 9.366278052E-01 1.274448959E-02 7.276095517E-01
 9.248211682E-01 1.498635905E-02 7.407924390E-01
 9.133515060E-01 1.714599505E-02 7.571589837E-01
 9.016521275E-01 1.931428071E-02 7.725362614E-01
 8.896860778E-01 2.145356219E-02 7.836683972E-01
 8.775538802E-01 2.356918901E-02 7.957733709E-01
 8.654446304E-01 2.561268955E-02 8.036808017E-01
 8.534556031E-01 2.758275904E-02 8.130556182E-01
 8.418130875E-01 2.944552526E-02 8.193424369E-01
 8.303782642E-01 3.123517893E-02 8.258144142E-01
 8.184099495E-01 3.308508359E-02 8.376789497E-01
 8.058775365E-01 3.496110067E-02 8.433165630E-01
 7.935933769E-01 3.675194643E-02 8.511033681E-01
 7.813529968E-01 3.849912435E-02 8.577472048E-01
 7.691940367E-01 4.019346274E-02 8.647309898E-01
 7.568313479E-01 4.188213497E-02 8.735317189E-01
 7.436628938E-01 4.362980090E-02 8.806861850E-01
 7.314816713E-01 4.520632513E-02 8.894690284E-01
 7.201772332E-01 4.662988894E-02 8.953517640E-01
 7.084382772E-01 4.807274975E-02 9.053326411E-01
 6.959415674E-01 4.955981299E-02 9.106749113E-01
 6.828293204E-01 5.107509531E-02 9.246394599E-01
 6.706357002E-01 5.243143253E-02 9.320753762E-01
 6.589411795E-01 5.367127992E-02 9.397003146E-01
 6.472134590E-01 5.487346277E-02 9.499665660E-01
 6.354537904E-01 5.601812713E-02 9.566507671E-01
 6.235040128E-01 5.712683685E-02 9.644578778E-01
 6.122018993E-01 5.812603608E-02 9.731688705E-01
 6.008024812E-01 5.908321775E-02 9.872405792E-01
 5.888834894E-01 6.001528166E-02 9.912567502E-01
 5.762272477E-01 6.093277037E-02 1.001491848E+00
 5.630215704E-01 6.181279756E-02 1.004726853E+00
 5.500681996E-01 6.258553825E-02 1.020412232E+00
 5.378193855E-01 6.324785575E-02 1.041747184E+00
 5.259542167E-01 6.382331997E-02 1.052279445E+00
 5.135632455E-01 6.434461474E-02 1.045090449E+00
 5.017981082E-01 6.476783752E-02 1.043541406E+00
 4.897737354E-01 6.512715295E-02 1.039157352E+00
 4.768072069E-01 6.543746218E-02 1.039889689E+00
 4.637607932E-01 6.568323821E-02 1.042446647E+00
 4.502484947E-01 6.585244089E-02 1.032305073E+00
 4.370045811E-01 6.592996791E-02 1.024765186E+00
 4.239823222E-01 6.592958048E-02 1.017187323E+00
 4.110783339E-01 6.585172564E-02 1.010288889E+00
 3.983608186E-01 6.571245939E-02 1.012447028E+00
 3.857827038E-01 6.550397724E-02 1.003983849E+00
 3.737883419E-01 6.523301825E-02 9.982857708E-01
 3.612743765E-01 6.488763914E-02 9.935052099E-01
 3.483812660E-01 6.446245313E-02 9.894267408E-01
 3.358304054E-01 6.397462264E-02 9.820699902E-01
 3.242674321E-01 6.346521154E-02 9.766576251E-01
 3.130009323E-01 6.291428208E-02 9.740493052E-01
 3.007223606E-01 6.225060299E-02 9.702135176E-01
 2.875736654E-01 6.145433709E-02 9.617526700E-01
 2.745741159E-01 6.059066951E-02 9.547816117E-01
 2.625453174E-01 5.972673744E-02 9.514053648E-01
 2.504195496E-01 5.878641456E-02 9.472017008E-01
 2.378689349E-01 5.772935972E-02 9.385853968E-01
 2.255192250E-01 5.661684275E-02 9.345903080E-01
 2.135996521E-01 5.547067523E-02 9.305197223E-01
 2.018110678E-01 5.425131693E-02 9.219633622E-01
 1.898107082E-01 5.293275975E-02 9.176703100E-01
 1.777715236E-01 5.152454600E-02 9.109594611E-01
 1.659536511E-01 5.004807375E-02 9.028266058E-01
 1.542456672E-01 4.850386828E-02 8.987628632E-01
 1.429487765E-01 4.692024179E-02 8.928556618E-01
 1.318019852E-01 4.525273107E-02 8.841088664E-01
 1.206223480E-01 4.348306544E-02 8.775672246E-01
 1.096927784E-01 4.164566472E-02 8.713497862E-01
 8.906053007E-02 3.782980144E-02 8.558698905E-01
 7.813105732E-02 3.559021279E-02 8.469438956E-01
 7.264984027E-02 -4.102121480E-02 8.446564934E-01
 8.274506778E-02 -4.349563830E-02 8.565636663E-01
 9.300552681E-02 -4.581102356E-02 8.680233337E-01
 1.039989702E-01 -4.811067693E-02 8.795785118E-01
 1.155223064E-01 -5.033994280E-02 8.907346781E-01
 1.272872686E-01 -5.244790390E-02 8.990474678E-01
 1.385524347E-01 -5.433447286E-02 9.105921765E-01
 1.496063471E-01 -5.605844781E-02 9.187828175E-01
 1.613120586E-01 -5.776253901E-02 9.266098138E-01
 1.731266603E-01 -5.936762691E-02 9.362366244E-01
 1.848230511E-01 -6.084657088E-02 9.445430645E-01
 1.960382238E-01 -6.217159890E-02 9.553578293E-01
 2.070258036E-01 -6.337328628E-02 9.640953601E-01
 2.187503353E-01 -6.455919519E-02 9.712668713E-01
 2.307606786E-01 -6.567446142E-02 9.820452178E-01
 2.426429093E-01 -6.668277457E-02 9.930718599E-01
 2.546384111E-01 -6.759276241E-02 1.007151618E+00
 2.663438320E-01 -6.837668270E-02 1.011617696E+00
 2.782325894E-01 -6.908131763E-02 1.021441646E+00
 2.905440181E-01 -6.970135123E-02 1.040824993E+00
 3.028980196E-01 -7.019545883E-02 1.053918568E+00
 3.150528818E-01 -7.057365030E-02 1.063263488E+00
 3.270945847E-01 -7.083424553E-02 1.073643532E+00
 3.384605050E-01 -7.097589225E-02 1.087184964E+00
 3.493461758E-01 -7.099834457E-02 1.099344631E+00
 3.606342971E-01 -7.091968879E-02 1.108290071E+00
 3.718039989E-01 -7.074213400E-02 1.117908119E+00
 3.833197355E-01 -7.044160739E-02 1.130625617E+00
 3.956524730E-01 -6.999344006E-02 1.134446883E+00
 4.080593288E-01 -6.940664351E-02 1.154835435E+00
 4.204092920E-01 -6.867086142E-02 1.170273696E+00
 4.329246581E-01 -6.780646369E-02 1.005620104E+00
 4.455192089E-01 -6.681545824E-02 9.171081063E-01
 4.581043422E-01 -6.570658088E-02 9.443880357E-01
 4.705492407E-01 -6.448960677E-02 9.447132220E-01
 4.828419238E-01 -6.316540390E-02 9.245422245E-01
 4.949771017E-01 -6.177045405E-02 9.078718002E-01
 5.077694356E-01 -6.021444127E-02 8.955867006E-01
 5.209618807E-01 -5.851889774E-02 8.774402738E-01
 5.336903632E-01 -5.681779608E-02 8.645466831E-01
 5.464921892E-01 -5.503411405E-02 8.503208675E-01
 5.596583188E-01 -5.313697644E-02 8.353116535E-01
 5.727986395E-01 -5.119354278E-02 8.219944573E-01
 5.859671235E-01 -4.919914529E-02 8.078073870E-01
 5.991329551E-01 -4.717771336E-02 7.959456354E-01
 6.122508049E-01 -4.513376579E-02 7.848099208E-01
 6.255519986E-01 -4.303243570E-02 7.727844102E-01
 6.389615834E-01 -4.088996165E-02 7.612724993E-01
 6.521864235E-01 -3.876617551E-02 7.493796970E-01
 6.654639244E-01 -3.664514609E-02 7.415363296E-01
 6.783578396E-01 -3.457463346E-02 7.328209707E-01
 6.906945407E-01 -3.257650882E-02 7.220629868E-01
 7.042017579E-01 -3.040919360E-02 7.134177413E-01
 7.180086374E-01 -2.819866501E-02 7.045244914E-01
 7.302907705E-01 -2.623764519E-02 6.956457766E-01
 7.427679002E-01 -2.425657399E-02 6.880969032E-01
 7.557386458E-01 -2.219253313E-02 6.764623359E-01
 7.688888907E-01 -2.015070338E-02 6.680194734E-01
 7.818568945E-01 -1.818287466E-02 6.617006473E-01
 7.942350209E-01 -1.631061593E-02 6.518610480E-01
 8.061310053E-01 -1.456003217E-02 6.438259222E-01
 8.173035383E-01 -1.296154596E-02 6.380505190E-01
 8.289651871E-01 -1.132222079E-02 6.288281833E-01
 8.412197828E-01 -9.663057048E-03 6.207493250E-01
 8.533691168E-01 -8.085136535E-03 6.118547374E-01
 8.649102747E-01 -6.678662030E-03 6.046809096E-01
 8.758769929E-01 -5.424890900E-03 5.980960750E-01
 8.876891732E-01 -4.184482619E-03 5.914671409E-01
 8.990924060E-01 -3.106197575E-03 5.852012997E-01
 9.097409844E-01 -2.231446793E-03 5.823352585E-01
 9.205063879E-01 -1.462223416E-03 5.789697364E-01
 9.308631122E-01 -8.404485707E-04 5.762879840E-01
 9.422792792E-01 -2.992624559E-04 5.753388698E-01
 9.556475282E-01 1.581280903E-04 5.742514098E-01
 9.697852135E-01 4.471783905E-04 5.725823563E-01
 9.830975533E-01 5.545175518E-04 5.652422382E-01
 9.947859049E-01 5.416963832E-04 5.526927405E-01
 -5.000000000E-01 9.500000000E-01 7.211787958E-01
 -5.000000000E-01 9.000000000E-01 7.173425646E-01
 -5.000000000E-01 8.500000000E-01 7.142372592E-01
 -5.000000000E-01 8.000000000E-01 7.116175043E-01
 -5.000000000E-01 7.500000000E-01 7.090850094E-01
 -5.000000000E-01 7.000000000E-01 7.065767167E-01
 -5.000000000E-01 6.500000000E-01 7.040521230E-01
 -5.000000000E-01 6.000000000E-01 7.015029523E-01
 -5.000000000E-01 5.500000000E-01 6.988613808E-01
 -5.000000000E-01 5.000000000E-01 6.961473337E-01
 -5.000000000E-01 4.500000000E-01 6.934302509E-01
 -5.000000000E-01 4.000000000E-01 6.906939853E-01
 -5.000000000E-01 3.500000000E-01 6.879532590E-01
 -5.000000000E-01 3.000000000E-01 6.853780243E-01
 -5.000000000E-01 2.500000000E-01 6.829046727E-01
 -5.000000000E-01 2.000000000E-01 6.807508853E-01
 -5.000000000E-01 1.500000000E-01 6.789304961E-01
 -5.000000000E-01 1.000000000E-01 6.775048984E-01
 -5.000000000E-01 5.000000000E-02 6.765920480E-01
 -5.000000000E-01 2.752242878E-12 6.761932405E-01
 -5.000000000E-01 -5.000000000E-02 6.763388697E-01
 -5.000000000E-01 -1.000000000E-01 6.770287019E-01
 -5.000000000E-01 -1.500000000E-01 6.782279912E-01
 -5.000000000E-01 -2.000000000E-01 6.799066479E-01
 -5.000000000E-01 -2.500000000E-01 6.818836912E-01
 -5.000000000E-01 -3.000000000E-01 6.841915353E-01
 -5.000000000E-01 -3.500000000E-01 6.867049364E-01
 -5.000000000E-01 -4.000000000E-01 6.893378151E-01
 -5.000000000E-01 -4.500000000E-01 6.920504022E-01
 -5.000000000E-01 -5.000000000E-01 6.947830075E-01
 -5.000000000E-01 -5.500000000E-01 6.974977361E-01
 -5.000000000E-01 -6.000000000E-01 7.001582460E-01
 -5.000000000E-01 -6.500000000E-01 7.027710567E-01
 -5.000000000E-01 -7.000000000E-01 7.053581480E-01
 -5.000000000E-01 -7.500000000E-01 7.079440623E-01
 -5.000000000E-01 -8.000000000E-01 7.105727065E-01
 -5.000000000E-01 -8.500000000E-01 7.133502944E-01
 -5.000000000E-01 -9.000000000E-01 7.165360779E-01
 -5.000000000E-01 -9.500000000E-01 7.207259163E-01
 -4.500000000E-01 -1.000000000E+00 7.205392232E-01
 -4.000000000E-01 -1.000000000E+00 7.164732686E-01
 -3.500000000E-01 -1.000000000E+00 7.139128203E-01
 -3.000000000E-01 -1.000000000E+00 7.122544620E-01
 -2.500000000E-01 -1.000000000E+00 7.113234547E-01
 -2.000000000E-01 -1.000000000E+00 7.111536209E-01
 -1.500000000E-01 -1.000000000E+00 7.116518929E-01
 -1.000000000E-01 -1.000000000E+00 7.128718987E-01
 -5.000000000E-02 -1.000000000E+00 7.148045943E-01
 -9.424683256E-13 -1.000000000E+00 7.174865838E-01
 5.000000000E-02 -1.000000000E+00 7.208128113E-01
 1.000000000E-01 -1.000000000E+00 7.247286310E-01
 1.500000000E-01 -1.000000000E+00 7.289646086E-01
 2.000000000E-01 -1.000000000E+00 7.334718595E-01
 2.500000000E-01 -1.000000000E+00 7.379693175E-01
 3.000000000E-01 -1.000000000E+00 7.421710066E-01
 3.500000000E-01 -1.000000000E+00 7.459315986E-01
 4.000000000E-01 -1.000000000E+00 7.488763175E-01
 4.500000000E-01 -1.000000000E+00 7.508846603E-01
 5.000000000E-01 -1.000000000E+00 7.519252394E-01
 5.500000000E-01 -1.000000000E+00 7.517975477E-01
 6.000000000E-01 -1.000000000E+00 7.507557068E-01
 6.500000000E-01 -1.000000000E+00 7.494253684E-01
 7.000000000E-01 -1.000000000E+00 7.471914743E-01
 7.500000000E-01 -1.000000000E+00 7.445584935E-01
 8.000000000E-01 -1.000000000E+00 7.415005892E-01
 8.500000000E-01 -1.000000000E+00 7.385737146E-01
 9.000000000E-01 -1.000000000E+00 7.354498883E-01
 9.500000000E-01 -1.000000000E+00 7.321892298E-01
 1.000000000E+00 -1.000000000E+00 7.291557928E-01
 1.050000000E+00 -1.000000000E+00 7.263233173E-01
 1.100000000E+00 -1.000000000E+00 7.237555972E-01
 1.150000000E+00 -1.000000000E+00 7.215543229E-01
 1.200000000E+00 -1.000000000E+00 7.194745642E-01
 1.250000000E+00 -1.000000000E+00 7.179586596E-01
 1.300000000E+00 -1.000000000E+00 7.166329040E-01
 1.350000000E+00 -1.000000000E+00 7.155903327E-01
 1.400000000E+00 -1.000000000E+00 7.147866077E-01
 1.450000000E+00 -1.000000000E+00 7.141850877E-01
 1.500000000E+00 -1.000000000E+00 7.138592559E-01
 1.550000000E+00 -1.000000000E+00 7.136189987E-01
 1.600000000E+00 -1.000000000E+00 7.135087303E-01
 1.650000000E+00 -1.000000000E+00 7.134945058E-01
 1.700000000E+00 -1.000000000E+00 7.136062399E-01
 1.750000000E+00 -1.000000000E+00 7.138274404E-01
 1.800000000E+00 -1.000000000E+00 7.142368094E-01
 1.850000000E+00 -1.000000000E+00 7.142777340E-01
 1.900000000E+00 -1.000000000E+00 7.146281378E-01
 1.950000000E+00 -1.000000000E+00 7.150132661E-01
 2.000000000E+00 -1.000000000E+00 7.154145737E-01
 2.050000000E+00 -1.000000000E+00 7.157974101E-01
 2.100000000E+00 -1.000000000E+00 7.162777208E-01
 2.150000000E+00 -1.000000000E+00 7.165232063E-01
 2.200000000E+00 -1.000000000E+00 7.168522368E-01
 2.250000000E+00 -1.000000000E+00 7.173024623E-01
 2.300000000E+00 -1.000000000E+00 7.177154249E-01
 2.350000000E+00 -1.000000000E+00 7.180231508E-01
 2.400000000E+00 -1.000000000E+00 7.183011228E-01
 2.450000000E+00 -1.000000000E+00 7.185600388E-01
 2.500000000E+00 -1.000000000E+00 7.188286488E-01
 2.550000000E+00 -1.000000000E+00 7.190212123E-01
 2.600000000E+00 -1.000000000E+00 7.191773546E-01
 2.650000000E+00 -1.000000000E+00 7.193723321E-01
 2.700000000E+00 -1.000000000E+00 7.194309232E-01
 2.750000000E+00 -1.000000000E+00 7.196523342E-01
 2.800000000E+00 -1.000000000E+00 7.199721468E-01
 2.850000000E+00 -1.000000000E+00 7.201547593E-01
 2.900000000E+00 -1.000000000E+00 7.202545458E-01
 2.950000000E+00 -1.000000000E+00 7.203223612E-01
 3.000000000E+00 -1.000000000E+00 7.204233263E-01
 3.050000000E+00 -1.000000000E+00 7.205001204E-01
 3.100000000E+00 -1.000000000E+00 7.205937573E-01
 3.150000000E+00 -1.000000000E+00 7.206886821E-01
 3.200000000E+00 -1.000000000E+00 7.207578200E-01
 3.250000000E+00 -1.000000000E+00 7.208340459E-01
 3.300000000E+00 -1.000000000E+00 7.211602997E-01
 3.350000000E+00 -1.000000000E+00 7.214967531E-01
 3.400000000E+00 -1.000000000E+00 7.219694400E-01
 3.450000000E+00 -1.000000000E+00 7.234158856E-01
 3.500000000E+00 -9.500000000E-01 7.288888834E-01
 3.500000000E+00 -9.000000000E-01 7.302434722E-01
 3.500000000E+00 -8.500000000E-01 7.311159836E-01
 3.500000000E+00 -8.000000000E-01 7.316004277E-01
 3.500000000E+00 -7.500000000E-01 7.318714440E-01
 3.500000000E+00 -7.000000000E-01 7.320479155E-01
 3.500000000E+00 -6.500000000E-01 7.323212060E-01
 3.500000000E+00 -6.000000000E-01 7.326858722E-01
 3.500000000E+00 -5.500000000E-01 7.330655608E-01
 3.500000000E+00 -5.000000000E-01 7.334357754E-01
 3.500000000E+00 -4.500000000E-01 7.337998120E-01
 3.500000000E+00 -4.000000000E-01 7.341943951E-01
 3.500000000E+00 -3.500000000E-01 7.345939563E-01
 3.500000000E+00 -3.000000000E-01 7.349958315E-01
 3.500000000E+00 -2.500000000E-01 7.353393595E-01
 3.500000000E+00 -2.000000000E-01 7.356045317E-01
 3.500000000E+00 -1.500000000E-01 7.357328323E-01
 3.500000000E+00 -1.000000000E-01 7.357811399E-01
 3.500000000E+00 -5.000000000E-02 7.357862496E-01
 3.500000000E+00 -2.752242878E-12 7.357844400E-01
 3.500000000E+00 5.000000000E-02 7.357588225E-01
 3.500000000E+00 1.000000000E-01 7.356385390E-01
 3.500000000E+00 1.500000000E-01 7.353937073E-01
 3.500000000E+00 2.000000000E-01 7.350266629E-01
 3.500000000E+00 2.500000000E-01 7.346153739E-01
 3.500000000E+00 3.000000000E-01 7.342181521E-01
 3.500000000E+00 3.500000000E-01 7.338474142E-01
 3.500000000E+00 4.000000000E-01 7.334630164E-01
 3.500000000E+00 4.500000000E-01 7.330716109E-01
 3.500000000E+00 5.000000000E-01 7.326366969E-01
 3.500000000E+00 5.500000000E-01 7.322066832E-01
 3.500000000E+00 6.000000000E-01 7.319301025E-01
 3.500000000E+00 6.500000000E-01 7.319586592E-01
 3.500000000E+00 7.000000000E-01 7.322617788E-01
 3.500000000E+00 7.500000000E-01 7.324208898E-01
 3.500000000E+00 8.000000000E-01 7.316636592E-01
 3.500000000E+00 8.500000000E-01 7.293517502E-01
 3.500000000E+00 9.000000000E-01 7.255281576E-01
 3.500000000E+00 9.500000000E-01 7.201705003E-01
 3.450000000E+00 1.000000000E+00 7.018110103E-01
 3.400000000E+00 1.000000000E+00 6.975567371E-01
 3.350000000E+00 1.000000000E+00 6.966837499E-01
 3.300000000E+00 1.000000000E+00 6.964358832E-01
 3.250000000E+00 1.000000000E+00 6.966485425E-01
 3.200000000E+00 1.000000000E+00 6.966968898E-01
 3.150000000E+00 1.000000000E+00 6.970266245E-01
 3.100000000E+00 1.000000000E+00 6.974327954E-01
 3.050000000E+00 1.000000000E+00 6.972928040E-01
 3.000000000E+00 1.000000000E+00 6.975741653E-01
 2.950000000E+00 1.000000000E+00 6.979417915E-01
 2.900000000E+00 1.000000000E+00 6.983336649E-01
 2.850000000E+00 1.000000000E+00 6.986592906E-01
 2.800000000E+00 1.000000000E+00 6.987479652E-01
 2.750000000E+00 1.000000000E+00 6.993791087E-01
 2.700000000E+00 1.000000000E+00 6.996467141E-01
 2.650000000E+00 1.000000000E+00 7.003120834E-01
 2.600000000E+00 1.000000000E+00 7.006628951E-01
 2.550000000E+00 1.000000000E+00 7.011455100E-01
 2.500000000E+00 1.000000000E+00 7.013816757E-01
 2.450000000E+00 1.000000000E+00 7.017889016E-01
 2.400000000E+00 1.000000000E+00 7.020971393E-01
 2.350000000E+00 1.000000000E+00 7.025487285E-01
 2.300000000E+00 1.000000000E+00 7.029748684E-01
 2.250000000E+00 1.000000000E+00 7.033944690E-01
 2.200000000E+00 1.000000000E+00 7.037018573E-01
 2.150000000E+00 1.000000000E+00 7.038500076E-01
 2.100000000E+00 1.000000000E+00 7.045604138E-01
 2.050000000E+00 1.000000000E+00 7.052167744E-01
 2.000000000E+00 1.000000000E+00 7.059870238E-01
 1.950000000E+00 1.000000000E+00 7.065102798E-01
 1.900000000E+00 1.000000000E+00 7.073852607E-01
 1.850000000E+00 1.000000000E+00 7.082742268E-01
 1.800000000E+00 1.000000000E+00 7.090417588E-01
 1.750000000E+00 1.000000000E+00 7.099600897E-01
 1.700000000E+00 1.000000000E+00 7.109648942E-01
 1.650000000E+00 1.000000000E+00 7.120919212E-01
 1.600000000E+00 1.000000000E+00 7.132286757E-01
 1.550000000E+00 1.000000000E+00 7.146195884E-01
 1.500000000E+00 1.000000000E+00 7.163787872E-01
 1.450000000E+00 1.000000000E+00 7.179943061E-01
 1.400000000E+00 1.000000000E+00 7.199991567E-01
 1.350000000E+00 1.000000000E+00 7.221613505E-01
 1.300000000E+00 1.000000000E+00 7.248142920E-01
 1.250000000E+00 1.000000000E+00 7.273960913E-01
 1.200000000E+00 1.000000000E+00 7.306396572E-01
 1.150000000E+00 1.000000000E+00 7.335256589E-01
 1.100000000E+00 1.000000000E+00 7.374010278E-01
 1.050000000E+00 1.000000000E+00 7.415766717E-01
 1.000000000E+00 1.000000000E+00 7.453692020E-01
 9.500000000E-01 1.000000000E+00 7.492847665E-01
 9.000000000E-01 1.000000000E+00 7.531140226E-01
 8.500000000E-01 1.000000000E+00 7.566269180E-01
 8.000000000E-01 1.000000000E+00 7.599401888E-01
 7.500000000E-01 1.000000000E+00 7.624729940E-01
 7.000000000E-01 1.000000000E+00 7.645416663E-01
 6.500000000E-01 1.000000000E+00 7.660746004E-01
 6.000000000E-01 1.000000000E+00 7.661406044E-01
 5.500000000E-01 1.000000000E+00 7.653117821E-01
 5.000000000E-01 1.000000000E+00 7.647882940E-01
 4.500000000E-01 1.000000000E+00 7.614218187E-01
 4.000000000E-01 1.000000000E+00 7.576471318E-01
 3.500000000E-01 1.000000000E+00 7.535609774E-01
 3.000000000E-01 1.000000000E+00 7.486126124E-01
 2.500000000E-01 1.000000000E+00 7.432576817E-01
 2.000000000E-01 1.000000000E+00 7.377382760E-01
 1.500000000E-01 1.000000000E+00 7.324152719E-01
 1.000000000E-01 1.000000000E+00 7.275996338E-01
 5.000000000E-02 1.000000000E+00 7.233323484E-01
 1.733724275E-12 1.000000000E+00 7.197698086E-01
 -5.000000000E-02 1.000000000E+00 7.168505637E-01
 -1.000000000E-01 1.000000000E+00 7.147012705E-01
 -1.500000000E-01 1.000000000E+00 7.132828921E-01
 -2.000000000E-01 1.000000000E+00 7.125699355E-01
 -2.500000000E-01 1.000000000E+00 7.126207986E-01
 -3.000000000E-01 1.000000000E+00 7.134499544E-01
 -3.500000000E-01 1.000000000E+00 7.149642821E-01
 -4.000000000E-01 1.000000000E+00 7.173364140E-01
 -4.500000000E-01 1.000000000E+00 7.210164098E-01
 8.853304542E-01 -9.389461151E-03 5.953721529E-01
 8.096486259E-01 -1.899517142E-02 6.440087606E-01
 7.403801100E-01 -2.985380204E-02 6.909928373E-01
 6.696555546E-01 -4.123393529E-02 7.393326451E-01
 9.798344306E-01 -4.849002933E-03 5.723146552E-01
 6.038738870E-01 -5.228965140E-02 7.919023103E-01
 5.370658646E-01 -6.160653514E-02 8.594416682E-01
 4.799239391E-01 -6.902862312E-02 9.270994251E-01
 4.239183282E-01 -7.455973938E-02 1.138752321E+00
 3.695111323E-01 -7.610185055E-02 1.109436849E+00
 3.122190355E-01 -7.635070269E-02 1.055317414E+00
 2.568682979E-01 -7.296778697E-02 1.003867319E+00
 2.042099130E-01 -6.803799013E-02 9.585103540E-01
 1.462435649E-01 -5.946089166E-02 9.132696842E-01
 1.002058938E-01 -5.230710051E-02 8.704774364E-01
 6.210487597E-02 -4.437662595E-02 8.171927211E-01
 2.551531168E-02 -3.006557023E-02 7.017882565E-01