TITLE     = "Visualization of the solution"
VARIABLES = "x"
"y"
"Mach"
ZONE T="Zone"
 STRANDID=0, SOLUTIONTIME=0
 Nodes=11886, Elements=23189, ZONETYPE=FEQuadrilateral
 DATAPACKING=POINT
 DT=(DOUBLE DOUBLE DOUBLE )
 1.000164628E+00 5.192392273E-04 5.431855824E-01
 9.860164523E-01 3.177345730E-03 6.622380204E-01
 9.726143479E-01 5.604153965E-03 6.816287127E-01
 9.572784901E-01 8.474323899E-03 7.081051593E-01
 9.430971742E-01 1.105312444E-02 7.221469997E-01
 9.303588867E-01 1.342356205E-02 7.433578859E-01
 9.188261032E-01 1.549592428E-02 7.558313872E-01
 9.064351320E-01 1.767042652E-02 7.658668591E-01
 8.947563767E-01 1.973171346E-02 7.847651284E-01
 8.825027347E-01 2.177770436E-02 7.931422823E-01
 8.703048825E-01 2.375456318E-02 8.001792776E-01
 8.585749865E-01 2.566185407E-02 8.183544073E-01
 8.463078737E-01 2.748095803E-02 8.134116641E-01
 8.350349069E-01 2.918431349E-02 8.233104480E-01
 8.236421943E-01 3.087326139E-02 8.328427541E-01
 8.114619851E-01 3.262636065E-02 8.412695390E-01
 7.986691594E-01 3.437941149E-02 8.413122930E-01
 7.866842151E-01 3.603360429E-02 8.514210203E-01
 7.742156386E-01 3.771054372E-02 8.599770789E-01
 7.620562315E-01 3.928589821E-02 8.633557376E-01
 7.489020228E-01 4.096960649E-02 8.715006361E-01
 7.354345322E-01 4.265381396E-02 8.799607382E-01
 7.243707776E-01 4.400020093E-02 8.874544622E-01
 7.127477527E-01 4.538791999E-02 8.966252901E-01
 7.009019256E-01 4.673843458E-02 8.998291010E-01
 6.876153350E-01 4.823748767E-02 9.125277186E-01
 6.745783091E-01 4.963904247E-02 9.199179300E-01
 6.635065675E-01 5.077617988E-02 9.242065804E-01
 6.517331004E-01 5.197636411E-02 9.388530061E-01
 6.405141354E-01 5.304858088E-02 9.449736092E-01
 6.285814047E-01 5.413778499E-02 9.525326914E-01
 6.169680357E-01 5.514578149E-02 9.587770163E-01
 6.062380075E-01 5.602925271E-02 9.654847649E-01
 5.943844914E-01 5.696628988E-02 9.815864787E-01
 5.826389790E-01 5.783178285E-02 9.903392188E-01
 5.690760016E-01 5.872318521E-02 9.929131986E-01
 5.562982559E-01 5.950194225E-02 1.001259240E+00
 5.434648991E-01 6.019434705E-02 1.013659308E+00
 5.320101976E-01 6.076359749E-02 1.028778049E+00
 5.199487209E-01 6.128724292E-02 1.024513346E+00
 5.072156191E-01 6.173435971E-02 1.017935433E+00
 4.962826371E-01 6.208186224E-02 1.021500344E+00
 4.831608832E-01 6.242235005E-02 1.021144422E+00
 4.703237116E-01 6.266900152E-02 1.021760351E+00
 4.566684067E-01 6.286897510E-02 1.025664621E+00
 4.431679547E-01 6.297108531E-02 1.020248866E+00
 4.302738607E-01 6.298357248E-02 1.008571062E+00
 4.170801044E-01 6.290575862E-02 9.977483611E-01
 4.047359526E-01 6.278261542E-02 9.959648505E-01
 3.920477331E-01 6.259287149E-02 9.945860070E-01
 3.798921704E-01 6.234149635E-02 9.894024408E-01
 3.682390451E-01 6.203105673E-02 9.813404729E-01
 3.551502228E-01 6.162626296E-02 9.766824129E-01
 3.428808749E-01 6.117292121E-02 9.703007669E-01
 3.306259811E-01 6.067064032E-02 9.697035100E-01
 3.202237785E-01 6.018736586E-02 9.626331406E-01
 3.080015481E-01 5.954879522E-02 9.557412867E-01
 2.952856421E-01 5.884027481E-02 9.533600676E-01
 2.814809084E-01 5.796176568E-02 9.431359824E-01
 2.690542638E-01 5.711751431E-02 9.395661091E-01
 2.573737204E-01 5.626221746E-02 9.348640659E-01
 2.448413372E-01 5.527122319E-02 9.287284112E-01
 2.321053445E-01 5.419205874E-02 9.235779716E-01
 2.196452916E-01 5.306031927E-02 9.183383615E-01
 2.077364773E-01 5.190350860E-02 9.120328866E-01
 1.957489401E-01 5.066563934E-02 9.057440494E-01
 1.833271831E-01 4.930556938E-02 9.005503601E-01
 1.714842618E-01 4.792869091E-02 8.951036472E-01
 1.594416797E-01 4.643645510E-02 8.874433503E-01
 1.475834548E-01 4.488519579E-02 8.820886777E-01
 1.364736110E-01 4.334809631E-02 8.770996824E-01
 1.250606924E-01 4.166564345E-02 8.695197894E-01
 1.137422472E-01 3.989847377E-02 8.630808383E-01
 1.029688492E-01 3.811005130E-02 8.570156787E-01
 9.301610291E-02 3.635257110E-02 8.493428566E-01
 8.215738088E-02 3.431523591E-02 8.423389849E-01
 7.100967318E-02 3.205852956E-02 8.319785575E-01
 6.145476550E-02 2.996646427E-02 8.233179916E-01
 5.223973840E-02 2.778973989E-02 8.153006003E-01
 4.361617565E-02 2.556686848E-02 8.064638793E-01
 3.610827401E-02 2.345040999E-02 7.951030805E-01
 2.953666449E-02 2.140766010E-02 7.833259847E-01
 2.401814796E-02 1.952840947E-02 7.725082609E-01
 1.996276155E-02 1.800475083E-02 7.589567477E-01
 1.613995805E-02 1.643270627E-02 7.443703334E-01
 1.324251294E-02 1.512586325E-02 7.281646320E-01
 1.068719011E-02 1.386192348E-02 7.120513321E-01
 8.798211813E-03 1.284061093E-02 6.963094168E-01
 7.077523507E-03 1.181914937E-02 6.794161503E-01
 5.465804599E-03 1.077545714E-02 6.498866319E-01
 3.370380960E-03 9.207643569E-03 6.027302976E-01
 1.644792268E-03 7.648654282E-03 5.546471914E-01
 2.250841644E-04 6.035479251E-03 4.692784932E-01
 -1.108586905E-03 3.852616996E-03 3.481727672E-01
 -1.722090994E-03 2.124191960E-03 2.281356107E-01
 -1.947901677E-03 7.088999264E-04 1.180982774E-01
 -1.911306870E-03 -9.942393517E-04 5.419681067E-04
 -1.478104619E-03 -2.965388587E-03 1.236763713E-01
 -4.981912789E-04 -5.211678799E-03 2.416346171E-01
 1.022979501E-03 -7.553192321E-03 3.451419129E-01
 3.130317200E-03 -9.989663027E-03 4.324657946E-01
 5.082573742E-03 -1.184786111E-02 4.931141827E-01
 7.342354860E-03 -1.370902825E-02 5.392080709E-01
 9.095396847E-03 -1.500282530E-02 5.739414770E-01
 1.121107861E-02 -1.643465273E-02 6.015655329E-01
 1.366640441E-02 -1.796155609E-02 6.326449930E-01
 1.693504862E-02 -1.980861090E-02 6.643083384E-01
 2.011252567E-02 -2.144951001E-02 6.935078959E-01
 2.406536415E-02 -2.331369743E-02 7.178826271E-01
 2.931992337E-02 -2.556871250E-02 7.436195848E-01
 3.488684818E-02 -2.772700414E-02 7.669337008E-01
 4.159129038E-02 -3.008129261E-02 7.868651972E-01
 4.904525355E-02 -3.245492652E-02 8.049172160E-01
 5.759967119E-02 -3.492138535E-02 8.207238053E-01
 6.630863249E-02 -3.721969947E-02 8.344342120E-01
 7.648479193E-02 -3.967117518E-02 8.487984245E-01
 8.620068431E-02 -4.182530195E-02 8.575260889E-01
 9.672985971E-02 -4.397808388E-02 8.693720117E-01
 1.078583151E-01 -4.608942196E-02 8.783912440E-01
 1.194245592E-01 -4.811901972E-02 8.863342788E-01
 1.310992539E-01 -5.002997816E-02 8.951971531E-01
 1.418745667E-01 -5.167904496E-02 9.049513637E-01
 1.531517506E-01 -5.328894034E-02 9.117003945E-01
 1.651270092E-01 -5.488777161E-02 9.200853636E-01
 1.768672019E-01 -5.635163188E-02 9.295062705E-01
 1.887241304E-01 -5.772140250E-02 9.368598968E-01
 1.993286312E-01 -5.886356160E-02 9.444328867E-01
 2.108828872E-01 -6.002774462E-02 9.541438857E-01
 2.230173349E-01 -6.114295870E-02 9.616860523E-01
 2.352074236E-01 -6.217585877E-02 9.733555207E-01
 2.471027970E-01 -6.307962537E-02 9.832811855E-01
 2.593994737E-01 -6.390883029E-02 9.893632795E-01
 2.707823813E-01 -6.460405141E-02 1.004355076E+00
 2.831672430E-01 -6.523557752E-02 1.015023858E+00
 2.952819765E-01 -6.575524062E-02 1.024782751E+00
 3.080285788E-01 -6.618721038E-02 1.037721312E+00
 3.197625279E-01 -6.646644324E-02 1.050699374E+00
 3.321752250E-01 -6.664771587E-02 1.055880657E+00
 3.427115679E-01 -6.671682745E-02 1.069225662E+00
 3.540521860E-01 -6.667359173E-02 1.076895565E+00
 3.651316762E-01 -6.653857231E-02 1.082193614E+00
 3.761165738E-01 -6.630558521E-02 1.095147274E+00
 3.878575563E-01 -6.592004746E-02 1.107452838E+00
 4.004569054E-01 -6.539956480E-02 1.087730192E+00
 4.127137363E-01 -6.475568563E-02 1.003041054E+00
 4.253177047E-01 -6.394288689E-02 9.680483112E-01
 4.374859035E-01 -6.304646283E-02 9.728519819E-01
 4.501091242E-01 -6.199994683E-02 9.634967879E-01
 4.622946084E-01 -6.087247655E-02 9.463734304E-01
 4.747574329E-01 -5.960544944E-02 9.285737671E-01
 4.868232310E-01 -5.827884004E-02 9.117773703E-01
 4.989371300E-01 -5.684837699E-02 8.919033884E-01
 5.121996999E-01 -5.522989482E-02 8.795046012E-01
 5.251433253E-01 -5.353340507E-02 8.595781168E-01
 5.378565192E-01 -5.182496458E-02 8.447948338E-01
 5.511594415E-01 -5.000069737E-02 8.337531136E-01
 5.641305447E-01 -4.814466462E-02 8.188661526E-01
 5.770826340E-01 -4.625046626E-02 8.054354552E-01
 5.899828672E-01 -4.431709647E-02 7.897650087E-01
 6.030687094E-01 -4.238342866E-02 7.822398020E-01
 6.164374948E-01 -4.036771506E-02 7.719182890E-01
 6.303631663E-01 -3.822337091E-02 7.578640865E-01
 6.440098882E-01 -3.612893820E-02 7.475440609E-01
 6.573538780E-01 -3.409975022E-02 7.407076854E-01
 6.707044244E-01 -3.201755881E-02 7.267521613E-01
 6.834371686E-01 -3.008973226E-02 7.214366426E-01
 6.958547831E-01 -2.818636224E-02 7.113393704E-01
 7.106378078E-01 -2.594511956E-02 7.023319786E-01
 7.236914039E-01 -2.398200147E-02 6.940204230E-01
 7.352280021E-01 -2.225800976E-02 6.852610849E-01
 7.485632300E-01 -2.031913213E-02 6.795682966E-01
 7.615162730E-01 -1.845100336E-02 6.731437606E-01
 7.745808959E-01 -1.654225588E-02 6.613553717E-01
 7.867571115E-01 -1.481870748E-02 6.529719276E-01
 7.995035648E-01 -1.308427192E-02 6.464353793E-01
 8.107568026E-01 -1.158493198E-02 6.385367804E-01
 8.224003911E-01 -1.011906471E-02 6.355836182E-01
 8.344445825E-01 -8.580130525E-03 6.240274376E-01
 8.469244242E-01 -7.112620398E-03 6.183375010E-01
 8.592128158E-01 -5.746095907E-03 6.117780330E-01
 8.701330423E-01 -4.584920593E-03 6.028331541E-01
 8.818035126E-01 -3.487499896E-03 5.995809325E-01
 8.946145177E-01 -2.379936399E-03 5.929894650E-01
 9.049096107E-01 -1.602701494E-03 5.886004859E-01
 9.159988761E-01 -8.990750066E-04 5.863773991E-01
 9.265595078E-01 -3.360736882E-04 5.836768270E-01
 9.367538095E-01 9.306333232E-05 5.827586033E-01
 9.495092630E-01 4.852223210E-04 5.818959319E-01
 9.636545181E-01 7.288491470E-04 5.812161910E-01
 9.773980379E-01 7.911595749E-04 5.784360773E-01
 9.897548556E-01 6.982130581E-04 5.679874883E-01
 -5.000000000E-01 -1.000000000E+00 7.238353354E-01
 3.500000000E+00 -1.000000000E+00 7.273148792E-01
 3.500000000E+00 1.000000000E+00 7.135144579E-01
 -5.000000000E-01 1.000000000E+00 7.241643237E-01
 9.930905402E-01 1.848292479E-03 6.283845982E-01
 9.793154001E-01 4.390749848E-03 6.721328906E-01
 9.649464190E-01 7.039238932E-03 6.955400453E-01
 9.501878321E-01 9.763724171E-03 7.154065454E-01
 9.367280304E-01 1.223834325E-02 7.330096155E-01
 9.245924950E-01 1.445974316E-02 7.503047523E-01
 9.126306176E-01 1.658317540E-02 7.600035670E-01
 9.005957544E-01 1.870106999E-02 7.760802046E-01
 8.886295557E-01 2.075470891E-02 7.895980718E-01
 8.764038086E-01 2.276613377E-02 7.953925402E-01
 8.644399345E-01 2.470820863E-02 8.115191748E-01
 8.524414301E-01 2.657140605E-02 8.150710591E-01
 8.406713903E-01 2.833263576E-02 8.180486181E-01
 8.293385506E-01 3.002878744E-02 8.279724276E-01
 8.175520897E-01 3.174981102E-02 8.382479917E-01
 8.050655723E-01 3.350288607E-02 8.404609300E-01
 7.926766872E-01 3.520650789E-02 8.460740721E-01
 7.804499269E-01 3.687207401E-02 8.563440690E-01
 7.681359351E-01 3.849822097E-02 8.614085873E-01
 7.554791272E-01 4.012775235E-02 8.671670671E-01
 7.421682775E-01 4.181171022E-02 8.759009493E-01
 7.299026549E-01 4.332700744E-02 8.833192701E-01
 7.185592651E-01 4.469406046E-02 8.929862808E-01
 7.068248391E-01 4.606317729E-02 8.973260835E-01
 6.942586303E-01 4.748796113E-02 9.061351434E-01
 6.810968220E-01 4.893826507E-02 9.171241691E-01
 6.690424383E-01 5.020761117E-02 9.207575556E-01
 6.576198339E-01 5.137627199E-02 9.321796158E-01
 6.461236179E-01 5.251247250E-02 9.421150868E-01
 6.345477700E-01 5.359318294E-02 9.486842190E-01
 6.227747202E-01 5.464178324E-02 9.559419912E-01
 6.116030216E-01 5.558751710E-02 9.611742378E-01
 6.003112495E-01 5.649777129E-02 9.731420304E-01
 5.885117352E-01 5.739903636E-02 9.880798411E-01
 5.758574903E-01 5.827748403E-02 9.905154610E-01
 5.626871288E-01 5.911256373E-02 9.973406816E-01
 5.498815775E-01 5.984814465E-02 1.005660401E+00
 5.377375484E-01 6.047897227E-02 1.023145715E+00
 5.259794593E-01 6.102542020E-02 1.029352013E+00
 5.135821700E-01 6.151080132E-02 1.018783059E+00
 5.017491281E-01 6.190811098E-02 1.020369866E+00
 4.897217602E-01 6.225210615E-02 1.021752634E+00
 4.767422974E-01 6.254567578E-02 1.020295498E+00
 4.634960592E-01 6.276898831E-02 1.024847389E+00
 4.499181807E-01 6.292003021E-02 1.023640351E+00
 4.367209077E-01 6.297732890E-02 1.015373428E+00
 4.236769825E-01 6.294466555E-02 1.001565414E+00
 4.109080285E-01 6.284418702E-02 9.966236115E-01
 3.983918428E-01 6.268774346E-02 9.954552230E-01
 3.859699517E-01 6.246718392E-02 9.926964478E-01
 3.740656078E-01 6.218627654E-02 9.848377154E-01
 3.616946340E-01 6.182865985E-02 9.793358855E-01
 3.490155488E-01 6.139959209E-02 9.727386483E-01
 3.367534280E-01 6.092178077E-02 9.699969993E-01
 3.254248798E-01 6.042900309E-02 9.673812516E-01
 3.141126633E-01 5.986808054E-02 9.576980885E-01
 3.016435951E-01 5.919453502E-02 9.561103183E-01
 2.883832753E-01 5.840102024E-02 9.474404917E-01
 2.752675861E-01 5.753963999E-02 9.410675101E-01
 2.632139921E-01 5.668986589E-02 9.377306752E-01
 2.511075288E-01 5.576672032E-02 9.316486188E-01
 2.384733409E-01 5.473164096E-02 9.261341520E-01
 2.258753181E-01 5.362618901E-02 9.209912429E-01
 2.136908844E-01 5.248191394E-02 9.153006551E-01
 2.017427087E-01 5.128457397E-02 9.089399943E-01
 1.895380616E-01 4.998560436E-02 9.028747689E-01
 1.774057224E-01 4.861713015E-02 8.982338841E-01
 1.654629707E-01 4.718257301E-02 8.912014198E-01
 1.535125673E-01 4.566082545E-02 8.843885962E-01
 1.420285329E-01 4.411664605E-02 8.801890997E-01
 1.307671517E-01 4.250686988E-02 8.731984404E-01
 1.194014698E-01 4.078205861E-02 8.662425356E-01
 1.083555482E-01 3.900426254E-02 8.598968610E-01
 9.799247608E-02 3.723131120E-02 8.535769895E-01
 8.758674189E-02 3.533390351E-02 8.459502399E-01
 7.658352703E-02 3.318688273E-02 8.382594945E-01
 7.139671221E-02 -3.844543733E-02 8.431280040E-01
 9.146527201E-02 -4.290169291E-02 8.654306178E-01
 1.022940874E-01 -4.503375292E-02 8.734028446E-01
 1.136414371E-01 -4.710422084E-02 8.826173755E-01
 1.252619065E-01 -4.907449894E-02 8.905419045E-01
 1.364869103E-01 -5.085451156E-02 9.004222977E-01
 1.475131586E-01 -5.248399265E-02 9.084804210E-01
 1.591393799E-01 -5.408835597E-02 9.154969680E-01
 1.709971055E-01 -5.561970174E-02 9.249570864E-01
 1.827956662E-01 -5.703651719E-02 9.333403457E-01
 1.940263808E-01 -5.829248205E-02 9.407766695E-01
 2.051057592E-01 -5.944565311E-02 9.488817710E-01
 2.169501111E-01 -6.058535166E-02 9.581561523E-01
 2.291123793E-01 -6.165940873E-02 9.668135434E-01
 2.411551103E-01 -6.262774207E-02 9.791686625E-01
 2.532511353E-01 -6.349422783E-02 9.862069199E-01
 2.650909275E-01 -6.425644085E-02 9.958026067E-01
 2.769748122E-01 -6.491981447E-02 1.010710802E+00
 2.892246097E-01 -6.549540907E-02 1.019566085E+00
 3.016552776E-01 -6.597122550E-02 1.030437153E+00
 3.138955534E-01 -6.632682681E-02 1.045486415E+00
 3.259688765E-01 -6.655707955E-02 1.053271379E+00
 3.374433964E-01 -6.668227166E-02 1.061760681E+00
 3.483818769E-01 -6.669520959E-02 1.074289135E+00
 3.595919311E-01 -6.660608202E-02 1.079119697E+00
 3.706241250E-01 -6.642207876E-02 1.087256837E+00
 3.819870651E-01 -6.611281633E-02 1.102940635E+00
 3.941572309E-01 -6.565980613E-02 1.105012931E+00
 4.065853208E-01 -6.507762522E-02 1.048596644E+00
 4.190157205E-01 -6.434928626E-02 9.754554398E-01
 4.314018041E-01 -6.349467486E-02 9.708448055E-01
 4.437975138E-01 -6.252320483E-02 9.699964464E-01
 4.562018663E-01 -6.143621169E-02 9.552966662E-01
 4.685260206E-01 -6.023896299E-02 9.373280907E-01
 4.807903320E-01 -5.894214474E-02 9.202585045E-01
 4.928801805E-01 -5.756360851E-02 9.020839415E-01
 5.055684149E-01 -5.603913590E-02 8.849079725E-01
 5.186715126E-01 -5.438164994E-02 8.704133521E-01
 5.314999223E-01 -5.267918482E-02 8.513448392E-01
 5.445079803E-01 -5.091283098E-02 8.392279810E-01
 5.576449931E-01 -4.907268099E-02 8.266507661E-01
 5.706065893E-01 -4.719756544E-02 8.120305187E-01
 5.835327506E-01 -4.528378136E-02 7.975910757E-01
 5.965257883E-01 -4.335026257E-02 7.852481988E-01
 6.097531021E-01 -4.137557186E-02 7.776345598E-01
 6.234003305E-01 -3.929554299E-02 7.649879344E-01
 6.371865273E-01 -3.717615455E-02 7.523574578E-01
 6.506818831E-01 -3.511434421E-02 7.440136395E-01
 6.640291512E-01 -3.305865452E-02 7.341348033E-01
 6.770707965E-01 -3.105364554E-02 7.234663054E-01
 6.896459758E-01 -2.913804725E-02 7.167972136E-01
 7.032462955E-01 -2.706574090E-02 7.067330396E-01
 7.171646059E-01 -2.496356051E-02 6.981944407E-01
 7.294597030E-01 -2.312000562E-02 6.895175334E-01
 7.418956161E-01 -2.128857095E-02 6.822293187E-01
 7.550397515E-01 -1.938506775E-02 6.766242103E-01
 7.680485845E-01 -1.749662962E-02 6.675307500E-01
 7.806690037E-01 -1.568048168E-02 6.568133912E-01
 7.931303382E-01 -1.395148970E-02 6.497090368E-01
 8.051301837E-01 -1.233460195E-02 6.423137411E-01
 8.165785968E-01 -1.085199835E-02 6.370705687E-01
 8.284224868E-01 -9.349597618E-03 6.302017492E-01
 8.406845033E-01 -7.846375462E-03 6.208743084E-01
 8.530686200E-01 -6.429358153E-03 6.152443963E-01
 8.646729290E-01 -5.165508250E-03 6.070005249E-01
 8.759682775E-01 -4.036210245E-03 6.011163676E-01
 8.882090151E-01 -2.933718148E-03 5.966267790E-01
 8.997620642E-01 -1.991318946E-03 5.901192353E-01
 9.104542434E-01 -1.250888250E-03 5.875453094E-01
 9.212791920E-01 -6.175743474E-04 5.848636868E-01
 9.316566586E-01 -1.215051780E-04 5.828377840E-01
 9.431315362E-01 2.891428267E-04 5.825485407E-01
 9.565818906E-01 6.070357340E-04 5.818059524E-01
 9.705262780E-01 7.600043609E-04 5.801080836E-01
 9.835764468E-01 7.446863165E-04 5.736592672E-01
 9.949597418E-01 6.087261427E-04 5.641985737E-01
 -5.000000000E-01 9.500000000E-01 7.218288561E-01
 -5.000000000E-01 9.000000000E-01 7.181718395E-01
 -5.000000000E-01 8.500000000E-01 7.153843134E-01
 -5.000000000E-01 8.000000000E-01 7.129074552E-01
 -5.000000000E-01 7.500000000E-01 7.105495522E-01
 -5.000000000E-01 7.000000000E-01 7.082320915E-01
 -5.000000000E-01 6.500000000E-01 7.058809037E-01
 -5.000000000E-01 6.000000000E-01 7.034905362E-01
 -5.000000000E-01 5.500000000E-01 7.010337408E-01
 -5.000000000E-01 5.000000000E-01 6.985086085E-01
 -5.000000000E-01 4.500000000E-01 6.959529855E-01
 -5.000000000E-01 4.000000000E-01 6.933893532E-01
 -5.000000000E-01 3.500000000E-01 6.908491477E-01
 -5.000000000E-01 3.000000000E-01 6.883943702E-01
 -5.000000000E-01 2.500000000E-01 6.861354127E-01
 -5.000000000E-01 2.000000000E-01 6.841178525E-01
 -5.000000000E-01 1.500000000E-01 6.823980389E-01
 -5.000000000E-01 1.000000000E-01 6.810807193E-01
 -5.000000000E-01 5.000000000E-02 6.802296607E-01
 -5.000000000E-01 2.752242878E-12 6.798590047E-01
 -5.000000000E-01 -5.000000000E-02 6.800220297E-01
 -5.000000000E-01 -1.000000000E-01 6.806621098E-01
 -5.000000000E-01 -1.500000000E-01 6.817918497E-01
 -5.000000000E-01 -2.000000000E-01 6.833231613E-01
 -5.000000000E-01 -2.500000000E-01 6.852119820E-01
 -5.000000000E-01 -3.000000000E-01 6.873749448E-01
 -5.000000000E-01 -3.500000000E-01 6.897253066E-01
 -5.000000000E-01 -4.000000000E-01 6.921855944E-01
 -5.000000000E-01 -4.500000000E-01 6.947224390E-01
 -5.000000000E-01 -5.000000000E-01 6.972308426E-01
 -5.000000000E-01 -5.500000000E-01 6.997709760E-01
 -5.000000000E-01 -6.000000000E-01 7.022722134E-01
 -5.000000000E-01 -6.500000000E-01 7.046909853E-01
 -5.000000000E-01 -7.000000000E-01 7.071008992E-01
 -5.000000000E-01 -7.500000000E-01 7.094953063E-01
 -5.000000000E-01 -8.000000000E-01 7.119343609E-01
 -5.000000000E-01 -8.500000000E-01 7.145284046E-01
 -5.000000000E-01 -9.000000000E-01 7.174808699E-01
 -5.000000000E-01 -9.500000000E-01 7.213490139E-01
 -4.500000000E-01 -1.000000000E+00 7.211858992E-01
 -4.000000000E-01 -1.000000000E+00 7.174304632E-01
 -3.500000000E-01 -1.000000000E+00 7.150019865E-01
 -3.000000000E-01 -1.000000000E+00 7.134951689E-01
 -2.500000000E-01 -1.000000000E+00 7.126674786E-01
 -2.000000000E-01 -1.000000000E+00 7.124635953E-01
 -1.500000000E-01 -1.000000000E+00 7.129000564E-01
 -1.000000000E-01 -1.000000000E+00 7.139968793E-01
 -5.000000000E-02 -1.000000000E+00 7.158170019E-01
 -9.424683256E-13 -1.000000000E+00 7.182294801E-01
 5.000000000E-02 -1.000000000E+00 7.212246302E-01
 1.000000000E-01 -1.000000000E+00 7.247248334E-01
 1.500000000E-01 -1.000000000E+00 7.286612646E-01
 2.000000000E-01 -1.000000000E+00 7.329781647E-01
 2.500000000E-01 -1.000000000E+00 7.371225586E-01
 3.000000000E-01 -1.000000000E+00 7.408997840E-01
 3.500000000E-01 -1.000000000E+00 7.442272317E-01
 4.000000000E-01 -1.000000000E+00 7.467476337E-01
 4.500000000E-01 -1.000000000E+00 7.483641894E-01
 5.000000000E-01 -1.000000000E+00 7.491992348E-01
 5.500000000E-01 -1.000000000E+00 7.492842160E-01
 6.000000000E-01 -1.000000000E+00 7.484848324E-01
 6.500000000E-01 -1.000000000E+00 7.469409399E-01
 7.000000000E-01 -1.000000000E+00 7.448656929E-01
 7.500000000E-01 -1.000000000E+00 7.422769964E-01
 8.000000000E-01 -1.000000000E+00 7.396353936E-01
 8.500000000E-01 -1.000000000E+00 7.367570758E-01
 9.000000000E-01 -1.000000000E+00 7.337822228E-01
 9.500000000E-01 -1.000000000E+00 7.308511314E-01
 1.000000000E+00 -1.000000000E+00 7.280719136E-01
 1.050000000E+00 -1.000000000E+00 7.254876563E-01
 1.100000000E+00 -1.000000000E+00 7.231502638E-01
 1.150000000E+00 -1.000000000E+00 7.210789296E-01
 1.200000000E+00 -1.000000000E+00 7.193321453E-01
 1.250000000E+00 -1.000000000E+00 7.179514531E-01
 1.300000000E+00 -1.000000000E+00 7.166366744E-01
 1.350000000E+00 -1.000000000E+00 7.157814368E-01
 1.400000000E+00 -1.000000000E+00 7.152274858E-01
 1.450000000E+00 -1.000000000E+00 7.149094346E-01
 1.500000000E+00 -1.000000000E+00 7.146006864E-01
 1.550000000E+00 -1.000000000E+00 7.144258636E-01
 1.600000000E+00 -1.000000000E+00 7.144055417E-01
 1.650000000E+00 -1.000000000E+00 7.145637112E-01
 1.700000000E+00 -1.000000000E+00 7.145128781E-01
 1.750000000E+00 -1.000000000E+00 7.148567076E-01
 1.800000000E+00 -1.000000000E+00 7.152465005E-01
 1.850000000E+00 -1.000000000E+00 7.155628500E-01
 1.900000000E+00 -1.000000000E+00 7.159080700E-01
 1.950000000E+00 -1.000000000E+00 7.162545817E-01
 2.000000000E+00 -1.000000000E+00 7.164935946E-01
 2.050000000E+00 -1.000000000E+00 7.169543338E-01
 2.100000000E+00 -1.000000000E+00 7.173852843E-01
 2.150000000E+00 -1.000000000E+00 7.176301283E-01
 2.200000000E+00 -1.000000000E+00 7.178969630E-01
 2.250000000E+00 -1.000000000E+00 7.183627420E-01
 2.300000000E+00 -1.000000000E+00 7.186461936E-01
 2.350000000E+00 -1.000000000E+00 7.189431040E-01
 2.400000000E+00 -1.000000000E+00 7.193179431E-01
 2.450000000E+00 -1.000000000E+00 7.196869587E-01
 2.500000000E+00 -1.000000000E+00 7.199251411E-01
 2.550000000E+00 -1.000000000E+00 7.202136626E-01
 2.600000000E+00 -1.000000000E+00 7.204218773E-01
 2.650000000E+00 -1.000000000E+00 7.206766712E-01
 2.700000000E+00 -1.000000000E+00 7.209200148E-01
 2.750000000E+00 -1.000000000E+00 7.210521203E-01
 2.800000000E+00 -1.000000000E+00 7.212283572E-01
 2.850000000E+00 -1.000000000E+00 7.213052912E-01
 2.900000000E+00 -1.000000000E+00 7.213903179E-01
 2.950000000E+00 -1.000000000E+00 7.214908234E-01
 3.000000000E+00 -1.000000000E+00 7.216949923E-01
 3.050000000E+00 -1.000000000E+00 7.216630353E-01
 3.100000000E+00 -1.000000000E+00 7.218458952E-01
 3.150000000E+00 -1.000000000E+00 7.220694658E-01
 3.200000000E+00 -1.000000000E+00 7.221979498E-01
 3.250000000E+00 -1.000000000E+00 7.223180462E-01
 3.300000000E+00 -1.000000000E+00 7.224720593E-01
 3.350000000E+00 -1.000000000E+00 7.227880684E-01
 3.400000000E+00 -1.000000000E+00 7.232588052E-01
 3.450000000E+00 -1.000000000E+00 7.245375013E-01
 3.500000000E+00 -9.500000000E-01 7.291250081E-01
 3.500000000E+00 -9.000000000E-01 7.301934027E-01
 3.500000000E+00 -8.500000000E-01 7.309180256E-01
 3.500000000E+00 -8.000000000E-01 7.313516085E-01
 3.500000000E+00 -7.500000000E-01 7.316065271E-01
 3.500000000E+00 -7.000000000E-01 7.318350338E-01
 3.500000000E+00 -6.500000000E-01 7.320957146E-01
 3.500000000E+00 -6.000000000E-01 7.324138549E-01
 3.500000000E+00 -5.500000000E-01 7.327623650E-01
 3.500000000E+00 -5.000000000E-01 7.331222467E-01
 3.500000000E+00 -4.500000000E-01 7.334600092E-01
 3.500000000E+00 -4.000000000E-01 7.338066352E-01
 3.500000000E+00 -3.500000000E-01 7.341574194E-01
 3.500000000E+00 -3.000000000E-01 7.345229949E-01
 3.500000000E+00 -2.500000000E-01 7.348348033E-01
 3.500000000E+00 -2.000000000E-01 7.350695622E-01
 3.500000000E+00 -1.500000000E-01 7.352354283E-01
 3.500000000E+00 -1.000000000E-01 7.353049359E-01
 3.500000000E+00 -5.000000000E-02 7.353044639E-01
 3.500000000E+00 -2.752242878E-12 7.352784630E-01
 3.500000000E+00 5.000000000E-02 7.352225743E-01
 3.500000000E+00 1.000000000E-01 7.350887319E-01
 3.500000000E+00 1.500000000E-01 7.348590129E-01
 3.500000000E+00 2.000000000E-01 7.345399609E-01
 3.500000000E+00 2.500000000E-01 7.341788220E-01
 3.500000000E+00 3.000000000E-01 7.338336330E-01
 3.500000000E+00 3.500000000E-01 7.334891956E-01
 3.500000000E+00 4.000000000E-01 7.331504403E-01
 3.500000000E+00 4.500000000E-01 7.327787564E-01
 3.500000000E+00 5.000000000E-01 7.323668666E-01
 3.500000000E+00 5.500000000E-01 7.319553000E-01
 3.500000000E+00 6.000000000E-01 7.317020622E-01
 3.500000000E+00 6.500000000E-01 7.317418583E-01
 3.500000000E+00 7.000000000E-01 7.319700338E-01
 3.500000000E+00 7.500000000E-01 7.320084117E-01
 3.500000000E+00 8.000000000E-01 7.314024826E-01
 3.500000000E+00 8.500000000E-01 7.293348539E-01
 3.500000000E+00 9.000000000E-01 7.257545018E-01
 3.500000000E+00 9.500000000E-01 7.207982389E-01
 3.450000000E+00 1.000000000E+00 7.029373286E-01
 3.400000000E+00 1.000000000E+00 6.997993293E-01
 3.350000000E+00 1.000000000E+00 6.992786030E-01
 3.300000000E+00 1.000000000E+00 6.983551270E-01
 3.250000000E+00 1.000000000E+00 6.983194611E-01
 3.200000000E+00 1.000000000E+00 6.985239959E-01
 3.150000000E+00 1.000000000E+00 6.986445749E-01
 3.100000000E+00 1.000000000E+00 6.990472552E-01
 3.050000000E+00 1.000000000E+00 6.994892876E-01
 3.000000000E+00 1.000000000E+00 6.998636181E-01
 2.950000000E+00 1.000000000E+00 7.002147180E-01
 2.900000000E+00 1.000000000E+00 7.003722597E-01
 2.850000000E+00 1.000000000E+00 7.006064209E-01
 2.800000000E+00 1.000000000E+00 7.008319327E-01
 2.750000000E+00 1.000000000E+00 7.010888240E-01
 2.700000000E+00 1.000000000E+00 7.014067355E-01
 2.650000000E+00 1.000000000E+00 7.019383188E-01
 2.600000000E+00 1.000000000E+00 7.024967370E-01
 2.550000000E+00 1.000000000E+00 7.026671920E-01
 2.500000000E+00 1.000000000E+00 7.026860677E-01
 2.450000000E+00 1.000000000E+00 7.028145806E-01
 2.400000000E+00 1.000000000E+00 7.032282999E-01
 2.350000000E+00 1.000000000E+00 7.038402455E-01
 2.300000000E+00 1.000000000E+00 7.045188823E-01
 2.250000000E+00 1.000000000E+00 7.048069317E-01
 2.200000000E+00 1.000000000E+00 7.053966630E-01
 2.150000000E+00 1.000000000E+00 7.058258276E-01
 2.100000000E+00 1.000000000E+00 7.063914870E-01
 2.050000000E+00 1.000000000E+00 7.069099675E-01
 2.000000000E+00 1.000000000E+00 7.075247827E-01
 1.950000000E+00 1.000000000E+00 7.081522295E-01
 1.900000000E+00 1.000000000E+00 7.089014630E-01
 1.850000000E+00 1.000000000E+00 7.097255623E-01
 1.800000000E+00 1.000000000E+00 7.105503871E-01
 1.750000000E+00 1.000000000E+00 7.115840402E-01
 1.700000000E+00 1.000000000E+00 7.125304290E-01
 1.650000000E+00 1.000000000E+00 7.137616311E-01
 1.600000000E+00 1.000000000E+00 7.148284812E-01
 1.550000000E+00 1.000000000E+00 7.160753261E-01
 1.500000000E+00 1.000000000E+00 7.175837683E-01
 1.450000000E+00 1.000000000E+00 7.191775874E-01
 1.400000000E+00 1.000000000E+00 7.214612857E-01
 1.350000000E+00 1.000000000E+00 7.242649437E-01
 1.300000000E+00 1.000000000E+00 7.261418188E-01
 1.250000000E+00 1.000000000E+00 7.286969022E-01
 1.200000000E+00 1.000000000E+00 7.315419683E-01
 1.150000000E+00 1.000000000E+00 7.337596880E-01
 1.100000000E+00 1.000000000E+00 7.362875764E-01
 1.050000000E+00 1.000000000E+00 7.398953244E-01
 1.000000000E+00 1.000000000E+00 7.449949880E-01
 9.500000000E-01 1.000000000E+00 7.479608631E-01
 9.000000000E-01 1.000000000E+00 7.506216962E-01
 8.500000000E-01 1.000000000E+00 7.548508481E-01
 8.000000000E-01 1.000000000E+00 7.600980080E-01
 7.500000000E-01 1.000000000E+00 7.632375838E-01
 7.000000000E-01 1.000000000E+00 7.644004164E-01
 6.500000000E-01 1.000000000E+00 7.656409336E-01
 6.000000000E-01 1.000000000E+00 7.661324024E-01
 5.500000000E-01 1.000000000E+00 7.653181012E-01
 5.000000000E-01 1.000000000E+00 7.635087316E-01
 4.500000000E-01 1.000000000E+00 7.610038833E-01
 4.000000000E-01 1.000000000E+00 7.572122178E-01
 3.500000000E-01 1.000000000E+00 7.530329034E-01
 3.000000000E-01 1.000000000E+00 7.481482130E-01
 2.500000000E-01 1.000000000E+00 7.431045359E-01
 2.000000000E-01 1.000000000E+00 7.379336541E-01
 1.500000000E-01 1.000000000E+00 7.329688876E-01
 1.000000000E-01 1.000000000E+00 7.282431678E-01
 5.000000000E-02 1.000000000E+00 7.241794573E-01
 1.733724275E-12 1.000000000E+00 7.206842615E-01
 -5.000000000E-02 1.000000000E+00 7.178946436E-01
 -1.000000000E-01 1.000000000E+00 7.159105402E-01
 -1.500000000E-01 1.000000000E+00 7.145820137E-01
 -2.000000000E-01 1.000000000E+00 7.139277497E-01
 -2.500000000E-01 1.000000000E+00 7.139324478E-01
 -3.000000000E-01 1.000000000E+00 7.146343697E-01
 -3.500000000E-01 1.000000000E+00 7.159980489E-01
 -4.000000000E-01 1.000000000E+00 7.181951936E-01
 -4.500000000E-01 1.000000000E+00 7.216958532E-01
 9.241555700E-01 -4.737118429E-03 5.872872768E-01
 8.444348146E-01 -1.284005996E-02 6.216720040E-01
 7.710206556E-01 -2.217055422E-02 6.664630484E-01
 7.001577903E-01 -3.301477204E-02 7.101222597E-01
 6.271958538E-01 -4.487519695E-02 7.627030690E-01
 5.613465904E-01 -5.435959612E-02 8.219896709E-01
 4.964998931E-01 -6.230372080E-02 8.947195294E-01
 4.412131562E-01 -6.823969861E-02 9.675103624E-01
 3.858429574E-01 -7.101527187E-02 1.101574476E+00
 3.289994929E-01 -7.157081646E-02 1.050232901E+00
 2.736161287E-01 -6.990919450E-02 1.003355347E+00
 2.131882642E-01 -6.507149314E-02 9.530887607E-01
 1.559100306E-01 -5.810573790E-02 9.105945639E-01
 9.868760713E-02 -4.907909491E-02 8.660817251E-01
 9.861250722E-01 -4.498012138E-03 5.789594315E-01
 6.026398425E-02 -4.259290336E-02 8.151076452E-01
 2.490337980E-02 -2.855968800E-02 7.097853109E-01