TITLE     = "Visualization of the solution"
VARIABLES = "x"
"y"
"Mach"
ZONE T="Zone"
 STRANDID=0, SOLUTIONTIME=0
 Nodes=11864, Elements=23149, ZONETYPE=FEQuadrilateral
 DATAPACKING=POINT
 DT=(DOUBLE DOUBLE DOUBLE )
 9.997702837E-01 5.220423336E-04 5.560187036E-01
 9.868915677E-01 3.084716620E-03 6.192714571E-01
 9.747571349E-01 5.483061541E-03 6.612471882E-01
 9.601469636E-01 8.262804709E-03 6.812340017E-01
 9.469331503E-01 1.084980369E-02 7.041174546E-01
 9.345862269E-01 1.327245589E-02 7.277804620E-01
 9.234719872E-01 1.534283068E-02 7.365202547E-01
 9.116148949E-01 1.758094504E-02 7.565759540E-01
 9.002195001E-01 1.963314787E-02 7.663563137E-01
 8.883724809E-01 2.175185084E-02 7.825872095E-01
 8.763203025E-01 2.381850407E-02 7.935343538E-01
 8.642954826E-01 2.579332143E-02 7.984028505E-01
 8.520479202E-01 2.781800553E-02 8.172356348E-01
 8.403504491E-01 2.960086614E-02 8.168866343E-01
 8.286139965E-01 3.137298673E-02 8.219998366E-01
 8.160797358E-01 3.325534984E-02 8.329950014E-01
 8.031517863E-01 3.513996303E-02 8.421121251E-01
 7.911699414E-01 3.681791574E-02 8.458250894E-01
 7.788762450E-01 3.852934018E-02 8.568074319E-01
 7.667225003E-01 4.013932869E-02 8.582167382E-01
 7.537071705E-01 4.185765982E-02 8.673268365E-01
 7.397059202E-01 4.366570711E-02 8.784982855E-01
 7.287704349E-01 4.502310604E-02 8.835983199E-01
 7.175861001E-01 4.639103264E-02 8.924275031E-01
 7.058002949E-01 4.777962714E-02 8.979260948E-01
 6.919336319E-01 4.937476292E-02 9.085020880E-01
 6.787989140E-01 5.083033070E-02 9.190480515E-01
 6.684539318E-01 5.192463845E-02 9.246666754E-01
 6.568259597E-01 5.312296376E-02 9.341051476E-01
 6.456491947E-01 5.421676487E-02 9.414046691E-01
 6.335217357E-01 5.536639318E-02 9.539863379E-01
 6.221372485E-01 5.636923388E-02 9.576255016E-01
 6.111304164E-01 5.729265139E-02 9.647169157E-01
 5.984423161E-01 5.831127614E-02 9.770749430E-01
 5.863070488E-01 5.920262635E-02 9.828348528E-01
 5.724030733E-01 6.015393883E-02 9.963493752E-01
 5.593972802E-01 6.095685065E-02 1.002781771E+00
 5.464212894E-01 6.166213006E-02 1.008853480E+00
 5.351976752E-01 6.222874671E-02 1.015805625E+00
 5.230341554E-01 6.274481118E-02 1.020751631E+00
 5.099117160E-01 6.325217336E-02 1.031361321E+00
 4.986774921E-01 6.359544396E-02 1.028052918E+00
 4.852176905E-01 6.395139545E-02 1.027693782E+00
 4.718213081E-01 6.419261545E-02 1.019909767E+00
 4.569860697E-01 6.437712908E-02 1.021436714E+00
 4.429371655E-01 6.445855647E-02 1.017300544E+00
 4.295587242E-01 6.444448978E-02 1.005153089E+00
 4.159911275E-01 6.432945281E-02 9.947714429E-01
 4.035367668E-01 6.417927146E-02 9.968513409E-01
 3.908411860E-01 6.396164745E-02 9.935198903E-01
 3.784359992E-01 6.365417689E-02 9.834759624E-01
 3.672097027E-01 6.333462149E-02 9.809514468E-01
 3.538883626E-01 6.288531423E-02 9.772238372E-01
 3.415926099E-01 6.238511950E-02 9.654852269E-01
 3.290166557E-01 6.180949882E-02 9.602425055E-01
 3.186492324E-01 6.131085381E-02 9.615638758E-01
 3.062613010E-01 6.062383205E-02 9.524656324E-01
 2.931083739E-01 5.982110277E-02 9.449333976E-01
 2.793702185E-01 5.891480669E-02 9.406138069E-01
 2.667653561E-01 5.799799040E-02 9.330964211E-01
 2.549643815E-01 5.708483234E-02 9.286963690E-01
 2.423820198E-01 5.604394153E-02 9.243053911E-01
 2.296873182E-01 5.490412563E-02 9.169215118E-01
 2.175154090E-01 5.374108627E-02 9.107217011E-01
 2.058727741E-01 5.256042257E-02 9.055969496E-01
 1.946967393E-01 5.136056617E-02 8.995196575E-01
 1.824808866E-01 4.997121170E-02 8.936960823E-01
 1.707237959E-01 4.855627194E-02 8.882964245E-01
 1.592691541E-01 4.708114639E-02 8.787950047E-01
 1.475728452E-01 4.550244287E-02 8.730038911E-01
 1.369918287E-01 4.400320724E-02 8.686608120E-01
 1.258570999E-01 4.233139381E-02 8.623638008E-01
 1.145925671E-01 4.052360728E-02 8.533551129E-01
 1.041065976E-01 3.875197843E-02 8.456807197E-01
 9.444238245E-02 3.702194616E-02 8.400897639E-01
 8.352568001E-02 3.494028747E-02 8.304003458E-01
 7.161819935E-02 3.249492869E-02 8.199884072E-01
 6.184583530E-02 3.032597527E-02 8.098186614E-01
 5.207694322E-02 2.796847373E-02 7.977431863E-01
 4.318261147E-02 2.562689595E-02 7.858617745E-01
 3.557713702E-02 2.343429439E-02 7.726983301E-01
 2.893060446E-02 2.132534422E-02 7.569671962E-01
 2.334450744E-02 1.936983317E-02 7.427752657E-01
 1.934966817E-02 1.783333160E-02 7.271896041E-01
 1.556611899E-02 1.623536460E-02 7.086166302E-01
 1.288150251E-02 1.499941200E-02 6.912231803E-01
 1.050368790E-02 1.380112208E-02 6.725567956E-01
 8.711229078E-03 1.281617582E-02 6.538034746E-01
 7.098408882E-03 1.185997576E-02 6.346946101E-01
 5.601800513E-03 1.088645030E-02 6.056421856E-01
 3.619536990E-03 9.426517412E-03 5.636870015E-01
 1.934257685E-03 7.953627966E-03 5.149075393E-01
 4.749917716E-04 6.367917638E-03 4.272269044E-01
 -9.138833266E-04 4.251749255E-03 3.141238347E-01
 -1.571813133E-03 2.583979396E-03 2.031391052E-01
 -1.830728608E-03 1.266733045E-03 9.167094672E-02
 -1.846644212E-03 -3.415344399E-04 3.026236493E-02
 -1.481439336E-03 -2.168531762E-03 1.593533185E-01
 -5.790566211E-04 -4.276185762E-03 2.837087690E-01
 9.244520334E-04 -6.516956724E-03 3.898668583E-01
 3.072429914E-03 -8.853510953E-03 4.805423444E-01
 4.960414022E-03 -1.051597390E-02 5.431586674E-01
 7.195475977E-03 -1.220724639E-02 5.879303116E-01
 8.827017620E-03 -1.331388671E-02 6.236042005E-01
 1.087561995E-02 -1.458762586E-02 6.488974305E-01
 1.330819447E-02 -1.596027799E-02 6.756556751E-01
 1.659397222E-02 -1.764529385E-02 7.041565983E-01
 1.972159557E-02 -1.909470372E-02 7.287138749E-01
 2.375953458E-02 -2.080617473E-02 7.482563669E-01
 2.922220156E-02 -2.289056219E-02 7.700332697E-01
 3.499187902E-02 -2.486485615E-02 7.882184460E-01
 4.235102981E-02 -2.714218758E-02 8.032988946E-01
 4.994602874E-02 -2.925397083E-02 8.180983014E-01
 5.880809948E-02 -3.149944544E-02 8.282712200E-01
 6.750616431E-02 -3.350741044E-02 8.378199791E-01
 7.787248492E-02 -3.570628166E-02 8.470324250E-01
 8.785006404E-02 -3.765232116E-02 8.543630278E-01
 9.836656600E-02 -3.955917433E-02 8.607874544E-01
 1.093828976E-01 -4.142629355E-02 8.690258249E-01
 1.207548454E-01 -4.321834445E-02 8.753767947E-01
 1.322162300E-01 -4.491127655E-02 8.830026852E-01
 1.425596625E-01 -4.634033144E-02 8.882761574E-01
 1.536779106E-01 -4.779748619E-02 8.952425905E-01
 1.655985564E-01 -4.926098511E-02 9.023037421E-01
 1.772923172E-01 -5.060626566E-02 9.095228174E-01
 1.891034991E-01 -5.187895149E-02 9.174609945E-01
 1.996137947E-01 -5.293803290E-02 9.246057030E-01
 2.109016031E-01 -5.400229245E-02 9.316052891E-01
 2.232552171E-01 -5.508505553E-02 9.407015635E-01
 2.356042415E-01 -5.607211962E-02 9.495598273E-01
 2.477726489E-01 -5.695087463E-02 9.558827490E-01
 2.604568303E-01 -5.779133365E-02 9.688063064E-01
 2.713720500E-01 -5.841296539E-02 9.759495302E-01
 2.841795981E-01 -5.906791240E-02 9.843156720E-01
 2.966241241E-01 -5.959815532E-02 9.966230880E-01
 3.093913496E-01 -6.003647298E-02 1.009778047E+00
 3.208656907E-01 -6.031962484E-02 1.017965790E+00
 3.332556784E-01 -6.052569300E-02 1.022342152E+00
 3.438236117E-01 -6.062181666E-02 1.038223482E+00
 3.550915122E-01 -6.060456485E-02 1.044823499E+00
 3.660122156E-01 -6.050846726E-02 1.052860375E+00
 3.766036034E-01 -6.030602753E-02 1.052873475E+00
 3.880575895E-01 -6.000326574E-02 1.043375210E+00
 4.006843865E-01 -5.951761454E-02 1.020242961E+00
 4.127851725E-01 -5.892964825E-02 9.998013464E-01
 4.261113405E-01 -5.814297497E-02 9.891340603E-01
 4.387840033E-01 -5.724251643E-02 9.720983395E-01
 4.516149759E-01 -5.620981380E-02 9.538157067E-01
 4.639308751E-01 -5.510135368E-02 9.388221939E-01
 4.762630761E-01 -5.387781933E-02 9.216964357E-01
 4.879661798E-01 -5.261227116E-02 9.032776144E-01
 5.003418922E-01 -5.119186267E-02 8.861559670E-01
 5.141024590E-01 -4.951367155E-02 8.670665417E-01
 5.279451013E-01 -4.774847999E-02 8.503622891E-01
 5.412417650E-01 -4.599504918E-02 8.366178625E-01
 5.550497174E-01 -4.409533367E-02 8.199160663E-01
 5.679985881E-01 -4.227774218E-02 8.060152979E-01
 5.814974308E-01 -4.034808278E-02 7.930600601E-01
 5.938131213E-01 -3.856562078E-02 7.817055691E-01
 6.060673594E-01 -3.678242862E-02 7.720109265E-01
 6.194437742E-01 -3.479822353E-02 7.579752382E-01
 6.339267492E-01 -3.267317638E-02 7.479338046E-01
 6.479759216E-01 -3.061425500E-02 7.382746325E-01
 6.613323689E-01 -2.865019627E-02 7.275737945E-01
 6.750512123E-01 -2.666191012E-02 7.196920237E-01
 6.876375675E-01 -2.483412810E-02 7.096966088E-01
 7.002675533E-01 -2.304583788E-02 7.042884782E-01
 7.149072289E-01 -2.096130326E-02 6.939730886E-01
 7.279312015E-01 -1.913382486E-02 6.848016817E-01
 7.395501733E-01 -1.754789427E-02 6.782159061E-01
 7.524569631E-01 -1.584811136E-02 6.748325273E-01
 7.649219632E-01 -1.417547371E-02 6.643018588E-01
 7.776193619E-01 -1.253300160E-02 6.565416941E-01
 7.899101973E-01 -1.102377288E-02 6.529963246E-01
 8.023859859E-01 -9.484691545E-03 6.426694124E-01
 8.135742545E-01 -8.191279136E-03 6.383772629E-01
 8.250947595E-01 -6.911865436E-03 6.336489637E-01
 8.371132016E-01 -5.592423026E-03 6.231619187E-01
 8.498049378E-01 -4.360629711E-03 6.209911310E-01
 8.618494272E-01 -3.243953921E-03 6.143817515E-01
 8.735424280E-01 -2.253049053E-03 6.094462745E-01
 8.853065968E-01 -1.351940678E-03 6.040695967E-01
 8.982381225E-01 -5.087970640E-04 6.000740217E-01
 9.085494876E-01 3.919445589E-05 5.988092575E-01
 9.186081290E-01 4.901108332E-04 5.976072563E-01
 9.279136062E-01 8.163254824E-04 5.964654696E-01
 9.367885590E-01 1.049543032E-03 5.967668551E-01
 9.491133094E-01 1.241421094E-03 5.983188128E-01
 9.623178244E-01 1.293350593E-03 6.005438265E-01
 9.766827822E-01 1.164852991E-03 6.039546009E-01
 9.897713661E-01 8.856909117E-04 6.128538136E-01
 -5.000000000E-01 -1.000000000E+00 7.241960577E-01
 3.500000000E+00 -1.000000000E+00 7.276137138E-01
 3.500000000E+00 1.000000000E+00 7.145176742E-01
 -5.000000000E-01 1.000000000E+00 7.243661508E-01
 9.933309257E-01 1.803379477E-03 5.979870482E-01
 9.808243513E-01 4.283889080E-03 6.415418994E-01
 9.674520493E-01 6.872933125E-03 6.712331815E-01
 9.535400569E-01 9.556304198E-03 6.923094828E-01
 9.407596886E-01 1.206112979E-02 7.171172491E-01
 9.290291071E-01 1.430764329E-02 7.317995347E-01
 9.175434411E-01 1.646188786E-02 7.470200459E-01
 9.059171975E-01 1.860704646E-02 7.612134073E-01
 8.942959905E-01 2.069249935E-02 7.747518107E-01
 8.823463917E-01 2.278517745E-02 7.890482460E-01
 8.703078926E-01 2.480591275E-02 7.946158016E-01
 8.581717014E-01 2.680566348E-02 8.091927046E-01
 8.461991847E-01 2.870943584E-02 8.172575088E-01
 8.344822228E-01 3.048692644E-02 8.187919019E-01
 8.223468661E-01 3.231416829E-02 8.273313622E-01
 8.096157610E-01 3.419765644E-02 8.383496893E-01
 7.971608639E-01 3.597893938E-02 8.431457300E-01
 7.850230932E-01 3.767362796E-02 8.522363183E-01
 7.727993727E-01 3.933433443E-02 8.570136341E-01
 7.602148354E-01 4.099849425E-02 8.622752268E-01
 7.467065454E-01 4.276168346E-02 8.733302434E-01
 7.342381775E-01 4.434440657E-02 8.808894375E-01
 7.231782675E-01 4.570706934E-02 8.883573417E-01
 7.116931975E-01 4.708532989E-02 8.949213133E-01
 6.988669634E-01 4.857719503E-02 9.027835412E-01
 6.853662729E-01 5.010254681E-02 9.142410368E-01
 6.736264229E-01 5.137748457E-02 9.216327116E-01
 6.626399457E-01 5.252380110E-02 9.298030361E-01
 6.512375772E-01 5.366986431E-02 9.368668776E-01
 6.395854652E-01 5.479157902E-02 9.485551757E-01
 6.278294921E-01 5.586781353E-02 9.560347125E-01
 6.166338325E-01 5.683094263E-02 9.601834448E-01
 6.047863662E-01 5.780196376E-02 9.716667510E-01
 5.923746824E-01 5.875695124E-02 9.795630826E-01
 5.793550611E-01 5.967828259E-02 9.893734894E-01
 5.659001768E-01 6.055539474E-02 1.000860755E+00
 5.529092848E-01 6.130949035E-02 1.004264498E+00
 5.408094823E-01 6.194543839E-02 1.014318686E+00
 5.291159153E-01 6.248677894E-02 1.016036040E+00
 5.164729357E-01 6.299849227E-02 1.028376379E+00
 5.042946041E-01 6.342380866E-02 1.029032837E+00
 4.919475913E-01 6.377341971E-02 1.029563509E+00
 4.785194993E-01 6.407200545E-02 1.022684106E+00
 4.644036889E-01 6.428487226E-02 1.020554527E+00
 4.499616176E-01 6.441784278E-02 1.020392754E+00
 4.362479448E-01 6.445152313E-02 1.012217516E+00
 4.227749258E-01 6.438697129E-02 9.979179736E-01
 4.097639471E-01 6.425436214E-02 9.955094032E-01
 3.971889764E-01 6.407045946E-02 9.969899832E-01
 3.846385926E-01 6.380791217E-02 9.872950469E-01
 3.728228509E-01 6.349439919E-02 9.821986608E-01
 3.605490327E-01 6.310996786E-02 9.798518999E-01
 3.477404863E-01 6.263521686E-02 9.717315479E-01
 3.353046328E-01 6.209730916E-02 9.607160869E-01
 3.238329440E-01 6.156017631E-02 9.626490253E-01
 3.124552667E-01 6.096734293E-02 9.572120988E-01
 2.996848375E-01 6.022246741E-02 9.480958354E-01
 2.862392962E-01 5.936795473E-02 9.430924308E-01
 2.730677873E-01 5.845639855E-02 9.365471430E-01
 2.608648688E-01 5.754141137E-02 9.307686708E-01
 2.486732006E-01 5.656438693E-02 9.269674080E-01
 2.360346690E-01 5.547403358E-02 9.204984696E-01
 2.236013636E-01 5.432260595E-02 9.137373328E-01
 2.116940916E-01 5.315075442E-02 9.079811374E-01
 2.002847567E-01 5.196049437E-02 9.029957690E-01
 1.885888129E-01 5.066588894E-02 8.961991355E-01
 1.766023412E-01 4.926374182E-02 8.914996424E-01
 1.649964750E-01 4.781870916E-02 8.834824484E-01
 1.534209996E-01 4.629179463E-02 8.753387533E-01
 1.422823370E-01 4.475282505E-02 8.710680676E-01
 1.314244643E-01 4.316730052E-02 8.661495089E-01
 1.202248335E-01 4.142750055E-02 8.572812850E-01
 1.093495823E-01 3.963779286E-02 8.504572668E-01
 8.898403123E-02 3.598111682E-02 8.356472011E-01
 7.757193968E-02 3.371760808E-02 8.258008169E-01
 7.268932462E-02 -3.460684605E-02 8.432951261E-01
 8.286127448E-02 -3.667930141E-02 8.513346163E-01
 9.310831502E-02 -3.860574774E-02 8.573820607E-01
 1.038747318E-01 -4.049273394E-02 8.648304586E-01
 1.150688715E-01 -4.232231900E-02 8.723592228E-01
 1.264855377E-01 -4.406481050E-02 8.790105201E-01
 1.373879462E-01 -4.562580399E-02 8.862165873E-01
 1.481187865E-01 -4.706890881E-02 8.912709438E-01
 1.596382335E-01 -4.852923565E-02 8.988332361E-01
 1.714454368E-01 -4.993362539E-02 9.059254208E-01
 1.831979081E-01 -5.124260858E-02 9.133449252E-01
 1.943586469E-01 -5.240849219E-02 9.214610580E-01
 2.052576989E-01 -5.347016267E-02 9.278202781E-01
 2.170784101E-01 -5.454367399E-02 9.358016364E-01
 2.294297293E-01 -5.557858758E-02 9.453209808E-01
 2.416884452E-01 -5.651149713E-02 9.529866017E-01
 2.541147396E-01 -5.737110414E-02 9.611369304E-01
 2.659144402E-01 -5.810214952E-02 9.743675057E-01
 2.777758241E-01 -5.874043889E-02 9.785410643E-01
 2.904018611E-01 -5.933303386E-02 9.907169383E-01
 3.030077368E-01 -5.981731415E-02 1.002778622E+00
 3.151285201E-01 -6.017804891E-02 1.015542059E+00
 3.270606846E-01 -6.042265892E-02 1.019071879E+00
 3.385396451E-01 -6.057375483E-02 1.029754904E+00
 3.494575620E-01 -6.061319076E-02 1.043083287E+00
 3.605518639E-01 -6.055651605E-02 1.047826506E+00
 3.713079095E-01 -6.040724739E-02 1.055491331E+00
 3.823305964E-01 -6.015464664E-02 1.048290887E+00
 3.943709880E-01 -5.976044014E-02 1.033632184E+00
 4.067347795E-01 -5.922363140E-02 1.008261502E+00
 4.194482565E-01 -5.853631161E-02 9.939137380E-01
 4.324476719E-01 -5.769274570E-02 9.821408729E-01
 4.451994896E-01 -5.672616512E-02 9.621058589E-01
 4.577729255E-01 -5.565558374E-02 9.465261569E-01
 4.700969756E-01 -5.448958650E-02 9.304255006E-01
 4.821146280E-01 -5.324504524E-02 9.127626150E-01
 4.941540360E-01 -5.190206692E-02 8.946585107E-01
 5.072221756E-01 -5.035276711E-02 8.765887354E-01
 5.210237801E-01 -4.863107577E-02 8.584086382E-01
 5.345934331E-01 -4.687176459E-02 8.433894386E-01
 5.481457412E-01 -4.504519142E-02 8.283942461E-01
 5.615241528E-01 -4.318653792E-02 8.126742866E-01
 5.747480094E-01 -4.131291248E-02 7.994184349E-01
 5.876552761E-01 -3.945685178E-02 7.872273780E-01
 5.999402404E-01 -3.767402470E-02 7.769328155E-01
 6.127555668E-01 -3.579032607E-02 7.651378573E-01
 6.266852617E-01 -3.373569995E-02 7.526311452E-01
 6.409513354E-01 -3.164371569E-02 7.431284868E-01
 6.546541452E-01 -2.963222563E-02 7.328917432E-01
 6.681917906E-01 -2.765605319E-02 7.234892343E-01
 6.813443899E-01 -2.574801911E-02 7.147968875E-01
 6.939525604E-01 -2.393998299E-02 7.067330071E-01
 7.075873911E-01 -2.200357057E-02 6.995242889E-01
 7.214192152E-01 -2.004756406E-02 6.892550666E-01
 7.337406874E-01 -1.834085956E-02 6.810453300E-01
 7.460035682E-01 -1.669800282E-02 6.766577739E-01
 7.586894631E-01 -1.501179254E-02 6.699278552E-01
 7.712706625E-01 -1.335423766E-02 6.602257357E-01
 7.837647796E-01 -1.177838724E-02 6.545902880E-01
 7.961480916E-01 -1.025423221E-02 6.482184772E-01
 8.079801202E-01 -8.837985340E-03 6.399271317E-01
 8.193345070E-01 -7.551572286E-03 6.362724704E-01
 8.311039805E-01 -6.252144231E-03 6.284692099E-01
 8.434590697E-01 -4.976526368E-03 6.218462308E-01
 8.558271825E-01 -3.802291816E-03 6.178562025E-01
 8.676959276E-01 -2.748501487E-03 6.117819511E-01
 8.794245124E-01 -1.802494866E-03 6.066326143E-01
 8.917723596E-01 -9.303688712E-04 6.022735335E-01
 9.033938050E-01 -2.348013040E-04 5.989154527E-01
 9.429509342E-01 1.145482063E-03 5.975701619E-01
 9.557155669E-01 1.267385844E-03 5.993005326E-01
 9.695003033E-01 1.229101792E-03 6.024092313E-01
 9.832270741E-01 1.025271951E-03 6.062369205E-01
 -5.000000000E-01 9.500000000E-01 7.220250488E-01
 -5.000000000E-01 9.000000000E-01 7.184518910E-01
 -5.000000000E-01 8.500000000E-01 7.157477475E-01
 -5.000000000E-01 8.000000000E-01 7.133508227E-01
 -5.000000000E-01 7.500000000E-01 7.110391083E-01
 -5.000000000E-01 7.000000000E-01 7.088759781E-01
 -5.000000000E-01 6.500000000E-01 7.066100006E-01
 -5.000000000E-01 6.000000000E-01 7.042928240E-01
 -5.000000000E-01 5.500000000E-01 7.019171447E-01
 -5.000000000E-01 5.000000000E-01 6.995449036E-01
 -5.000000000E-01 4.500000000E-01 6.970992557E-01
 -5.000000000E-01 4.000000000E-01 6.946706213E-01
 -5.000000000E-01 3.500000000E-01 6.922775060E-01
 -5.000000000E-01 3.000000000E-01 6.899986341E-01
 -5.000000000E-01 2.500000000E-01 6.878912472E-01
 -5.000000000E-01 2.000000000E-01 6.860808348E-01
 -5.000000000E-01 1.500000000E-01 6.844825803E-01
 -5.000000000E-01 1.000000000E-01 6.833114899E-01
 -5.000000000E-01 5.000000000E-02 6.825787018E-01
 -5.000000000E-01 2.752242878E-12 6.823116116E-01
 -5.000000000E-01 -5.000000000E-02 6.825573008E-01
 -5.000000000E-01 -1.000000000E-01 6.832682646E-01
 -5.000000000E-01 -1.500000000E-01 6.843913404E-01
 -5.000000000E-01 -2.000000000E-01 6.859104197E-01
 -5.000000000E-01 -2.500000000E-01 6.877440881E-01
 -5.000000000E-01 -3.000000000E-01 6.898522857E-01
 -5.000000000E-01 -3.500000000E-01 6.920825361E-01
 -5.000000000E-01 -4.000000000E-01 6.944588022E-01
 -5.000000000E-01 -4.500000000E-01 6.968277596E-01
 -5.000000000E-01 -5.000000000E-01 6.992352311E-01
 -5.000000000E-01 -5.500000000E-01 7.016277279E-01
 -5.000000000E-01 -6.000000000E-01 7.039719246E-01
 -5.000000000E-01 -6.500000000E-01 7.062602692E-01
 -5.000000000E-01 -7.000000000E-01 7.085126168E-01
 -5.000000000E-01 -7.500000000E-01 7.107766188E-01
 -5.000000000E-01 -8.000000000E-01 7.130598281E-01
 -5.000000000E-01 -8.500000000E-01 7.154877622E-01
 -5.000000000E-01 -9.000000000E-01 7.182655939E-01
 -5.000000000E-01 -9.500000000E-01 7.218452796E-01
 -4.500000000E-01 -1.000000000E+00 7.216562626E-01
 -4.000000000E-01 -1.000000000E+00 7.182747957E-01
 -3.500000000E-01 -1.000000000E+00 7.160472318E-01
 -3.000000000E-01 -1.000000000E+00 7.145978177E-01
 -2.500000000E-01 -1.000000000E+00 7.137147074E-01
 -2.000000000E-01 -1.000000000E+00 7.134940337E-01
 -1.500000000E-01 -1.000000000E+00 7.139243475E-01
 -1.000000000E-01 -1.000000000E+00 7.149381633E-01
 -5.000000000E-02 -1.000000000E+00 7.165727707E-01
 -9.424683256E-13 -1.000000000E+00 7.188697870E-01
 5.000000000E-02 -1.000000000E+00 7.216017365E-01
 1.000000000E-01 -1.000000000E+00 7.247969146E-01
 1.500000000E-01 -1.000000000E+00 7.283658405E-01
 2.000000000E-01 -1.000000000E+00 7.321819602E-01
 2.500000000E-01 -1.000000000E+00 7.358428857E-01
 3.000000000E-01 -1.000000000E+00 7.390519818E-01
 3.500000000E-01 -1.000000000E+00 7.420261164E-01
 4.000000000E-01 -1.000000000E+00 7.442029168E-01
 4.500000000E-01 -1.000000000E+00 7.455936642E-01
 5.000000000E-01 -1.000000000E+00 7.466398250E-01
 5.500000000E-01 -1.000000000E+00 7.468142366E-01
 6.000000000E-01 -1.000000000E+00 7.461025265E-01
 6.500000000E-01 -1.000000000E+00 7.449200433E-01
 7.000000000E-01 -1.000000000E+00 7.430720764E-01
 7.500000000E-01 -1.000000000E+00 7.409575274E-01
 8.000000000E-01 -1.000000000E+00 7.385302944E-01
 8.500000000E-01 -1.000000000E+00 7.358601981E-01
 9.000000000E-01 -1.000000000E+00 7.331932016E-01
 9.500000000E-01 -1.000000000E+00 7.305396655E-01
 1.000000000E+00 -1.000000000E+00 7.280709630E-01
 1.050000000E+00 -1.000000000E+00 7.257680320E-01
 1.100000000E+00 -1.000000000E+00 7.237242444E-01
 1.150000000E+00 -1.000000000E+00 7.219099322E-01
 1.200000000E+00 -1.000000000E+00 7.203136121E-01
 1.250000000E+00 -1.000000000E+00 7.191210904E-01
 1.300000000E+00 -1.000000000E+00 7.178310695E-01
 1.350000000E+00 -1.000000000E+00 7.171888136E-01
 1.400000000E+00 -1.000000000E+00 7.165989995E-01
 1.450000000E+00 -1.000000000E+00 7.161923674E-01
 1.500000000E+00 -1.000000000E+00 7.159221564E-01
 1.550000000E+00 -1.000000000E+00 7.158093858E-01
 1.600000000E+00 -1.000000000E+00 7.158868911E-01
 1.650000000E+00 -1.000000000E+00 7.159932486E-01
 1.700000000E+00 -1.000000000E+00 7.161375316E-01
 1.750000000E+00 -1.000000000E+00 7.163279733E-01
 1.800000000E+00 -1.000000000E+00 7.165692400E-01
 1.850000000E+00 -1.000000000E+00 7.168089057E-01
 1.900000000E+00 -1.000000000E+00 7.171274514E-01
 1.950000000E+00 -1.000000000E+00 7.174841217E-01
 2.000000000E+00 -1.000000000E+00 7.178164066E-01
 2.050000000E+00 -1.000000000E+00 7.181453316E-01
 2.100000000E+00 -1.000000000E+00 7.184968409E-01
 2.150000000E+00 -1.000000000E+00 7.188399816E-01
 2.200000000E+00 -1.000000000E+00 7.191539960E-01
 2.250000000E+00 -1.000000000E+00 7.195057058E-01
 2.300000000E+00 -1.000000000E+00 7.198110466E-01
 2.350000000E+00 -1.000000000E+00 7.201014473E-01
 2.400000000E+00 -1.000000000E+00 7.203540786E-01
 2.450000000E+00 -1.000000000E+00 7.205936659E-01
 2.500000000E+00 -1.000000000E+00 7.208163934E-01
 2.550000000E+00 -1.000000000E+00 7.210904366E-01
 2.600000000E+00 -1.000000000E+00 7.211615949E-01
 2.650000000E+00 -1.000000000E+00 7.214219409E-01
 2.700000000E+00 -1.000000000E+00 7.217101418E-01
 2.750000000E+00 -1.000000000E+00 7.219203284E-01
 2.800000000E+00 -1.000000000E+00 7.220536976E-01
 2.850000000E+00 -1.000000000E+00 7.222166998E-01
 2.900000000E+00 -1.000000000E+00 7.223688723E-01
 2.950000000E+00 -1.000000000E+00 7.224090388E-01
 3.000000000E+00 -1.000000000E+00 7.224923505E-01
 3.050000000E+00 -1.000000000E+00 7.224514698E-01
 3.100000000E+00 -1.000000000E+00 7.226201746E-01
 3.150000000E+00 -1.000000000E+00 7.227454850E-01
 3.200000000E+00 -1.000000000E+00 7.228697988E-01
 3.250000000E+00 -1.000000000E+00 7.230298313E-01
 3.300000000E+00 -1.000000000E+00 7.232031377E-01
 3.350000000E+00 -1.000000000E+00 7.235344444E-01
 3.400000000E+00 -1.000000000E+00 7.238394829E-01
 3.450000000E+00 -1.000000000E+00 7.248906755E-01
 3.500000000E+00 -9.500000000E-01 7.293333373E-01
 3.500000000E+00 -9.000000000E-01 7.301760906E-01
 3.500000000E+00 -8.500000000E-01 7.307539751E-01
 3.500000000E+00 -8.000000000E-01 7.311424414E-01
 3.500000000E+00 -7.500000000E-01 7.314036849E-01
 3.500000000E+00 -7.000000000E-01 7.316369403E-01
 3.500000000E+00 -6.500000000E-01 7.318916757E-01
 3.500000000E+00 -6.000000000E-01 7.321907238E-01
 3.500000000E+00 -5.500000000E-01 7.325115544E-01
 3.500000000E+00 -5.000000000E-01 7.328351942E-01
 3.500000000E+00 -4.500000000E-01 7.331652032E-01
 3.500000000E+00 -4.000000000E-01 7.335002210E-01
 3.500000000E+00 -3.500000000E-01 7.338204687E-01
 3.500000000E+00 -3.000000000E-01 7.341563589E-01
 3.500000000E+00 -2.500000000E-01 7.344677311E-01
 3.500000000E+00 -2.000000000E-01 7.347089814E-01
 3.500000000E+00 -1.500000000E-01 7.348572563E-01
 3.500000000E+00 -1.000000000E-01 7.349207378E-01
 3.500000000E+00 -5.000000000E-02 7.349446628E-01
 3.500000000E+00 -2.752242878E-12 7.349457732E-01
 3.500000000E+00 5.000000000E-02 7.348968452E-01
 3.500000000E+00 1.000000000E-01 7.347724472E-01
 3.500000000E+00 1.500000000E-01 7.345770494E-01
 3.500000000E+00 2.000000000E-01 7.343087911E-01
 3.500000000E+00 2.500000000E-01 7.339866268E-01
 3.500000000E+00 3.000000000E-01 7.336479375E-01
 3.500000000E+00 3.500000000E-01 7.333098054E-01
 3.500000000E+00 4.000000000E-01 7.330055593E-01
 3.500000000E+00 4.500000000E-01 7.326668715E-01
 3.500000000E+00 5.000000000E-01 7.322747133E-01
 3.500000000E+00 5.500000000E-01 7.318806991E-01
 3.500000000E+00 6.000000000E-01 7.316077989E-01
 3.500000000E+00 6.500000000E-01 7.316343119E-01
 3.500000000E+00 7.000000000E-01 7.319237489E-01
 3.500000000E+00 7.500000000E-01 7.321390126E-01
 3.500000000E+00 8.000000000E-01 7.315497764E-01
 3.500000000E+00 8.500000000E-01 7.293466219E-01
 3.500000000E+00 9.000000000E-01 7.257121701E-01
 3.500000000E+00 9.500000000E-01 7.209982363E-01
 3.450000000E+00 1.000000000E+00 7.051628112E-01
 3.400000000E+00 1.000000000E+00 7.013841053E-01
 3.350000000E+00 1.000000000E+00 7.006439573E-01
 3.300000000E+00 1.000000000E+00 7.004165786E-01
 3.250000000E+00 1.000000000E+00 7.004633745E-01
 3.200000000E+00 1.000000000E+00 7.005605969E-01
 3.150000000E+00 1.000000000E+00 7.008955742E-01
 3.100000000E+00 1.000000000E+00 7.015045582E-01
 3.050000000E+00 1.000000000E+00 7.016011562E-01
 3.000000000E+00 1.000000000E+00 7.017812721E-01
 2.950000000E+00 1.000000000E+00 7.020356554E-01
 2.900000000E+00 1.000000000E+00 7.023969315E-01
 2.850000000E+00 1.000000000E+00 7.025803905E-01
 2.800000000E+00 1.000000000E+00 7.025623818E-01
 2.750000000E+00 1.000000000E+00 7.027447115E-01
 2.700000000E+00 1.000000000E+00 7.027216157E-01
 2.650000000E+00 1.000000000E+00 7.030958998E-01
 2.600000000E+00 1.000000000E+00 7.038161996E-01
 2.550000000E+00 1.000000000E+00 7.042229377E-01
 2.500000000E+00 1.000000000E+00 7.043934040E-01
 2.450000000E+00 1.000000000E+00 7.047322078E-01
 2.400000000E+00 1.000000000E+00 7.050129694E-01
 2.350000000E+00 1.000000000E+00 7.055627957E-01
 2.300000000E+00 1.000000000E+00 7.061288212E-01
 2.250000000E+00 1.000000000E+00 7.063743166E-01
 2.200000000E+00 1.000000000E+00 7.066504620E-01
 2.150000000E+00 1.000000000E+00 7.070437608E-01
 2.100000000E+00 1.000000000E+00 7.079587617E-01
 2.050000000E+00 1.000000000E+00 7.085514862E-01
 2.000000000E+00 1.000000000E+00 7.093072839E-01
 1.950000000E+00 1.000000000E+00 7.096210784E-01
 1.900000000E+00 1.000000000E+00 7.104323295E-01
 1.850000000E+00 1.000000000E+00 7.110224730E-01
 1.800000000E+00 1.000000000E+00 7.119298693E-01
 1.750000000E+00 1.000000000E+00 7.131810831E-01
 1.700000000E+00 1.000000000E+00 7.143162426E-01
 1.650000000E+00 1.000000000E+00 7.154993397E-01
 1.600000000E+00 1.000000000E+00 7.165478396E-01
 1.550000000E+00 1.000000000E+00 7.178328564E-01
 1.500000000E+00 1.000000000E+00 7.198079422E-01
 1.450000000E+00 1.000000000E+00 7.213031055E-01
 1.400000000E+00 1.000000000E+00 7.232738683E-01
 1.350000000E+00 1.000000000E+00 7.254461092E-01
 1.300000000E+00 1.000000000E+00 7.278016696E-01
 1.250000000E+00 1.000000000E+00 7.307105550E-01
 1.200000000E+00 1.000000000E+00 7.330954275E-01
 1.150000000E+00 1.000000000E+00 7.362805729E-01
 1.100000000E+00 1.000000000E+00 7.393437551E-01
 1.050000000E+00 1.000000000E+00 7.437299454E-01
 1.000000000E+00 1.000000000E+00 7.473331435E-01
 9.500000000E-01 1.000000000E+00 7.509604659E-01
 9.000000000E-01 1.000000000E+00 7.541813723E-01
 8.500000000E-01 1.000000000E+00 7.570380046E-01
 8.000000000E-01 1.000000000E+00 7.600404081E-01
 7.500000000E-01 1.000000000E+00 7.623341142E-01
 7.000000000E-01 1.000000000E+00 7.642124570E-01
 6.500000000E-01 1.000000000E+00 7.650391773E-01
 6.000000000E-01 1.000000000E+00 7.647915591E-01
 5.500000000E-01 1.000000000E+00 7.639492918E-01
 5.000000000E-01 1.000000000E+00 7.628806537E-01
 4.500000000E-01 1.000000000E+00 7.601695948E-01
 4.000000000E-01 1.000000000E+00 7.567721495E-01
 3.500000000E-01 1.000000000E+00 7.524124690E-01
 3.000000000E-01 1.000000000E+00 7.475752524E-01
 2.500000000E-01 1.000000000E+00 7.425928890E-01
 2.000000000E-01 1.000000000E+00 7.375660547E-01
 1.500000000E-01 1.000000000E+00 7.326233229E-01
 1.000000000E-01 1.000000000E+00 7.280648063E-01
 5.000000000E-02 1.000000000E+00 7.240216397E-01
 1.733724275E-12 1.000000000E+00 7.206502739E-01
 -5.000000000E-02 1.000000000E+00 7.180095138E-01
 -1.000000000E-01 1.000000000E+00 7.161032474E-01
 -1.500000000E-01 1.000000000E+00 7.148218563E-01
 -2.000000000E-01 1.000000000E+00 7.141895998E-01
 -2.500000000E-01 1.000000000E+00 7.142699976E-01
 -3.000000000E-01 1.000000000E+00 7.149491248E-01
 -3.500000000E-01 1.000000000E+00 7.163429648E-01
 -4.000000000E-01 1.000000000E+00 7.185949423E-01
 -4.500000000E-01 1.000000000E+00 7.219380834E-01
 8.952996161E-01 -5.787012693E-03 6.047074032E-01
 8.170005317E-01 -1.278925269E-02 6.390585581E-01
 9.863783394E-01 -4.712041667E-03 6.088265330E-01
 7.498046433E-01 -2.187059028E-02 6.767133205E-01
 6.788483133E-01 -3.174894566E-02 7.180123364E-01
 6.104500356E-01 -4.180876353E-02 7.684651837E-01
 5.453854531E-01 -5.058010903E-02 8.315275486E-01
 4.800391170E-01 -5.940664077E-02 9.131818131E-01
 4.231122118E-01 -6.397069263E-02 9.873057518E-01
 3.633306674E-01 -6.491096575E-02 1.045949225E+00
 3.121373265E-01 -6.507579641E-02 1.008645151E+00
 2.574037995E-01 -6.341221767E-02 9.620022776E-01
 1.961324100E-01 -5.703057297E-02 9.206039028E-01
 1.444865099E-01 -5.173985537E-02 8.868334619E-01
 8.970206268E-02 -4.241435850E-02 8.521590456E-01
 5.101955863E-02 -3.729602893E-02 8.065097554E-01
 1.700134639E-02 -2.131341916E-02 6.977298147E-01
 1.974950860E+00 -9.582333417E-01 7.197832094E-01
 1.975424835E+00 9.583336739E-01 7.186313702E-01
 9.401476086E-01 -3.004623393E-03 5.999690716E-01
 9.323294646E-01 1.860532527E-02 7.295912607E-01