TITLE     = "Visualization of the solution"
VARIABLES = "x"
"y"
"Mach"
ZONE T="Zone"
 STRANDID=0, SOLUTIONTIME=0
 Nodes=11724, Elements=22870, ZONETYPE=FEQuadrilateral
 DATAPACKING=POINT
 DT=(DOUBLE DOUBLE DOUBLE )
 1.000004649E+00 5.258101737E-04 5.740085505E-01
 9.860537052E-01 2.770120511E-03 6.319336012E-01
 9.743967652E-01 4.631533287E-03 6.673805825E-01
 9.620748162E-01 6.597263273E-03 6.897048243E-01
 9.499210119E-01 8.533013985E-03 7.143264485E-01
 9.385008216E-01 1.021911670E-02 7.191453149E-01
 9.284380674E-01 1.179151237E-02 7.420731062E-01
 9.155253172E-01 1.366458274E-02 7.528821873E-01
 9.041308761E-01 1.530011091E-02 7.710328587E-01
 8.911109567E-01 1.703100093E-02 7.809688181E-01
 8.780727386E-01 1.863952912E-02 7.845806898E-01
 8.661413789E-01 2.007690631E-02 7.922274415E-01
 8.534049392E-01 2.154379524E-02 7.984939690E-01
 8.409617543E-01 2.290568687E-02 8.019631321E-01
 8.285838366E-01 2.420021594E-02 8.021554589E-01
 8.149462938E-01 2.560843527E-02 8.053648213E-01
 8.018382788E-01 2.695885114E-02 8.132230101E-01
 7.903138399E-01 2.810477093E-02 8.173801391E-01
 7.773926854E-01 2.934100106E-02 8.180219617E-01
 7.647891045E-01 3.055139072E-02 8.241703974E-01
 7.520571351E-01 3.175945580E-02 8.320490652E-01
 7.380457520E-01 3.302297741E-02 8.348491074E-01
 7.269763350E-01 3.401530161E-02 8.411387994E-01
 7.153472900E-01 3.502102941E-02 8.448165849E-01
 7.033531070E-01 3.604789823E-02 8.521166816E-01
 6.893845797E-01 3.718760237E-02 8.566263568E-01
 6.759164333E-01 3.826356307E-02 8.657104508E-01
 6.652309895E-01 3.907426074E-02 8.704892806E-01
 6.533019543E-01 3.993903473E-02 8.749457964E-01
 6.426957846E-01 4.067811742E-02 8.796414923E-01
 6.305066347E-01 4.149198905E-02 8.859562187E-01
 6.193953156E-01 4.219432548E-02 8.916282780E-01
 6.079674363E-01 4.287157953E-02 8.962069400E-01
 5.951521993E-01 4.358184338E-02 9.027579843E-01
 5.827921629E-01 4.420347139E-02 9.062095551E-01
 5.689774156E-01 4.483402520E-02 9.113537226E-01
 5.558055043E-01 4.537168518E-02 9.158530452E-01
 5.425333381E-01 4.582798854E-02 9.164928821E-01
 5.312165022E-01 4.618248716E-02 9.221770123E-01
 5.189031959E-01 4.649610072E-02 9.222459763E-01
 5.054353476E-01 4.675664753E-02 9.211273573E-01
 4.947260320E-01 4.693112150E-02 9.237426509E-01
 4.814438224E-01 4.706621170E-02 9.212099248E-01
 4.686883688E-01 4.713328183E-02 9.191832715E-01
 4.541391432E-01 4.714480788E-02 9.183655963E-01
 4.395780563E-01 4.706642404E-02 9.150843227E-01
 4.262160063E-01 4.693498835E-02 9.129275938E-01
 4.125230908E-01 4.672049731E-02 9.075621289E-01
 4.002511799E-01 4.648508132E-02 9.045885543E-01
 3.873743117E-01 4.618291557E-02 9.005953180E-01
 3.754483163E-01 4.586286843E-02 8.988108445E-01
 3.646893203E-01 4.553274065E-02 8.948696376E-01
 3.516184092E-01 4.508129507E-02 8.910323752E-01
 3.400657475E-01 4.464811087E-02 8.887026210E-01
 3.282886147E-01 4.414683580E-02 8.825997475E-01
 3.184847832E-01 4.372370243E-02 8.819057956E-01
 3.069663942E-01 4.317170009E-02 8.768495584E-01
 2.945827246E-01 4.255222529E-02 8.744358893E-01
 2.809753716E-01 4.181487858E-02 8.704246790E-01
 2.680221498E-01 4.107191041E-02 8.676358238E-01
 2.559880912E-01 4.033074155E-02 8.629077465E-01
 2.434290648E-01 3.953035176E-02 8.611326782E-01
 2.300849557E-01 3.862227872E-02 8.575478407E-01
 2.181487978E-01 3.776944056E-02 8.548157763E-01
 2.064902931E-01 3.689150140E-02 8.515171012E-01
 1.955139786E-01 3.603396937E-02 8.492524323E-01
 1.830125004E-01 3.500949219E-02 8.466971960E-01
 1.713538766E-01 3.401054442E-02 8.450346428E-01
 1.596086621E-01 3.294923902E-02 8.420716554E-01
 1.478628963E-01 3.184098005E-02 8.405474529E-01
 1.370049268E-01 3.076480143E-02 8.389867014E-01
 1.261226535E-01 2.963073738E-02 8.370020245E-01
 1.147806421E-01 2.838723734E-02 8.357504288E-01
 1.042609066E-01 2.716797963E-02 8.346161461E-01
 9.461291134E-02 2.599030733E-02 8.342070226E-01
 8.366161585E-02 2.456095442E-02 8.328520081E-01
 7.212335616E-02 2.294313535E-02 8.334462779E-01
 6.272864342E-02 2.151797898E-02 8.332217372E-01
 5.355785042E-02 2.000642382E-02 8.332274597E-01
 4.479007050E-02 1.841367781E-02 8.344059767E-01
 3.708633035E-02 1.687176153E-02 8.360233239E-01
 3.061140329E-02 1.541792601E-02 8.364353863E-01
 2.506889962E-02 1.403354481E-02 8.379188922E-01
 2.100015432E-02 1.289815269E-02 8.369025487E-01
 1.728177071E-02 1.174483541E-02 8.334789997E-01
 1.475696638E-02 1.087761018E-02 8.302120090E-01
 1.258069463E-02 1.005690638E-02 8.268683680E-01
 1.098225918E-02 9.406669065E-03 8.233864172E-01
 9.421603754E-03 8.711743169E-03 8.133245483E-01
 7.916836999E-03 7.985336706E-03 7.943537668E-01
 5.928264000E-03 6.896360312E-03 7.686258325E-01
 4.221242853E-03 5.799646955E-03 7.338581422E-01
 2.689112676E-03 4.604765680E-03 6.696158494E-01
 1.153351041E-03 3.047335893E-03 5.759202621E-01
 2.309531701E-04 1.734286081E-03 4.879983557E-01
 -2.896426013E-04 6.722560502E-04 3.838605871E-01
 -6.853866507E-04 -7.569233421E-04 2.400024812E-01
 -7.395501016E-04 -2.675876487E-03 7.162290244E-02
 -2.354585595E-04 -4.749923479E-03 8.635188198E-02
 9.548770031E-04 -7.104535587E-03 2.385412129E-01
 2.861465560E-03 -9.585037827E-03 3.514126073E-01
 4.675390664E-03 -1.141645573E-02 4.231480080E-01
 6.908400916E-03 -1.331857685E-02 4.807972924E-01
 8.465666324E-03 -1.449322607E-02 5.222783156E-01
 1.040873956E-02 -1.583516039E-02 5.545386784E-01
 1.277793944E-02 -1.732371189E-02 5.892018124E-01
 1.592459530E-02 -1.911816932E-02 6.229999943E-01
 1.924975403E-02 -2.083664201E-02 6.556351445E-01
 2.339990623E-02 -2.277801745E-02 6.839021077E-01
 2.894654498E-02 -2.512509935E-02 7.132994162E-01
 3.456555307E-02 -2.726540342E-02 7.397818381E-01
 4.202249646E-02 -2.982984297E-02 7.625575245E-01
 4.955862835E-02 -3.216736019E-02 7.827025686E-01
 5.823388696E-02 -3.461774066E-02 7.995091817E-01
 6.689406186E-02 -3.684667125E-02 8.141734861E-01
 7.747367769E-02 -3.935636953E-02 8.299985609E-01
 8.740172535E-02 -4.150959477E-02 8.415536490E-01
 9.827179462E-02 -4.369967803E-02 8.528680958E-01
 1.092143208E-01 -4.575045779E-02 8.644873565E-01
 1.212926880E-01 -4.783961922E-02 8.721404603E-01
 1.325442344E-01 -4.966963828E-02 8.833582058E-01
 1.430196762E-01 -5.126375705E-02 8.926177485E-01
 1.539367139E-01 -5.282144621E-02 8.995940403E-01
 1.654624045E-01 -5.436805263E-02 9.084846939E-01
 1.767985970E-01 -5.579429865E-02 9.179200682E-01
 1.883769035E-01 -5.715405568E-02 9.265736484E-01
 1.985385418E-01 -5.826966465E-02 9.346174472E-01
 2.094829082E-01 -5.939967185E-02 9.430130529E-01
 2.216205895E-01 -6.056219339E-02 9.532450536E-01
 2.336475551E-01 -6.161847711E-02 9.643318916E-01
 2.455600202E-01 -6.256904453E-02 9.740985684E-01
 2.581884265E-01 -6.347490102E-02 9.845618237E-01
 2.696423531E-01 -6.420581788E-02 9.963029022E-01
 2.823883891E-01 -6.491446495E-02 1.005274671E+00
 2.951879203E-01 -6.551459432E-02 1.015878992E+00
 3.079486191E-01 -6.600731611E-02 1.032377695E+00
 3.193618655E-01 -6.633266062E-02 1.048326202E+00
 3.312731087E-01 -6.656509638E-02 1.058974750E+00
 3.414425552E-01 -6.667650491E-02 1.074026864E+00
 3.526415229E-01 -6.669218093E-02 1.083455298E+00
 3.639492393E-01 -6.661992520E-02 1.094165027E+00
 3.745849729E-01 -6.644655764E-02 1.101388130E+00
 3.860319853E-01 -6.617473066E-02 1.116123281E+00
 3.978768587E-01 -6.572439522E-02 1.123691636E+00
 4.098846614E-01 -6.518186629E-02 1.138150212E+00
 4.231065512E-01 -6.439097971E-02 1.158367388E+00
 4.358072877E-01 -6.352510303E-02 1.018744211E+00
 4.496032596E-01 -6.242821366E-02 9.271378191E-01
 4.626692235E-01 -6.123115867E-02 9.470699052E-01
 4.755945504E-01 -5.995712429E-02 9.442228633E-01
 4.874212444E-01 -5.864881352E-02 9.229918716E-01
 4.994609654E-01 -5.724908784E-02 9.054172983E-01
 5.129045248E-01 -5.561619997E-02 8.947562972E-01
 5.266858339E-01 -5.380049720E-02 8.729762528E-01
 5.399296880E-01 -5.200304091E-02 8.572055042E-01
 5.547761917E-01 -4.991334677E-02 8.401171800E-01
 5.672871470E-01 -4.812134802E-02 8.292940972E-01
 5.809043646E-01 -4.611224309E-02 8.157132006E-01
 5.935851932E-01 -4.419180378E-02 8.012789275E-01
 6.060431004E-01 -4.230296612E-02 7.917208063E-01
 6.183468103E-01 -4.038070887E-02 7.753784071E-01
 6.325562000E-01 -3.823693469E-02 7.711025500E-01
 6.453080177E-01 -3.624763340E-02 7.583606720E-01
 6.592060328E-01 -3.408548608E-02 7.475471287E-01
 6.730920672E-01 -3.194645047E-02 7.396297460E-01
 6.858177781E-01 -2.997830324E-02 7.314218532E-01
 6.982488036E-01 -2.803226560E-02 7.195821919E-01
 7.131660581E-01 -2.573565580E-02 7.092533598E-01
 7.266517282E-01 -2.374004386E-02 7.064902315E-01
 7.380132079E-01 -2.202281542E-02 6.979971986E-01
 7.494961023E-01 -2.026313357E-02 6.849789465E-01
 7.628736496E-01 -1.832168922E-02 6.799052062E-01
 7.758511901E-01 -1.646577567E-02 6.722352404E-01
 7.879269123E-01 -1.477845944E-02 6.658785063E-01
 8.004258275E-01 -1.307505835E-02 6.605362763E-01
 8.112981319E-01 -1.157145202E-02 6.480173384E-01
 8.227266669E-01 -1.011415105E-02 6.450749508E-01
 8.346711397E-01 -8.630254306E-03 6.387427813E-01
 8.463726640E-01 -7.204624359E-03 6.289156300E-01
 8.583848476E-01 -5.866582040E-03 6.241453403E-01
 8.702610135E-01 -4.628954455E-03 6.183644362E-01
 8.822426200E-01 -3.474337049E-03 6.123666784E-01
 8.951178193E-01 -2.376130549E-03 6.071792334E-01
 9.052214622E-01 -1.636424684E-03 6.052149319E-01
 9.151526690E-01 -1.000243239E-03 6.039930933E-01
 9.247143865E-01 -4.819806491E-04 6.026681152E-01
 9.344723821E-01 -6.018869317E-05 6.034972145E-01
 9.479134083E-01 3.724884009E-04 6.055474934E-01
 9.624943137E-01 6.494736299E-04 6.088003255E-01
 9.772281051E-01 7.381425239E-04 6.130842674E-01
 9.903740287E-01 6.581734633E-04 6.243915255E-01
 -5.000000000E-01 -1.000000000E+00 7.248161947E-01
 3.500000000E+00 -1.000000000E+00 7.249717290E-01
 3.500000000E+00 1.000000000E+00 7.224748717E-01
 -5.000000000E-01 1.000000000E+00 7.248681248E-01
 9.930291772E-01 1.647965342E-03 6.166139362E-01
 9.802252352E-01 3.700826899E-03 6.495725893E-01
 9.682357907E-01 5.614398280E-03 6.774813067E-01
 9.559979141E-01 7.565138629E-03 7.029737265E-01
 9.442109168E-01 9.376065340E-03 7.160241032E-01
 9.334694445E-01 1.100531453E-02 7.314636210E-01
 9.219816923E-01 1.272804756E-02 7.469432096E-01
 9.098280966E-01 1.448234683E-02 7.626027734E-01
 8.976209164E-01 1.616555592E-02 7.766515096E-01
 8.845918477E-01 1.783526503E-02 7.825417300E-01
 8.721070588E-01 1.935821772E-02 7.885591079E-01
 8.597731590E-01 2.081035078E-02 7.955135440E-01
 8.471833467E-01 2.222474106E-02 8.007203177E-01
 8.347727954E-01 2.355295140E-02 8.019504745E-01
 8.217650652E-01 2.490432560E-02 8.031627171E-01
 8.083922863E-01 2.628364321E-02 8.093621041E-01
 7.960760593E-01 2.753181104E-02 8.159554573E-01
 7.838532627E-01 2.872288600E-02 8.172819363E-01
 7.710908949E-01 2.994619589E-02 8.205965146E-01
 7.584231198E-01 3.115542326E-02 8.288419053E-01
 7.450514436E-01 3.239121661E-02 8.329460550E-01
 7.325110435E-01 3.351913951E-02 8.384227898E-01
 7.211618125E-01 3.451816551E-02 8.424729263E-01
 7.093501985E-01 3.553446382E-02 8.489566536E-01
 6.963688433E-01 3.661775030E-02 8.538332395E-01
 6.826505065E-01 3.772558272E-02 8.612306072E-01
 6.705737114E-01 3.866891190E-02 8.685688436E-01
 6.592664719E-01 3.950664774E-02 8.725046255E-01
 6.479988694E-01 4.030857608E-02 8.773033101E-01
 6.366012096E-01 4.108505324E-02 8.826631062E-01
 6.249509752E-01 4.184315726E-02 8.890183048E-01
 6.136813760E-01 4.253295250E-02 8.938464010E-01
 6.015598178E-01 4.322671145E-02 8.995684487E-01
 5.889721811E-01 4.389265738E-02 9.047290511E-01
 5.758847892E-01 4.451874830E-02 9.083026083E-01
 5.623914599E-01 4.510285519E-02 9.145285295E-01
 5.491694212E-01 4.559983686E-02 9.152543131E-01
 5.368749201E-01 4.600523785E-02 9.197964625E-01
 5.250598490E-01 4.633929394E-02 9.231032693E-01
 5.121692717E-01 4.662637413E-02 9.204575160E-01
 5.000806898E-01 4.684388451E-02 9.235689769E-01
 4.880849272E-01 4.699866660E-02 9.223492875E-01
 4.750660956E-01 4.709974676E-02 9.200569149E-01
 4.614137560E-01 4.713904485E-02 9.191732803E-01
 4.468585998E-01 4.710561596E-02 9.163083874E-01
 4.328970313E-01 4.700070620E-02 9.146825256E-01
 4.193695486E-01 4.682774283E-02 9.097321847E-01
 4.063871354E-01 4.660278931E-02 9.064274943E-01
 3.938127458E-01 4.633399844E-02 9.022197751E-01
 3.814113140E-01 4.602289200E-02 8.996457572E-01
 3.700688183E-01 4.569780454E-02 8.974148787E-01
 3.581538647E-01 4.530701786E-02 8.922209409E-01
 3.458420783E-01 4.486470297E-02 8.907467209E-01
 3.341771811E-01 4.439747334E-02 8.845989605E-01
 3.127255887E-01 4.344770126E-02 8.793619138E-01
 3.007745594E-01 4.286196269E-02 8.760367533E-01
 2.877790481E-01 4.218355194E-02 8.721515229E-01
 2.744987607E-01 4.144339450E-02 8.692621727E-01
 2.620051205E-01 4.070132598E-02 8.649486357E-01
 2.497085780E-01 3.993054666E-02 8.622682888E-01
 2.367570102E-01 3.907631524E-02 8.591021107E-01
 2.241168767E-01 3.819585964E-02 8.563314532E-01
 2.123195454E-01 3.733047098E-02 8.528996221E-01
 2.010021359E-01 3.646273538E-02 8.506609150E-01
 1.892632395E-01 3.552173078E-02 8.476953961E-01
 1.771831885E-01 3.451001830E-02 8.460850478E-01
 1.654812694E-01 3.347989172E-02 8.434446935E-01
 1.537357792E-01 3.239510953E-02 8.412025437E-01
 1.424339116E-01 3.130289074E-02 8.398252937E-01
 1.315637901E-01 3.019776940E-02 8.380793859E-01
 1.204516478E-01 2.900898736E-02 8.362278466E-01
 1.095207743E-01 2.777760848E-02 8.352122832E-01
 8.913726360E-02 2.527563088E-02 8.337594723E-01
 7.789248601E-02 2.375204489E-02 8.329332701E-01
 7.218386978E-02 -3.810152039E-02 8.232196016E-01
 8.243770152E-02 -4.043298215E-02 8.364344375E-01
 9.283675998E-02 -4.260463640E-02 8.469844497E-01
 1.037430577E-01 -4.472506791E-02 8.589604424E-01
 1.152535044E-01 -4.679503851E-02 8.683190292E-01
 1.269184612E-01 -4.875462875E-02 8.775720373E-01
 1.377819553E-01 -5.046669766E-02 8.885532011E-01
 1.484781951E-01 -5.204260163E-02 8.962058552E-01
 1.596995592E-01 -5.359474942E-02 9.036308981E-01
 1.711305007E-01 -5.508117564E-02 9.134778403E-01
 1.825877503E-01 -5.647417717E-02 9.220101799E-01
 1.934577227E-01 -5.771186016E-02 9.311517066E-01
 2.040107250E-01 -5.883466825E-02 9.384217208E-01
 2.155517489E-01 -5.998093262E-02 9.477619273E-01
 2.276340723E-01 -6.109033525E-02 9.588808234E-01
 2.396037877E-01 -6.209376082E-02 9.694403455E-01
 2.518742234E-01 -6.302197278E-02 9.787767761E-01
 2.639153898E-01 -6.384035945E-02 9.910486622E-01
 2.760153711E-01 -6.456014141E-02 1.000599427E+00
 2.887881547E-01 -6.521452963E-02 1.010250829E+00
 3.015682697E-01 -6.576095521E-02 1.023136468E+00
 3.136552423E-01 -6.616998836E-02 1.041522985E+00
 3.253174871E-01 -6.644887850E-02 1.053493294E+00
 3.363578320E-01 -6.662080064E-02 1.066368052E+00
 3.470420390E-01 -6.668434292E-02 1.079618212E+00
 3.582953811E-01 -6.665605307E-02 1.087852532E+00
 3.692671061E-01 -6.653324142E-02 1.099340934E+00
 3.803084791E-01 -6.631064415E-02 1.105959348E+00
 3.919544220E-01 -6.594956294E-02 1.123321027E+00
 4.038807601E-01 -6.545313075E-02 1.125074228E+00
 4.164956063E-01 -6.478642300E-02 1.154840901E+00
 4.294569194E-01 -6.395804137E-02 1.119911963E+00
 4.427052736E-01 -6.297665834E-02 9.411697299E-01
 4.561362416E-01 -6.182968616E-02 9.392242886E-01
 4.691318870E-01 -6.059414148E-02 9.474869244E-01
 4.815078974E-01 -5.930296890E-02 9.355219125E-01
 4.934411049E-01 -5.794895068E-02 9.129444144E-01
 5.061827451E-01 -5.643264391E-02 8.999557271E-01
 5.197951794E-01 -5.470834859E-02 8.849881117E-01
 5.333077610E-01 -5.290176906E-02 8.643782853E-01
 5.473529398E-01 -5.095819384E-02 8.485267448E-01
 5.610316694E-01 -4.901734740E-02 8.343916630E-01
 5.740957558E-01 -4.711679555E-02 8.227542015E-01
 5.872447789E-01 -4.515202343E-02 8.085406956E-01
 5.998141468E-01 -4.324738495E-02 7.961129602E-01
 6.121949553E-01 -4.134183750E-02 7.839231299E-01
 6.254515052E-01 -3.930882178E-02 7.724083357E-01
 6.389321089E-01 -3.724228404E-02 7.656513563E-01
 6.522570252E-01 -3.516655974E-02 7.526021852E-01
 6.661490500E-01 -3.301596828E-02 7.433304491E-01
 6.794549227E-01 -3.096237686E-02 7.357006145E-01
 6.920332909E-01 -2.900528442E-02 7.256941723E-01
 7.057074308E-01 -2.688396070E-02 7.142287059E-01
 7.199088931E-01 -2.473784983E-02 7.071951634E-01
 7.323324680E-01 -2.288142964E-02 7.029326743E-01
 7.437546551E-01 -2.114297450E-02 6.915203447E-01
 7.561848760E-01 -1.929241139E-02 6.821657478E-01
 7.693624198E-01 -1.739373244E-02 6.761218613E-01
 7.818890512E-01 -1.562211756E-02 6.689299724E-01
 7.941763699E-01 -1.392675890E-02 6.633568183E-01
 8.058619797E-01 -1.232325519E-02 6.544907401E-01
 8.170123994E-01 -1.084280154E-02 6.461410353E-01
 8.286989033E-01 -9.372202680E-03 6.423259758E-01
 8.405219018E-01 -7.917439332E-03 6.338389160E-01
 8.523787558E-01 -6.535603199E-03 6.262519903E-01
 8.643229306E-01 -5.247768248E-03 6.212265703E-01
 8.762518167E-01 -4.051645752E-03 6.154177840E-01
 8.886802197E-01 -2.925233799E-03 6.100186546E-01
 9.001696408E-01 -2.006277617E-03 6.054781569E-01
 9.411928952E-01 1.561498539E-04 6.046763928E-01
 9.552038610E-01 5.109810154E-04 6.072080785E-01
 9.698612094E-01 6.938080769E-04 6.107645238E-01
 9.838010669E-01 6.981579936E-04 6.151427745E-01
 -5.000000000E-01 9.500000000E-01 7.228780084E-01
 -5.000000000E-01 9.000000000E-01 7.197616769E-01
 -5.000000000E-01 8.500000000E-01 7.173687238E-01
 -5.000000000E-01 8.000000000E-01 7.152761322E-01
 -5.000000000E-01 7.500000000E-01 7.132593693E-01
 -5.000000000E-01 7.000000000E-01 7.113471061E-01
 -5.000000000E-01 6.500000000E-01 7.093940514E-01
 -5.000000000E-01 6.000000000E-01 7.073976014E-01
 -5.000000000E-01 5.500000000E-01 7.053403758E-01
 -5.000000000E-01 5.000000000E-01 7.032513651E-01
 -5.000000000E-01 4.500000000E-01 7.011362300E-01
 -5.000000000E-01 4.000000000E-01 6.990012616E-01
 -5.000000000E-01 3.500000000E-01 6.969032541E-01
 -5.000000000E-01 3.000000000E-01 6.948792133E-01
 -5.000000000E-01 2.500000000E-01 6.929909045E-01
 -5.000000000E-01 2.000000000E-01 6.912684297E-01
 -5.000000000E-01 1.500000000E-01 6.898104345E-01
 -5.000000000E-01 1.000000000E-01 6.886912878E-01
 -5.000000000E-01 5.000000000E-02 6.879442233E-01
 -5.000000000E-01 2.752242878E-12 6.876261708E-01
 -5.000000000E-01 -5.000000000E-02 6.877257387E-01
 -5.000000000E-01 -1.000000000E-01 6.882448046E-01
 -5.000000000E-01 -1.500000000E-01 6.891992565E-01
 -5.000000000E-01 -2.000000000E-01 6.905204068E-01
 -5.000000000E-01 -2.500000000E-01 6.921185560E-01
 -5.000000000E-01 -3.000000000E-01 6.939649799E-01
 -5.000000000E-01 -3.500000000E-01 6.959967702E-01
 -5.000000000E-01 -4.000000000E-01 6.981286361E-01
 -5.000000000E-01 -4.500000000E-01 7.003280358E-01
 -5.000000000E-01 -5.000000000E-01 7.025386520E-01
 -5.000000000E-01 -5.500000000E-01 7.047064646E-01
 -5.000000000E-01 -6.000000000E-01 7.068514553E-01
 -5.000000000E-01 -6.500000000E-01 7.089529432E-01
 -5.000000000E-01 -7.000000000E-01 7.110089771E-01
 -5.000000000E-01 -7.500000000E-01 7.130217418E-01
 -5.000000000E-01 -8.000000000E-01 7.150685467E-01
 -5.000000000E-01 -8.500000000E-01 7.172095694E-01
 -5.000000000E-01 -9.000000000E-01 7.196517602E-01
 -5.000000000E-01 -9.500000000E-01 7.228113110E-01
 -4.500000000E-01 -1.000000000E+00 7.226964213E-01
 -4.000000000E-01 -1.000000000E+00 7.196538922E-01
 -3.500000000E-01 -1.000000000E+00 7.177889069E-01
 -3.000000000E-01 -1.000000000E+00 7.166668315E-01
 -2.500000000E-01 -1.000000000E+00 7.160825490E-01
 -2.000000000E-01 -1.000000000E+00 7.161179806E-01
 -1.500000000E-01 -1.000000000E+00 7.167777835E-01
 -1.000000000E-01 -1.000000000E+00 7.180769718E-01
 -5.000000000E-02 -1.000000000E+00 7.200084746E-01
 -9.424683256E-13 -1.000000000E+00 7.225462324E-01
 5.000000000E-02 -1.000000000E+00 7.257153331E-01
 1.000000000E-01 -1.000000000E+00 7.295105954E-01
 1.500000000E-01 -1.000000000E+00 7.337176278E-01
 2.000000000E-01 -1.000000000E+00 7.379332948E-01
 2.500000000E-01 -1.000000000E+00 7.422527695E-01
 3.000000000E-01 -1.000000000E+00 7.461059776E-01
 3.500000000E-01 -1.000000000E+00 7.494306639E-01
 4.000000000E-01 -1.000000000E+00 7.521223295E-01
 4.500000000E-01 -1.000000000E+00 7.539296377E-01
 5.000000000E-01 -1.000000000E+00 7.549203273E-01
 5.500000000E-01 -1.000000000E+00 7.552651553E-01
 6.000000000E-01 -1.000000000E+00 7.535577378E-01
 6.500000000E-01 -1.000000000E+00 7.517490459E-01
 7.000000000E-01 -1.000000000E+00 7.492348475E-01
 7.500000000E-01 -1.000000000E+00 7.465404125E-01
 8.000000000E-01 -1.000000000E+00 7.442312221E-01
 8.500000000E-01 -1.000000000E+00 7.416278096E-01
 9.000000000E-01 -1.000000000E+00 7.387701440E-01
 9.500000000E-01 -1.000000000E+00 7.355436730E-01
 1.000000000E+00 -1.000000000E+00 7.328142075E-01
 1.050000000E+00 -1.000000000E+00 7.303922173E-01
 1.100000000E+00 -1.000000000E+00 7.280994859E-01
 1.150000000E+00 -1.000000000E+00 7.259305035E-01
 1.200000000E+00 -1.000000000E+00 7.241546674E-01
 1.250000000E+00 -1.000000000E+00 7.221591074E-01
 1.300000000E+00 -1.000000000E+00 7.206388967E-01
 1.350000000E+00 -1.000000000E+00 7.196411897E-01
 1.400000000E+00 -1.000000000E+00 7.188611010E-01
 1.450000000E+00 -1.000000000E+00 7.181197303E-01
 1.500000000E+00 -1.000000000E+00 7.176253758E-01
 1.550000000E+00 -1.000000000E+00 7.171061487E-01
 1.600000000E+00 -1.000000000E+00 7.166248938E-01
 1.650000000E+00 -1.000000000E+00 7.164183717E-01
 1.700000000E+00 -1.000000000E+00 7.164134173E-01
 1.750000000E+00 -1.000000000E+00 7.163736960E-01
 1.800000000E+00 -1.000000000E+00 7.163984016E-01
 1.850000000E+00 -1.000000000E+00 7.164500093E-01
 1.900000000E+00 -1.000000000E+00 7.165614190E-01
 1.950000000E+00 -1.000000000E+00 7.166043499E-01
 2.000000000E+00 -1.000000000E+00 7.165079805E-01
 2.050000000E+00 -1.000000000E+00 7.165681106E-01
 2.100000000E+00 -1.000000000E+00 7.168847863E-01
 2.150000000E+00 -1.000000000E+00 7.170416783E-01
 2.200000000E+00 -1.000000000E+00 7.171991037E-01
 2.250000000E+00 -1.000000000E+00 7.174535192E-01
 2.300000000E+00 -1.000000000E+00 7.173391050E-01
 2.350000000E+00 -1.000000000E+00 7.174316877E-01
 2.400000000E+00 -1.000000000E+00 7.175441293E-01
 2.450000000E+00 -1.000000000E+00 7.176969620E-01
 2.500000000E+00 -1.000000000E+00 7.178122417E-01
 2.550000000E+00 -1.000000000E+00 7.180639882E-01
 2.600000000E+00 -1.000000000E+00 7.180915573E-01
 2.650000000E+00 -1.000000000E+00 7.180373609E-01
 2.700000000E+00 -1.000000000E+00 7.181627992E-01
 2.750000000E+00 -1.000000000E+00 7.183173732E-01
 2.800000000E+00 -1.000000000E+00 7.185987366E-01
 2.850000000E+00 -1.000000000E+00 7.184896483E-01
 2.900000000E+00 -1.000000000E+00 7.185418199E-01
 2.950000000E+00 -1.000000000E+00 7.186041426E-01
 3.000000000E+00 -1.000000000E+00 7.186646221E-01
 3.050000000E+00 -1.000000000E+00 7.189311685E-01
 3.100000000E+00 -1.000000000E+00 7.190068289E-01
 3.150000000E+00 -1.000000000E+00 7.189699136E-01
 3.200000000E+00 -1.000000000E+00 7.189106030E-01
 3.250000000E+00 -1.000000000E+00 7.189236500E-01
 3.300000000E+00 -1.000000000E+00 7.190553429E-01
 3.350000000E+00 -1.000000000E+00 7.193252427E-01
 3.400000000E+00 -1.000000000E+00 7.197192010E-01
 3.450000000E+00 -1.000000000E+00 7.212047943E-01
 3.500000000E+00 -9.500000000E-01 7.276289275E-01
 3.500000000E+00 -9.000000000E-01 7.293830894E-01
 3.500000000E+00 -8.500000000E-01 7.305255838E-01
 3.500000000E+00 -8.000000000E-01 7.310800169E-01
 3.500000000E+00 -7.500000000E-01 7.312309083E-01
 3.500000000E+00 -7.000000000E-01 7.312787763E-01
 3.500000000E+00 -6.500000000E-01 7.313944694E-01
 3.500000000E+00 -6.000000000E-01 7.316266163E-01
 3.500000000E+00 -5.500000000E-01 7.319334136E-01
 3.500000000E+00 -5.000000000E-01 7.322523213E-01
 3.500000000E+00 -4.500000000E-01 7.325535853E-01
 3.500000000E+00 -4.000000000E-01 7.328423811E-01
 3.500000000E+00 -3.500000000E-01 7.331381009E-01
 3.500000000E+00 -3.000000000E-01 7.334436983E-01
 3.500000000E+00 -2.500000000E-01 7.337488328E-01
 3.500000000E+00 -2.000000000E-01 7.339922355E-01
 3.500000000E+00 -1.500000000E-01 7.341096951E-01
 3.500000000E+00 -1.000000000E-01 7.341299488E-01
 3.500000000E+00 -5.000000000E-02 7.341489781E-01
 3.500000000E+00 -2.752242878E-12 7.341608130E-01
 3.500000000E+00 5.000000000E-02 7.341562225E-01
 3.500000000E+00 1.000000000E-01 7.341017525E-01
 3.500000000E+00 1.500000000E-01 7.339725228E-01
 3.500000000E+00 2.000000000E-01 7.337601708E-01
 3.500000000E+00 2.500000000E-01 7.334826613E-01
 3.500000000E+00 3.000000000E-01 7.331784972E-01
 3.500000000E+00 3.500000000E-01 7.328813884E-01
 3.500000000E+00 4.000000000E-01 7.326091111E-01
 3.500000000E+00 4.500000000E-01 7.323330649E-01
 3.500000000E+00 5.000000000E-01 7.320377783E-01
 3.500000000E+00 5.500000000E-01 7.317302335E-01
 3.500000000E+00 6.000000000E-01 7.314498468E-01
 3.500000000E+00 6.500000000E-01 7.312762239E-01
 3.500000000E+00 7.000000000E-01 7.312467430E-01
 3.500000000E+00 7.500000000E-01 7.312942159E-01
 3.500000000E+00 8.000000000E-01 7.311432288E-01
 3.500000000E+00 8.500000000E-01 7.303377978E-01
 3.500000000E+00 9.000000000E-01 7.286414015E-01
 3.500000000E+00 9.500000000E-01 7.260671668E-01
 3.450000000E+00 1.000000000E+00 7.176351264E-01
 3.400000000E+00 1.000000000E+00 7.159319886E-01
 3.350000000E+00 1.000000000E+00 7.156511780E-01
 3.300000000E+00 1.000000000E+00 7.155154323E-01
 3.250000000E+00 1.000000000E+00 7.155702808E-01
 3.200000000E+00 1.000000000E+00 7.155696660E-01
 3.150000000E+00 1.000000000E+00 7.154268084E-01
 3.100000000E+00 1.000000000E+00 7.154860890E-01
 3.050000000E+00 1.000000000E+00 7.161222603E-01
 3.000000000E+00 1.000000000E+00 7.163565767E-01
 2.950000000E+00 1.000000000E+00 7.165971229E-01
 2.900000000E+00 1.000000000E+00 7.166250817E-01
 2.850000000E+00 1.000000000E+00 7.167240275E-01
 2.800000000E+00 1.000000000E+00 7.168586700E-01
 2.750000000E+00 1.000000000E+00 7.171450853E-01
 2.700000000E+00 1.000000000E+00 7.172683871E-01
 2.650000000E+00 1.000000000E+00 7.174830118E-01
 2.600000000E+00 1.000000000E+00 7.177529827E-01
 2.550000000E+00 1.000000000E+00 7.179571354E-01
 2.500000000E+00 1.000000000E+00 7.180644960E-01
 2.450000000E+00 1.000000000E+00 7.182294526E-01
 2.400000000E+00 1.000000000E+00 7.182666655E-01
 2.350000000E+00 1.000000000E+00 7.184646079E-01
 2.300000000E+00 1.000000000E+00 7.191441386E-01
 2.250000000E+00 1.000000000E+00 7.191701426E-01
 2.200000000E+00 1.000000000E+00 7.194793510E-01
 2.150000000E+00 1.000000000E+00 7.197806573E-01
 2.100000000E+00 1.000000000E+00 7.201642003E-01
 2.050000000E+00 1.000000000E+00 7.204996655E-01
 2.000000000E+00 1.000000000E+00 7.206379580E-01
 1.950000000E+00 1.000000000E+00 7.209581439E-01
 1.900000000E+00 1.000000000E+00 7.214959856E-01
 1.850000000E+00 1.000000000E+00 7.218912709E-01
 1.800000000E+00 1.000000000E+00 7.225054312E-01
 1.750000000E+00 1.000000000E+00 7.231692993E-01
 1.700000000E+00 1.000000000E+00 7.238639645E-01
 1.650000000E+00 1.000000000E+00 7.245478656E-01
 1.600000000E+00 1.000000000E+00 7.253622622E-01
 1.550000000E+00 1.000000000E+00 7.263816498E-01
 1.500000000E+00 1.000000000E+00 7.275030889E-01
 1.450000000E+00 1.000000000E+00 7.285291215E-01
 1.400000000E+00 1.000000000E+00 7.300493908E-01
 1.350000000E+00 1.000000000E+00 7.315635997E-01
 1.300000000E+00 1.000000000E+00 7.331288316E-01
 1.250000000E+00 1.000000000E+00 7.352722396E-01
 1.200000000E+00 1.000000000E+00 7.371757801E-01
 1.150000000E+00 1.000000000E+00 7.392424232E-01
 1.100000000E+00 1.000000000E+00 7.410309148E-01
 1.050000000E+00 1.000000000E+00 7.435485194E-01
 1.000000000E+00 1.000000000E+00 7.459573889E-01
 9.500000000E-01 1.000000000E+00 7.478683406E-01
 9.000000000E-01 1.000000000E+00 7.494573296E-01
 8.500000000E-01 1.000000000E+00 7.518081265E-01
 8.000000000E-01 1.000000000E+00 7.536704020E-01
 7.500000000E-01 1.000000000E+00 7.556615018E-01
 7.000000000E-01 1.000000000E+00 7.562976725E-01
 6.500000000E-01 1.000000000E+00 7.553720494E-01
 6.000000000E-01 1.000000000E+00 7.548326344E-01
 5.500000000E-01 1.000000000E+00 7.536864365E-01
 5.000000000E-01 1.000000000E+00 7.519186342E-01
 4.500000000E-01 1.000000000E+00 7.496848444E-01
 4.000000000E-01 1.000000000E+00 7.467497226E-01
 3.500000000E-01 1.000000000E+00 7.434261765E-01
 3.000000000E-01 1.000000000E+00 7.398546922E-01
 2.500000000E-01 1.000000000E+00 7.361133081E-01
 2.000000000E-01 1.000000000E+00 7.323549217E-01
 1.500000000E-01 1.000000000E+00 7.287039826E-01
 1.000000000E-01 1.000000000E+00 7.254705815E-01
 5.000000000E-02 1.000000000E+00 7.225541941E-01
 1.733724275E-12 1.000000000E+00 7.200918044E-01
 -5.000000000E-02 1.000000000E+00 7.182359327E-01
 -1.000000000E-01 1.000000000E+00 7.168696435E-01
 -1.500000000E-01 1.000000000E+00 7.159877611E-01
 -2.000000000E-01 1.000000000E+00 7.156335773E-01
 -2.500000000E-01 1.000000000E+00 7.158052065E-01
 -3.000000000E-01 1.000000000E+00 7.165177415E-01
 -3.500000000E-01 1.000000000E+00 7.177454593E-01
 -4.000000000E-01 1.000000000E+00 7.197395669E-01
 -4.500000000E-01 1.000000000E+00 7.227442252E-01
 8.922337159E-01 -7.320578842E-03 6.119979054E-01
 8.095931236E-01 -1.620426867E-02 6.528001907E-01
 7.418538451E-01 -2.643520639E-02 6.953594787E-01
 9.800907120E-01 -5.200931164E-03 6.188486913E-01
 6.772971044E-01 -3.706017241E-02 7.378763315E-01
 6.098934288E-01 -4.684730509E-02 7.880655516E-01
 5.440469244E-01 -5.732064324E-02 8.522746282E-01
 4.800732065E-01 -6.532887551E-02 9.337380679E-01
 4.268262492E-01 -6.964503581E-02 1.139641420E+00
 3.666641110E-01 -7.157112316E-02 1.090841310E+00
 3.108279145E-01 -7.102474340E-02 1.032971344E+00
 2.549095470E-01 -6.839180738E-02 9.782636079E-01
 1.957918039E-01 -6.261241564E-02 9.303099744E-01
 1.450876347E-01 -5.628789560E-02 8.909342605E-01
 1.001141501E-01 -4.893133278E-02 8.506149858E-01
 6.101204564E-02 -4.176199202E-02 7.949226882E-01
 2.378666198E-02 -2.768534445E-02 6.755109593E-01
 1.977979485E+00 -9.564429771E-01 7.210402068E-01
 8.499426073E-01 -1.191635371E-02 6.305929048E-01
 1.974344184E+00 9.552496169E-01 7.273238276E-01
 9.366660004E-01 1.496951598E-02 7.258654504E-01
 8.820349650E-01 2.325088043E-02 7.823202499E-01