TITLE     = "Visualization of the solution"
VARIABLES = "x"
"y"
"Mach"
ZONE T="Zone"
 STRANDID=0, SOLUTIONTIME=0
 Nodes=12069, Elements=23558, ZONETYPE=FEQuadrilateral
 DATAPACKING=POINT
 DT=(DOUBLE DOUBLE DOUBLE )
 1.000117898E+00 5.210215459E-04 5.379558981E-01
 9.866257310E-01 3.114116145E-03 6.526714896E-01
 9.743009806E-01 5.432383623E-03 6.784527144E-01
 9.598236084E-01 8.190818131E-03 7.029369328E-01
 9.462140203E-01 1.076248288E-02 7.248188663E-01
 9.337207675E-01 1.304924581E-02 7.356519996E-01
 9.228339195E-01 1.508607995E-02 7.576017048E-01
 9.105379581E-01 1.725115813E-02 7.638528214E-01
 8.993502855E-01 1.927037165E-02 7.872593798E-01
 8.869356513E-01 2.133940719E-02 7.925416768E-01
 8.745984435E-01 2.335554734E-02 8.015324310E-01
 8.626942635E-01 2.527625673E-02 8.158230157E-01
 8.502011299E-01 2.718803659E-02 8.237706688E-01
 8.381696939E-01 2.893079072E-02 8.233339062E-01
 8.262456059E-01 3.066177666E-02 8.319840786E-01
 8.131098747E-01 3.251471743E-02 8.395848527E-01
 7.998645306E-01 3.432225063E-02 8.442789159E-01
 7.876501679E-01 3.595868126E-02 8.498910946E-01
 7.750536799E-01 3.762267157E-02 8.582010160E-01
 7.630387545E-01 3.917299956E-02 8.655088286E-01
 7.499700189E-01 4.080319777E-02 8.701768654E-01
 7.360878587E-01 4.250745475E-02 8.783667918E-01
 7.250250578E-01 4.382821172E-02 8.845034594E-01
 7.137984037E-01 4.515884817E-02 8.954043674E-01
 7.018245459E-01 4.650774226E-02 8.994907064E-01
 6.883157492E-01 4.800710455E-02 9.103044210E-01
 6.750444770E-01 4.940087721E-02 9.152672716E-01
 6.645042300E-01 5.049304292E-02 9.255209034E-01
 6.526638865E-01 5.166073516E-02 9.328256903E-01
 6.413892508E-01 5.273773521E-02 9.408670950E-01
 6.293089390E-01 5.382123962E-02 9.459981201E-01
 6.180515885E-01 5.481579900E-02 9.628547927E-01
 6.071619391E-01 5.570467189E-02 9.677290330E-01
 5.946723223E-01 5.665263906E-02 9.701518872E-01
 5.827822685E-01 5.750683695E-02 9.791909695E-01
 5.693255067E-01 5.841482803E-02 9.953301704E-01
 5.564555526E-01 5.919233337E-02 1.003436686E+00
 5.436874032E-01 5.987558141E-02 1.008096971E+00
 5.325225592E-01 6.041479483E-02 1.011554488E+00
 5.205249190E-01 6.093034521E-02 1.012995536E+00
 5.076644421E-01 6.139440835E-02 1.021328442E+00
 4.967868924E-01 6.175399572E-02 1.029839433E+00
 4.836431146E-01 6.207863986E-02 1.028399566E+00
 4.706795514E-01 6.234363467E-02 1.027580470E+00
 4.565751553E-01 6.251949817E-02 1.015512105E+00
 4.426489472E-01 6.259503216E-02 1.007995908E+00
 4.296643436E-01 6.260399520E-02 1.007959602E+00
 4.167632461E-01 6.253876537E-02 1.004511532E+00
 4.043124616E-01 6.239643693E-02 9.975265583E-01
 3.916955590E-01 6.218706816E-02 9.936963656E-01
 3.797336519E-01 6.192119420E-02 9.896161557E-01
 3.685313165E-01 6.161449850E-02 9.816711876E-01
 3.552581668E-01 6.117201969E-02 9.725093476E-01
 3.431877494E-01 6.071570143E-02 9.686477588E-01
 3.307000995E-01 6.018868461E-02 9.670357671E-01
 3.202099502E-01 5.968046561E-02 9.600597113E-01
 3.081134260E-01 5.904825404E-02 9.562690180E-01
 2.952470481E-01 5.829378963E-02 9.488914656E-01
 2.813155651E-01 5.740044639E-02 9.437269366E-01
 2.687251270E-01 5.650923029E-02 9.356301389E-01
 2.566268742E-01 5.558921769E-02 9.287654993E-01
 2.440045774E-01 5.457030609E-02 9.239604296E-01
 2.311214805E-01 5.345351994E-02 9.187360735E-01
 2.189562619E-01 5.232686922E-02 9.133929337E-01
 2.070103884E-01 5.114550516E-02 9.070335530E-01
 1.955522448E-01 4.994574562E-02 9.005324381E-01
 1.831113249E-01 4.857205972E-02 8.954575550E-01
 1.711727530E-01 4.716880992E-02 8.893916264E-01
 1.594519615E-01 4.570870474E-02 8.818357722E-01
 1.475555003E-01 4.414666072E-02 8.760809174E-01
 1.367576569E-01 4.265922308E-02 8.725077324E-01
 1.253389269E-01 4.097633809E-02 8.633139398E-01
 1.139581129E-01 3.921176121E-02 8.576162507E-01
 1.032868400E-01 3.746163845E-02 8.506922068E-01
 9.356051683E-02 3.577538580E-02 8.460236692E-01
 8.261681348E-02 3.375050053E-02 8.373160154E-01
 7.102657855E-02 3.144891560E-02 8.283005213E-01
 6.129981205E-02 2.936812863E-02 8.209168176E-01
 5.176853016E-02 2.715667151E-02 8.126397788E-01
 4.286714271E-02 2.490635030E-02 8.036539775E-01
 3.525449336E-02 2.279300243E-02 7.928826000E-01
 2.868545428E-02 2.078902721E-02 7.813703529E-01
 2.303128503E-02 1.889091730E-02 7.711754182E-01
 1.894732751E-02 1.737881638E-02 7.578724567E-01
 1.514134835E-02 1.582431048E-02 7.437637245E-01
 1.236895844E-02 1.457965560E-02 7.293210630E-01
 9.929903783E-03 1.337787881E-02 7.141488587E-01
 8.156395517E-03 1.241847407E-02 6.997369683E-01
 6.525841076E-03 1.146509033E-02 6.829716272E-01
 5.025974941E-03 1.049491577E-02 6.547536480E-01
 3.087250749E-03 9.067799896E-03 6.127774488E-01
 1.439672313E-03 7.609936409E-03 5.688371336E-01
 3.329123501E-05 6.047030911E-03 4.798011468E-01
 -1.313090674E-03 3.920258023E-03 3.625997123E-01
 -1.935218344E-03 2.239108318E-03 2.505530904E-01
 -2.170977416E-03 8.733040304E-04 1.440631108E-01
 -2.159311203E-03 -7.657179958E-04 2.488473681E-02
 -1.770053175E-03 -2.678115852E-03 1.107112809E-01
 -8.417498320E-04 -4.895675927E-03 2.282914182E-01
 6.794089568E-04 -7.281781640E-03 3.380033984E-01
 2.833475359E-03 -9.781369939E-03 4.257821863E-01
 4.765262362E-03 -1.161730569E-02 4.878596790E-01
 7.033867296E-03 -1.348403469E-02 5.343002502E-01
 8.715941571E-03 -1.472386438E-02 5.701912570E-01
 1.080998965E-02 -1.614758745E-02 6.001274265E-01
 1.328849141E-02 -1.767984964E-02 6.315177886E-01
 1.658491232E-02 -1.954247616E-02 6.630967328E-01
 1.975769177E-02 -2.117601223E-02 6.918553507E-01
 2.389563434E-02 -2.311814018E-02 7.163032012E-01
 2.944157459E-02 -2.547169290E-02 7.434209206E-01
 3.530088812E-02 -2.771294490E-02 7.671757395E-01
 4.268276319E-02 -3.025487997E-02 7.867836900E-01
 5.028683692E-02 -3.262694180E-02 8.067028233E-01
 5.916847289E-02 -3.513240069E-02 8.231738611E-01
 6.788565964E-02 -3.738007322E-02 8.360387668E-01
 7.834409177E-02 -3.984739259E-02 8.482363381E-01
 8.823240548E-02 -4.199660942E-02 8.581136087E-01
 9.880455583E-02 -4.412721097E-02 8.683472576E-01
 1.098751724E-01 -4.619652778E-02 8.782452969E-01
 1.214587986E-01 -4.819798097E-02 8.855440383E-01
 1.329980344E-01 -5.005689710E-02 8.930837080E-01
 1.434086859E-01 -5.163760483E-02 9.025190192E-01
 1.544282734E-01 -5.319866538E-02 9.085276353E-01
 1.661540121E-01 -5.477047712E-02 9.188689549E-01
 1.776160002E-01 -5.619230121E-02 9.270404720E-01
 1.892106831E-01 -5.753828958E-02 9.356484684E-01
 1.995289326E-01 -5.865098163E-02 9.428754194E-01
 2.105023116E-01 -5.975757167E-02 9.500135973E-01
 2.225025296E-01 -6.087186933E-02 9.560648690E-01
 2.347905189E-01 -6.193842366E-02 9.705229688E-01
 2.467103750E-01 -6.285857409E-02 9.818307476E-01
 2.591163218E-01 -6.370972097E-02 9.861231183E-01
 2.701428831E-01 -6.439407170E-02 9.989744451E-01
 2.827946544E-01 -6.507167220E-02 1.011624560E+00
 2.952280343E-01 -6.562159210E-02 1.023604860E+00
 3.082100451E-01 -6.607504189E-02 1.032721423E+00
 3.198100328E-01 -6.637581438E-02 1.050100191E+00
 3.322134614E-01 -6.656546891E-02 1.061217372E+00
 3.427684009E-01 -6.663785130E-02 1.068812693E+00
 3.542546928E-01 -6.662163883E-02 1.071571149E+00
 3.653283417E-01 -6.651461869E-02 1.083612995E+00
 3.759989440E-01 -6.628040969E-02 1.094464838E+00
 3.875083923E-01 -6.592646241E-02 1.104545202E+00
 4.003387988E-01 -6.541199982E-02 1.107482677E+00
 4.124908447E-01 -6.477500498E-02 1.026143111E+00
 4.255428314E-01 -6.397314370E-02 9.694389964E-01
 4.381354451E-01 -6.302621216E-02 9.720336140E-01
 4.510924816E-01 -6.194079295E-02 9.612432986E-01
 4.636498094E-01 -6.077861041E-02 9.474642601E-01
 4.762053490E-01 -5.948285013E-02 9.286242007E-01
 4.881223142E-01 -5.814815313E-02 9.081144565E-01
 5.005781651E-01 -5.669581518E-02 8.954154101E-01
 5.142415166E-01 -5.497267842E-02 8.749916790E-01
 5.279268026E-01 -5.318920687E-02 8.612102040E-01
 5.408818126E-01 -5.138745159E-02 8.401387983E-01
 5.546679497E-01 -4.947273806E-02 8.298167270E-01
 5.676094890E-01 -4.760488495E-02 8.169608564E-01
 5.808574557E-01 -4.563117027E-02 8.011295208E-01
 5.934841037E-01 -4.373443127E-02 7.892716090E-01
 6.061305404E-01 -4.181478545E-02 7.778076500E-01
 6.195605397E-01 -3.975557163E-02 7.658541052E-01
 6.335373521E-01 -3.761314601E-02 7.561225717E-01
 6.472014785E-01 -3.550114483E-02 7.456086127E-01
 6.604537964E-01 -3.344021738E-02 7.348847204E-01
 6.739286184E-01 -3.134885430E-02 7.242233107E-01
 6.864667535E-01 -2.943193167E-02 7.175536450E-01
 6.987407804E-01 -2.753873728E-02 7.073619470E-01
 7.136759162E-01 -2.528419904E-02 7.000404352E-01
 7.267486453E-01 -2.331606857E-02 6.921849441E-01
 7.381594181E-01 -2.159077860E-02 6.826303373E-01
 7.507010698E-01 -1.972032525E-02 6.721666337E-01
 7.638537288E-01 -1.786924154E-02 6.704703372E-01
 7.768232822E-01 -1.599499583E-02 6.590466736E-01
 7.887985110E-01 -1.432365831E-02 6.523200638E-01
 8.012747765E-01 -1.259791013E-02 6.412805125E-01
 8.126851916E-01 -1.113182213E-02 6.386571159E-01
 8.240040541E-01 -9.686745703E-03 6.312814391E-01
 8.361277580E-01 -8.169210516E-03 6.210686910E-01
 8.485356569E-01 -6.743579637E-03 6.162518095E-01
 8.606553078E-01 -5.423671566E-03 6.094802053E-01
 8.720051646E-01 -4.264171701E-03 6.025716282E-01
 8.834843040E-01 -3.185471054E-03 5.960395287E-01
 8.965246081E-01 -2.131189220E-03 5.926568056E-01
 9.067026377E-01 -1.413674676E-03 5.892913262E-01
 9.167145491E-01 -7.921808283E-04 5.867641053E-01
 9.262233377E-01 -3.065338824E-04 5.844977900E-01
 9.353374243E-01 7.840478793E-05 5.834951306E-01
 9.477368593E-01 4.570716410E-04 5.831311344E-01
 9.617205262E-01 7.065742975E-04 5.825687335E-01
 9.764108062E-01 7.800462772E-04 5.803558376E-01
 9.893732667E-01 6.790503976E-04 5.715411920E-01
 -5.000000000E-01 -1.000000000E+00 7.238638633E-01
 3.500000000E+00 -1.000000000E+00 7.273047953E-01
 3.500000000E+00 1.000000000E+00 7.136181992E-01
 -5.000000000E-01 1.000000000E+00 7.241783759E-01
 9.933718145E-01 1.817568846E-03 6.321385449E-01
 9.804633558E-01 4.273249884E-03 6.664211880E-01
 9.670622945E-01 6.811600877E-03 6.908171741E-01
 9.530188143E-01 9.476650506E-03 7.148155688E-01
 9.399673939E-01 1.190586435E-02 7.297691810E-01
 9.282773435E-01 1.406766288E-02 7.478786748E-01
 9.166859388E-01 1.616861904E-02 7.594858503E-01
 9.049441218E-01 1.826076489E-02 7.769495334E-01
 8.931429684E-01 2.030488942E-02 7.900956141E-01
 8.807670474E-01 2.234747726E-02 7.964571435E-01
 8.686463535E-01 2.431590203E-02 8.091029693E-01
 8.564476967E-01 2.623214666E-02 8.208257971E-01
 8.441854119E-01 2.805941366E-02 8.227899508E-01
 8.322076499E-01 2.979628369E-02 8.275495019E-01
 8.196777403E-01 3.158824705E-02 8.360696456E-01
 8.064872026E-01 3.341848403E-02 8.418953643E-01
 7.937573493E-01 3.514046595E-02 8.469010574E-01
 7.813519239E-01 3.679067641E-02 8.538308448E-01
 7.690462172E-01 3.839783557E-02 8.624500693E-01
 7.565043867E-01 3.998809867E-02 8.674184846E-01
 7.430289388E-01 4.165532626E-02 8.744647152E-01
 7.305564582E-01 4.316783324E-02 8.806805496E-01
 7.194117308E-01 4.449352995E-02 8.911363374E-01
 7.078114748E-01 4.583329521E-02 8.965247415E-01
 6.950701475E-01 4.725742340E-02 9.057041694E-01
 6.816801131E-01 4.870399088E-02 9.119285480E-01
 6.697743535E-01 4.994696006E-02 9.211417200E-01
 6.585840583E-01 5.107688904E-02 9.285405455E-01
 6.470265687E-01 5.219923519E-02 9.381791082E-01
 6.353490949E-01 5.327948742E-02 9.415451862E-01
 6.236802638E-01 5.431851931E-02 9.551746404E-01
 6.126067638E-01 5.526023544E-02 9.665852909E-01
 6.009171307E-01 5.617865548E-02 9.682967648E-01
 5.887272954E-01 5.707973801E-02 9.735489266E-01
 5.760538876E-01 5.796083249E-02 9.876380407E-01
 5.628905296E-01 5.880358070E-02 1.000407153E+00
 5.500714779E-01 5.953395739E-02 1.005497114E+00
 5.381049812E-01 6.014518812E-02 1.010297999E+00
 5.265237391E-01 6.067257002E-02 1.012623744E+00
 5.140946805E-01 6.116237678E-02 1.014700982E+00
 5.022256672E-01 6.157420203E-02 1.028831255E+00
 4.902150035E-01 6.191631779E-02 1.027699485E+00
 4.771613330E-01 6.221113726E-02 1.030091050E+00
 4.636273533E-01 6.243156642E-02 1.021783653E+00
 4.496120512E-01 6.255726516E-02 1.010222866E+00
 4.361566454E-01 6.259951368E-02 1.008079750E+00
 4.232137948E-01 6.257138029E-02 1.006976838E+00
 4.105378538E-01 6.246760115E-02 1.000783003E+00
 3.980040103E-01 6.229175255E-02 9.954757539E-01
 3.857146055E-01 6.205413118E-02 9.916545535E-01
 3.741324842E-01 6.176784635E-02 9.866752817E-01
 3.618947417E-01 6.139325909E-02 9.762901868E-01
 3.492229581E-01 6.094386056E-02 9.699919792E-01
 3.369439244E-01 6.045219302E-02 9.683852573E-01
 3.254550248E-01 5.993457511E-02 9.632836947E-01
 3.141616881E-01 5.936435983E-02 9.587010550E-01
 3.016802371E-01 5.867102183E-02 9.524262582E-01
 2.882813066E-01 5.784711801E-02 9.464000719E-01
 2.750203460E-01 5.695483834E-02 9.397262241E-01
 2.626760006E-01 5.604922399E-02 9.318952049E-01
 2.503157258E-01 5.507976189E-02 9.264635475E-01
 2.375630289E-01 5.401191302E-02 9.211841138E-01
 2.250388712E-01 5.289019458E-02 9.162627551E-01
 2.129833251E-01 5.173618719E-02 9.101638974E-01
 2.012813166E-01 5.054562539E-02 9.037958907E-01
 1.893317848E-01 4.925890267E-02 8.980122495E-01
 1.771420389E-01 4.787043482E-02 8.924884097E-01
 1.653123572E-01 4.643875733E-02 8.858414716E-01
 1.535037309E-01 4.492768273E-02 8.781605459E-01
 1.421565786E-01 4.340294190E-02 8.752001903E-01
 1.310482919E-01 4.181778058E-02 8.677369845E-01
 1.196485199E-01 4.009404965E-02 8.600970789E-01
 1.086224765E-01 3.833669983E-02 8.548972567E-01
 8.808866516E-02 3.476294316E-02 8.420021369E-01
 7.682169601E-02 3.259970807E-02 8.331023102E-01
 7.311487570E-02 -3.861373290E-02 8.436164160E-01
 8.328824863E-02 -4.092200100E-02 8.533117653E-01
 9.351848066E-02 -4.306191020E-02 8.633061120E-01
 1.043398641E-01 -4.516186938E-02 8.733277792E-01
 1.156669855E-01 -4.719725437E-02 8.821165918E-01
 1.272284165E-01 -4.912743904E-02 8.891956548E-01
 1.382033601E-01 -5.084725097E-02 8.980151658E-01
 1.489184797E-01 -5.241813511E-02 9.057332170E-01
 1.602911428E-01 -5.398457125E-02 9.129450038E-01
 1.718850061E-01 -5.548138916E-02 9.237734070E-01
 1.834133416E-01 -5.686529540E-02 9.309814312E-01
 1.943698078E-01 -5.809463561E-02 9.399178770E-01
 2.050156221E-01 -5.920427665E-02 9.462053372E-01
 2.165024206E-01 -6.031472050E-02 9.529870304E-01
 2.286465243E-01 -6.140514649E-02 9.618769343E-01
 2.407504469E-01 -6.239849888E-02 9.778154553E-01
 2.529133484E-01 -6.328414753E-02 9.836321148E-01
 2.646296024E-01 -6.405189633E-02 9.920033858E-01
 2.764687687E-01 -6.473287195E-02 1.005021417E+00
 2.890113443E-01 -6.534663215E-02 1.018210989E+00
 3.017190397E-01 -6.584831700E-02 1.027622523E+00
 3.140100390E-01 -6.622542813E-02 1.040861344E+00
 3.260117471E-01 -6.647064164E-02 1.056725954E+00
 3.374909312E-01 -6.660166010E-02 1.065728504E+00
 3.485115469E-01 -6.662974507E-02 1.070155139E+00
 3.597915173E-01 -6.656812876E-02 1.075783229E+00
 3.706636429E-01 -6.639751419E-02 1.090718624E+00
 3.817536682E-01 -6.610343605E-02 1.098178083E+00
 3.939235955E-01 -6.566923112E-02 1.110994470E+00
 4.064148217E-01 -6.509350240E-02 1.078818801E+00
 4.190168381E-01 -6.437407434E-02 9.838664118E-01
 4.318391383E-01 -6.349967793E-02 9.708499227E-01
 4.446139634E-01 -6.248350255E-02 9.682919950E-01
 4.573711455E-01 -6.135970168E-02 9.541431863E-01
 4.699275792E-01 -6.013073027E-02 9.387799907E-01
 4.821638316E-01 -5.881550163E-02 9.182174488E-01
 4.943502396E-01 -5.742198415E-02 9.011840445E-01
 5.074098408E-01 -5.583424680E-02 8.861181255E-01
 5.210841596E-01 -5.408094265E-02 8.671049496E-01
 5.344043076E-01 -5.228832923E-02 8.515551903E-01
 5.477748811E-01 -5.043009482E-02 8.335999827E-01
 5.611387193E-01 -4.853881150E-02 8.241240105E-01
 5.742334723E-01 -4.661802761E-02 8.090538790E-01
 5.871707797E-01 -4.468280077E-02 7.948809544E-01
 5.998073220E-01 -4.277460836E-02 7.835574863E-01
 6.128455400E-01 -4.078517854E-02 7.717859119E-01
 6.265489459E-01 -3.868435882E-02 7.609231495E-01
 6.403694153E-01 -3.655714542E-02 7.508826475E-01
 6.538276374E-01 -3.447068110E-02 7.402734378E-01
 6.671912074E-01 -3.239453584E-02 7.294118115E-01
 6.801976860E-01 -3.039039299E-02 7.206350914E-01
 6.926037669E-01 -2.848533448E-02 7.127003294E-01
 7.062083483E-01 -2.641146816E-02 7.036003454E-01
 7.202122808E-01 -2.430013381E-02 6.960981205E-01
 7.324540317E-01 -2.245342359E-02 6.875801474E-01
 7.444302440E-01 -2.065555193E-02 6.772370822E-01
 7.572773993E-01 -1.879478339E-02 6.709741746E-01
 7.703385055E-01 -1.693211868E-02 6.654205595E-01
 7.828108966E-01 -1.515932707E-02 6.553821548E-01
 7.950366437E-01 -1.346078422E-02 6.470032017E-01
 8.069799840E-01 -1.186486613E-02 6.394078056E-01
 8.183446229E-01 -1.040928392E-02 6.352960743E-01
 8.300659060E-01 -8.927978110E-03 6.263049145E-01
 8.423317075E-01 -7.456395077E-03 6.183910138E-01
 8.545954823E-01 -6.083625602E-03 6.131392966E-01
 8.663302362E-01 -4.843921633E-03 6.058711659E-01
 8.777447343E-01 -3.724821378E-03 5.991687865E-01
 8.900044560E-01 -2.658330137E-03 5.945254909E-01
 9.016136229E-01 -1.772431948E-03 5.905952344E-01
 9.415371418E-01 2.677382145E-04 5.832284485E-01
 9.547286928E-01 5.818229693E-04 5.831477293E-01
 9.690656662E-01 7.433102874E-04 5.820083427E-01
 9.828920364E-01 7.295483374E-04 5.762596127E-01
 9.947455823E-01 6.000359717E-04 5.655663088E-01
 -5.000000000E-01 9.500000000E-01 7.218525845E-01
 -5.000000000E-01 9.000000000E-01 7.182238257E-01
 -5.000000000E-01 8.500000000E-01 7.154626901E-01
 -5.000000000E-01 8.000000000E-01 7.130026313E-01
 -5.000000000E-01 7.500000000E-01 7.106645949E-01
 -5.000000000E-01 7.000000000E-01 7.083531964E-01
 -5.000000000E-01 6.500000000E-01 7.060074575E-01
 -5.000000000E-01 6.000000000E-01 7.036360754E-01
 -5.000000000E-01 5.500000000E-01 7.012040233E-01
 -5.000000000E-01 5.000000000E-01 6.986958745E-01
 -5.000000000E-01 4.500000000E-01 6.961350730E-01
 -5.000000000E-01 4.000000000E-01 6.936227035E-01
 -5.000000000E-01 3.500000000E-01 6.911162253E-01
 -5.000000000E-01 3.000000000E-01 6.887135505E-01
 -5.000000000E-01 2.500000000E-01 6.864324775E-01
 -5.000000000E-01 2.000000000E-01 6.844316201E-01
 -5.000000000E-01 1.500000000E-01 6.827294907E-01
 -5.000000000E-01 1.000000000E-01 6.814323531E-01
 -5.000000000E-01 5.000000000E-02 6.805967108E-01
 -5.000000000E-01 2.752242878E-12 6.802159549E-01
 -5.000000000E-01 -5.000000000E-02 6.803737385E-01
 -5.000000000E-01 -1.000000000E-01 6.810125013E-01
 -5.000000000E-01 -1.500000000E-01 6.821328496E-01
 -5.000000000E-01 -2.000000000E-01 6.836399075E-01
 -5.000000000E-01 -2.500000000E-01 6.855038944E-01
 -5.000000000E-01 -3.000000000E-01 6.876482723E-01
 -5.000000000E-01 -3.500000000E-01 6.899973417E-01
 -5.000000000E-01 -4.000000000E-01 6.924525778E-01
 -5.000000000E-01 -4.500000000E-01 6.949256994E-01
 -5.000000000E-01 -5.000000000E-01 6.974458051E-01
 -5.000000000E-01 -5.500000000E-01 6.999639389E-01
 -5.000000000E-01 -6.000000000E-01 7.024302717E-01
 -5.000000000E-01 -6.500000000E-01 7.048604828E-01
 -5.000000000E-01 -7.000000000E-01 7.072439886E-01
 -5.000000000E-01 -7.500000000E-01 7.096067117E-01
 -5.000000000E-01 -8.000000000E-01 7.120304516E-01
 -5.000000000E-01 -8.500000000E-01 7.146033905E-01
 -5.000000000E-01 -9.000000000E-01 7.175807358E-01
 -5.000000000E-01 -9.500000000E-01 7.213929950E-01
 -4.500000000E-01 -1.000000000E+00 7.212440408E-01
 -4.000000000E-01 -1.000000000E+00 7.175618632E-01
 -3.500000000E-01 -1.000000000E+00 7.152005825E-01
 -3.000000000E-01 -1.000000000E+00 7.136540730E-01
 -2.500000000E-01 -1.000000000E+00 7.128365343E-01
 -2.000000000E-01 -1.000000000E+00 7.125754446E-01
 -1.500000000E-01 -1.000000000E+00 7.129824299E-01
 -1.000000000E-01 -1.000000000E+00 7.141144963E-01
 -5.000000000E-02 -1.000000000E+00 7.158968912E-01
 -9.424683256E-13 -1.000000000E+00 7.183753570E-01
 5.000000000E-02 -1.000000000E+00 7.214704298E-01
 1.000000000E-01 -1.000000000E+00 7.250372815E-01
 1.500000000E-01 -1.000000000E+00 7.289457425E-01
 2.000000000E-01 -1.000000000E+00 7.330495364E-01
 2.500000000E-01 -1.000000000E+00 7.370861805E-01
 3.000000000E-01 -1.000000000E+00 7.407647134E-01
 3.500000000E-01 -1.000000000E+00 7.439906183E-01
 4.000000000E-01 -1.000000000E+00 7.466844970E-01
 4.500000000E-01 -1.000000000E+00 7.483538522E-01
 5.000000000E-01 -1.000000000E+00 7.489725600E-01
 5.500000000E-01 -1.000000000E+00 7.490189955E-01
 6.000000000E-01 -1.000000000E+00 7.482665962E-01
 6.500000000E-01 -1.000000000E+00 7.467385648E-01
 7.000000000E-01 -1.000000000E+00 7.446527289E-01
 7.500000000E-01 -1.000000000E+00 7.422081875E-01
 8.000000000E-01 -1.000000000E+00 7.394321586E-01
 8.500000000E-01 -1.000000000E+00 7.366738406E-01
 9.000000000E-01 -1.000000000E+00 7.337855116E-01
 9.500000000E-01 -1.000000000E+00 7.308167071E-01
 1.000000000E+00 -1.000000000E+00 7.280171733E-01
 1.050000000E+00 -1.000000000E+00 7.254259993E-01
 1.100000000E+00 -1.000000000E+00 7.231396763E-01
 1.150000000E+00 -1.000000000E+00 7.210802029E-01
 1.200000000E+00 -1.000000000E+00 7.194238763E-01
 1.250000000E+00 -1.000000000E+00 7.180397786E-01
 1.300000000E+00 -1.000000000E+00 7.169384762E-01
 1.350000000E+00 -1.000000000E+00 7.160780185E-01
 1.400000000E+00 -1.000000000E+00 7.154252203E-01
 1.450000000E+00 -1.000000000E+00 7.149759741E-01
 1.500000000E+00 -1.000000000E+00 7.146359276E-01
 1.550000000E+00 -1.000000000E+00 7.145583230E-01
 1.600000000E+00 -1.000000000E+00 7.145817134E-01
 1.650000000E+00 -1.000000000E+00 7.146803522E-01
 1.700000000E+00 -1.000000000E+00 7.147956544E-01
 1.750000000E+00 -1.000000000E+00 7.150197518E-01
 1.800000000E+00 -1.000000000E+00 7.152795777E-01
 1.850000000E+00 -1.000000000E+00 7.155671258E-01
 1.900000000E+00 -1.000000000E+00 7.160092898E-01
 1.950000000E+00 -1.000000000E+00 7.164469679E-01
 2.000000000E+00 -1.000000000E+00 7.167058650E-01
 2.050000000E+00 -1.000000000E+00 7.169337850E-01
 2.100000000E+00 -1.000000000E+00 7.172476699E-01
 2.150000000E+00 -1.000000000E+00 7.175306802E-01
 2.200000000E+00 -1.000000000E+00 7.179221993E-01
 2.250000000E+00 -1.000000000E+00 7.184026232E-01
 2.300000000E+00 -1.000000000E+00 7.188329892E-01
 2.350000000E+00 -1.000000000E+00 7.191372876E-01
 2.400000000E+00 -1.000000000E+00 7.194635863E-01
 2.450000000E+00 -1.000000000E+00 7.197571998E-01
 2.500000000E+00 -1.000000000E+00 7.199856555E-01
 2.550000000E+00 -1.000000000E+00 7.202507688E-01
 2.600000000E+00 -1.000000000E+00 7.205315495E-01
 2.650000000E+00 -1.000000000E+00 7.207226242E-01
 2.700000000E+00 -1.000000000E+00 7.208753683E-01
 2.750000000E+00 -1.000000000E+00 7.210162002E-01
 2.800000000E+00 -1.000000000E+00 7.212144825E-01
 2.850000000E+00 -1.000000000E+00 7.212926244E-01
 2.900000000E+00 -1.000000000E+00 7.215068545E-01
 2.950000000E+00 -1.000000000E+00 7.216528738E-01
 3.000000000E+00 -1.000000000E+00 7.217946422E-01
 3.050000000E+00 -1.000000000E+00 7.219008843E-01
 3.100000000E+00 -1.000000000E+00 7.219558710E-01
 3.150000000E+00 -1.000000000E+00 7.220581196E-01
 3.200000000E+00 -1.000000000E+00 7.221664543E-01
 3.250000000E+00 -1.000000000E+00 7.222596340E-01
 3.300000000E+00 -1.000000000E+00 7.224160284E-01
 3.350000000E+00 -1.000000000E+00 7.227365612E-01
 3.400000000E+00 -1.000000000E+00 7.232337781E-01
 3.450000000E+00 -1.000000000E+00 7.245218264E-01
 3.500000000E+00 -9.500000000E-01 7.291200808E-01
 3.500000000E+00 -9.000000000E-01 7.301865085E-01
 3.500000000E+00 -8.500000000E-01 7.308975083E-01
 3.500000000E+00 -8.000000000E-01 7.313361088E-01
 3.500000000E+00 -7.500000000E-01 7.315993014E-01
 3.500000000E+00 -7.000000000E-01 7.318172687E-01
 3.500000000E+00 -6.500000000E-01 7.320762027E-01
 3.500000000E+00 -6.000000000E-01 7.323825852E-01
 3.500000000E+00 -5.500000000E-01 7.327237871E-01
 3.500000000E+00 -5.000000000E-01 7.330830546E-01
 3.500000000E+00 -4.500000000E-01 7.334259526E-01
 3.500000000E+00 -4.000000000E-01 7.337790254E-01
 3.500000000E+00 -3.500000000E-01 7.341296487E-01
 3.500000000E+00 -3.000000000E-01 7.344663323E-01
 3.500000000E+00 -2.500000000E-01 7.347753767E-01
 3.500000000E+00 -2.000000000E-01 7.350166052E-01
 3.500000000E+00 -1.500000000E-01 7.351688388E-01
 3.500000000E+00 -1.000000000E-01 7.351993335E-01
 3.500000000E+00 -5.000000000E-02 7.352132076E-01
 3.500000000E+00 -2.752242878E-12 7.351979062E-01
 3.500000000E+00 5.000000000E-02 7.351553113E-01
 3.500000000E+00 1.000000000E-01 7.350493876E-01
 3.500000000E+00 1.500000000E-01 7.348420192E-01
 3.500000000E+00 2.000000000E-01 7.345227576E-01
 3.500000000E+00 2.500000000E-01 7.341196050E-01
 3.500000000E+00 3.000000000E-01 7.337353611E-01
 3.500000000E+00 3.500000000E-01 7.334035696E-01
 3.500000000E+00 4.000000000E-01 7.331072612E-01
 3.500000000E+00 4.500000000E-01 7.327663860E-01
 3.500000000E+00 5.000000000E-01 7.323542705E-01
 3.500000000E+00 5.500000000E-01 7.319446190E-01
 3.500000000E+00 6.000000000E-01 7.316747484E-01
 3.500000000E+00 6.500000000E-01 7.316942825E-01
 3.500000000E+00 7.000000000E-01 7.320169449E-01
 3.500000000E+00 7.500000000E-01 7.321997268E-01
 3.500000000E+00 8.000000000E-01 7.315290826E-01
 3.500000000E+00 8.500000000E-01 7.294179956E-01
 3.500000000E+00 9.000000000E-01 7.258095121E-01
 3.500000000E+00 9.500000000E-01 7.207647526E-01
 3.450000000E+00 1.000000000E+00 7.035365488E-01
 3.400000000E+00 1.000000000E+00 6.997079442E-01
 3.350000000E+00 1.000000000E+00 6.989254636E-01
 3.300000000E+00 1.000000000E+00 6.985592299E-01
 3.250000000E+00 1.000000000E+00 6.987940761E-01
 3.200000000E+00 1.000000000E+00 6.987422839E-01
 3.150000000E+00 1.000000000E+00 6.990086787E-01
 3.100000000E+00 1.000000000E+00 6.993161688E-01
 3.050000000E+00 1.000000000E+00 6.999156315E-01
 3.000000000E+00 1.000000000E+00 7.001784186E-01
 2.950000000E+00 1.000000000E+00 7.003564104E-01
 2.900000000E+00 1.000000000E+00 7.007137044E-01
 2.850000000E+00 1.000000000E+00 7.009341826E-01
 2.800000000E+00 1.000000000E+00 7.013153093E-01
 2.750000000E+00 1.000000000E+00 7.016363890E-01
 2.700000000E+00 1.000000000E+00 7.020437235E-01
 2.650000000E+00 1.000000000E+00 7.024283152E-01
 2.600000000E+00 1.000000000E+00 7.028655057E-01
 2.550000000E+00 1.000000000E+00 7.030196652E-01
 2.500000000E+00 1.000000000E+00 7.035454914E-01
 2.450000000E+00 1.000000000E+00 7.039696030E-01
 2.400000000E+00 1.000000000E+00 7.043502916E-01
 2.350000000E+00 1.000000000E+00 7.047335729E-01
 2.300000000E+00 1.000000000E+00 7.052210778E-01
 2.250000000E+00 1.000000000E+00 7.056891287E-01
 2.200000000E+00 1.000000000E+00 7.060902193E-01
 2.150000000E+00 1.000000000E+00 7.064481895E-01
 2.100000000E+00 1.000000000E+00 7.070198725E-01
 2.050000000E+00 1.000000000E+00 7.076628578E-01
 2.000000000E+00 1.000000000E+00 7.080598077E-01
 1.950000000E+00 1.000000000E+00 7.085624275E-01
 1.900000000E+00 1.000000000E+00 7.093914508E-01
 1.850000000E+00 1.000000000E+00 7.102301485E-01
 1.800000000E+00 1.000000000E+00 7.110292277E-01
 1.750000000E+00 1.000000000E+00 7.118864370E-01
 1.700000000E+00 1.000000000E+00 7.127683251E-01
 1.650000000E+00 1.000000000E+00 7.139058380E-01
 1.600000000E+00 1.000000000E+00 7.150914827E-01
 1.550000000E+00 1.000000000E+00 7.162735164E-01
 1.500000000E+00 1.000000000E+00 7.178535381E-01
 1.450000000E+00 1.000000000E+00 7.202102415E-01
 1.400000000E+00 1.000000000E+00 7.228602234E-01
 1.350000000E+00 1.000000000E+00 7.244071769E-01
 1.300000000E+00 1.000000000E+00 7.267380169E-01
 1.250000000E+00 1.000000000E+00 7.291437730E-01
 1.200000000E+00 1.000000000E+00 7.320239554E-01
 1.150000000E+00 1.000000000E+00 7.351045635E-01
 1.100000000E+00 1.000000000E+00 7.384033206E-01
 1.050000000E+00 1.000000000E+00 7.422667452E-01
 1.000000000E+00 1.000000000E+00 7.462911610E-01
 9.500000000E-01 1.000000000E+00 7.490439189E-01
 9.000000000E-01 1.000000000E+00 7.523572250E-01
 8.500000000E-01 1.000000000E+00 7.556988891E-01
 8.000000000E-01 1.000000000E+00 7.599658695E-01
 7.500000000E-01 1.000000000E+00 7.628315120E-01
 7.000000000E-01 1.000000000E+00 7.641987282E-01
 6.500000000E-01 1.000000000E+00 7.657144171E-01
 6.000000000E-01 1.000000000E+00 7.655856789E-01
 5.500000000E-01 1.000000000E+00 7.646363995E-01
 5.000000000E-01 1.000000000E+00 7.626329323E-01
 4.500000000E-01 1.000000000E+00 7.598077438E-01
 4.000000000E-01 1.000000000E+00 7.570895268E-01
 3.500000000E-01 1.000000000E+00 7.526052322E-01
 3.000000000E-01 1.000000000E+00 7.478485716E-01
 2.500000000E-01 1.000000000E+00 7.428194986E-01
 2.000000000E-01 1.000000000E+00 7.377128347E-01
 1.500000000E-01 1.000000000E+00 7.326324789E-01
 1.000000000E-01 1.000000000E+00 7.279822774E-01
 5.000000000E-02 1.000000000E+00 7.240074961E-01
 1.733724275E-12 1.000000000E+00 7.206032031E-01
 -5.000000000E-02 1.000000000E+00 7.179198821E-01
 -1.000000000E-01 1.000000000E+00 7.158606454E-01
 -1.500000000E-01 1.000000000E+00 7.145242972E-01
 -2.000000000E-01 1.000000000E+00 7.139119316E-01
 -2.500000000E-01 1.000000000E+00 7.139658121E-01
 -3.000000000E-01 1.000000000E+00 7.146764937E-01
 -3.500000000E-01 1.000000000E+00 7.160487364E-01
 -4.000000000E-01 1.000000000E+00 7.182407322E-01
 -4.500000000E-01 1.000000000E+00 7.217261975E-01
 8.871737995E-01 -8.233346443E-03 5.986329244E-01
 8.104619897E-01 -1.620400143E-02 6.403137442E-01
 7.420716395E-01 -2.622527700E-02 6.811412598E-01
 6.712761516E-01 -3.745064779E-02 7.278005775E-01
 9.796467489E-01 -4.406370905E-03 5.822099633E-01
 6.035623659E-01 -4.849614874E-02 7.808291941E-01
 5.378808610E-01 -5.769760789E-02 8.453871055E-01
 4.799642534E-01 -6.432116987E-02 9.197643188E-01
 4.221714361E-01 -7.046843415E-02 9.702575072E-01
 3.684438380E-01 -7.116201281E-02 1.081790476E+00
 3.167797976E-01 -7.132356329E-02 1.040647681E+00
 2.615766296E-01 -6.865544974E-02 9.855061054E-01
 2.070125736E-01 -6.489115495E-02 9.443939946E-01
 1.509914685E-01 -5.746823679E-02 9.039293211E-01
 1.011214375E-01 -4.925440706E-02 8.657672725E-01
 6.005210647E-02 -4.109500152E-02 8.141254334E-01
 2.446525420E-02 -2.829645254E-02 7.074465369E-01
 1.974527328E+00 -9.604455700E-01 7.187946583E-01
 1.976372627E+00 9.547618404E-01 7.192735439E-01
 9.315892726E-01 1.879077466E-02 7.430672311E-01