TITLE     = "Visualization of the solution"
VARIABLES = "x"
"y"
"Mach"
ZONE T="Zone"
 STRANDID=0, SOLUTIONTIME=0
 Nodes=12041, Elements=23499, ZONETYPE=FEQuadrilateral
 DATAPACKING=POINT
 DT=(DOUBLE DOUBLE DOUBLE )
 1.000255466E+00 5.133479135E-04 5.200477283E-01
 9.873822331E-01 3.167622024E-03 6.316639845E-01
 9.743002057E-01 5.883839913E-03 6.655226718E-01
 9.570834041E-01 9.437987581E-03 6.910107713E-01
 9.420872927E-01 1.253142487E-02 7.097838136E-01
 9.279992580E-01 1.546847168E-02 7.299062628E-01
 9.164409041E-01 1.784579828E-02 7.447477925E-01
 9.051297903E-01 2.014239877E-02 7.587541559E-01
 8.935273886E-01 2.244184166E-02 7.672106340E-01
 8.824077249E-01 2.467649430E-02 7.865920745E-01
 8.706266880E-01 2.695905603E-02 8.012093121E-01
 8.580095172E-01 2.926656604E-02 8.023951196E-01
 8.463687301E-01 3.143521026E-02 8.202254678E-01
 8.355861902E-01 3.335773200E-02 8.277393778E-01
 8.239589930E-01 3.538117185E-02 8.355524025E-01
 8.116934896E-01 3.744134307E-02 8.377640050E-01
 7.994682789E-01 3.952751309E-02 8.558165205E-01
 7.866351604E-01 4.159883037E-02 8.599967078E-01
 7.742314935E-01 4.356947169E-02 8.679563013E-01
 7.626996040E-01 4.536562040E-02 8.767498463E-01
 7.495040894E-01 4.738661647E-02 8.890100728E-01
 7.359093428E-01 4.936219379E-02 8.907684815E-01
 7.251244187E-01 5.094588175E-02 9.069829937E-01
 7.137672901E-01 5.253866315E-02 9.141831957E-01
 7.019063234E-01 5.415178463E-02 9.218595488E-01
 6.886861324E-01 5.588703230E-02 9.293050394E-01
 6.758407950E-01 5.750992522E-02 9.373519887E-01
 6.650800109E-01 5.882938579E-02 9.450123123E-01
 6.531073451E-01 6.021801010E-02 9.448799175E-01
 6.412295103E-01 6.154434383E-02 9.267568381E-01
 6.293975115E-01 6.278913468E-02 9.067964762E-01
 6.175163388E-01 6.399217248E-02 1.112174166E+00
 6.069831848E-01 6.498802453E-02 1.162264448E+00
 5.951202512E-01 6.604814529E-02 1.137822662E+00
 5.836025476E-01 6.700848043E-02 1.133201009E+00
 5.702425241E-01 6.801172346E-02 1.130619977E+00
 5.579517484E-01 6.888149679E-02 1.127368831E+00
 5.458871722E-01 6.964275241E-02 1.117375422E+00
 5.346818566E-01 7.027041167E-02 1.109417016E+00
 5.231227875E-01 7.084768265E-02 1.102105539E+00
 5.110903382E-01 7.136406004E-02 1.095528774E+00
 5.001460910E-01 7.177709788E-02 1.087469952E+00
 4.872003794E-01 7.216637582E-02 1.076856871E+00
 4.739994109E-01 7.246977091E-02 1.071950374E+00
 4.607710540E-01 7.271286100E-02 1.066246757E+00
 4.478707314E-01 7.284521312E-02 1.053994007E+00
 4.354892373E-01 7.289735973E-02 1.050389342E+00
 4.232212007E-01 7.290481031E-02 1.045285746E+00
 4.108223617E-01 7.280518115E-02 1.031962472E+00
 3.983610868E-01 7.264424115E-02 1.030466743E+00
 3.863095641E-01 7.243467122E-02 1.028902360E+00
 3.743780255E-01 7.215140015E-02 1.018022785E+00
 3.615465760E-01 7.176708430E-02 1.009273312E+00
 3.489260375E-01 7.132683694E-02 1.002197314E+00
 3.359234631E-01 7.078561187E-02 9.982157804E-01
 3.250305355E-01 7.029946893E-02 9.992887309E-01
 3.124789000E-01 6.964282691E-02 9.901548451E-01
 2.995491922E-01 6.888890266E-02 9.823061987E-01
 2.857580483E-01 6.799673289E-02 9.780038599E-01
 2.738795280E-01 6.715473533E-02 9.728316534E-01
 2.620595396E-01 6.623236835E-02 9.647520839E-01
 2.498113066E-01 6.521640718E-02 9.612605594E-01
 2.374541759E-01 6.408569962E-02 9.516156813E-01
 2.251028419E-01 6.288300455E-02 9.455565701E-01
 2.130319327E-01 6.161682680E-02 9.385805840E-01
 2.008334696E-01 6.025284901E-02 9.333035384E-01
 1.881876439E-01 5.873472616E-02 9.260973425E-01
 1.762303561E-01 5.718443915E-02 9.159785786E-01
 1.643454283E-01 5.556590110E-02 9.115880582E-01
 1.524198651E-01 5.381175876E-02 9.021452907E-01
 1.413166374E-01 5.208167806E-02 8.949588794E-01
 1.295282394E-01 5.011789501E-02 8.859182885E-01
 1.181910560E-01 4.808954149E-02 8.753234988E-01
 1.073748395E-01 4.602707550E-02 8.650480066E-01
 9.717326611E-02 4.395601526E-02 8.545838262E-01
 8.629347384E-02 4.158592224E-02 8.413004035E-01
 7.513049245E-02 3.896876797E-02 8.296447677E-01
 6.516506523E-02 3.642682359E-02 8.124869239E-01
 5.550948530E-02 3.376432881E-02 7.975179091E-01
 4.683020711E-02 3.115436994E-02 7.804577888E-01
 3.928405419E-02 2.867534384E-02 7.610787145E-01
 3.246751055E-02 2.624000795E-02 7.409336359E-01
 2.671127953E-02 2.398996800E-02 7.233744252E-01
 2.243261971E-02 2.217357978E-02 7.043500509E-01
 1.840989292E-02 2.031177469E-02 6.830143843E-01
 1.505502220E-02 1.862902567E-02 6.605402161E-01
 1.203188952E-02 1.696790755E-02 6.366988605E-01
 9.829580784E-03 1.564492658E-02 6.124991358E-01
 7.882250473E-03 1.436342392E-02 5.859933260E-01
 6.085242610E-03 1.307364460E-02 5.517472120E-01
 3.789107781E-03 1.119743194E-02 5.049965282E-01
 1.888472936E-03 9.321991354E-03 4.482712003E-01
 3.386681492E-04 7.386941928E-03 3.539402577E-01
 -1.134620747E-03 4.643769469E-03 2.182634198E-01
 -1.675263746E-03 2.609159099E-03 9.469218067E-02
 -1.776936813E-03 9.758156957E-04 2.758423625E-02
 -1.561670448E-03 -7.718169945E-04 1.383948727E-01
 -1.034697751E-03 -2.488174709E-03 2.378618942E-01
 1.218944999E-05 -4.570461810E-03 3.431733471E-01
 1.518529956E-03 -6.677659694E-03 4.360371760E-01
 3.527848050E-03 -8.837480098E-03 5.101952427E-01
 5.365612917E-03 -1.048004720E-02 5.651873565E-01
 7.457769942E-03 -1.210654154E-02 6.042923353E-01
 9.187541902E-03 -1.331417728E-02 6.366156712E-01
 1.129844319E-02 -1.465489715E-02 6.631853051E-01
 1.367802173E-02 -1.604236290E-02 6.883904445E-01
 1.691622473E-02 -1.774941012E-02 7.136294711E-01
 1.982877217E-02 -1.915011555E-02 7.362604333E-01
 2.356202155E-02 -2.080750652E-02 7.559081332E-01
 2.876540832E-02 -2.289052121E-02 7.762663215E-01
 3.434555605E-02 -2.490961924E-02 7.946529585E-01
 4.091634974E-02 -2.705384046E-02 8.095909855E-01
 4.845283553E-02 -2.929112501E-02 8.223181290E-01
 5.722738430E-02 -3.163884580E-02 8.341145762E-01
 6.591112167E-02 -3.376880288E-02 8.447302326E-01
 7.587939501E-02 -3.600622341E-02 8.542228216E-01
 8.587901294E-02 -3.806905076E-02 8.602736223E-01
 9.631410241E-02 -4.008117318E-02 8.703425777E-01
 1.076294184E-01 -4.208364710E-02 8.744688757E-01
 1.190664396E-01 -4.398312792E-02 8.828328588E-01
 1.308775842E-01 -4.580453038E-02 8.891710025E-01
 1.417091787E-01 -4.737364873E-02 8.959764214E-01
 1.531071514E-01 -4.893027991E-02 9.043350665E-01
 1.654433012E-01 -5.049475282E-02 9.104685554E-01
 1.770975441E-01 -5.187671632E-02 9.171372409E-01
 1.891720444E-01 -5.322502553E-02 9.263911505E-01
 2.000954151E-01 -5.435681343E-02 9.345588239E-01
 2.117847353E-01 -5.547950417E-02 9.404040450E-01
 2.242500931E-01 -5.658992007E-02 9.495182543E-01
 2.365109175E-01 -5.757989734E-02 9.572109766E-01
 2.485777885E-01 -5.847087130E-02 9.654153639E-01
 2.608998418E-01 -5.929525942E-02 9.792992871E-01
 2.720480561E-01 -5.993137881E-02 9.851821416E-01
 2.845655084E-01 -6.057628989E-02 9.974401039E-01
 2.965292335E-01 -6.106347591E-02 1.005524074E+00
 3.095294535E-01 -6.149304286E-02 1.009107420E+00
 3.215731084E-01 -6.178952754E-02 1.019770624E+00
 3.344428837E-01 -6.198903173E-02 1.034048331E+00
 3.453731835E-01 -6.204747036E-02 1.052431370E+00
 3.568262160E-01 -6.198948994E-02 1.056262806E+00
 3.677406907E-01 -6.184921414E-02 1.051620543E+00
 3.788200915E-01 -6.160368770E-02 1.034956360E+00
 3.908263147E-01 -6.122143567E-02 1.013815580E+00
 4.040565193E-01 -6.066243723E-02 1.004053294E+00
 4.165776968E-01 -5.997851118E-02 9.901010991E-01
 4.292078018E-01 -5.917368457E-02 9.729322109E-01
 4.415117800E-01 -5.827476829E-02 9.617027127E-01
 4.533237219E-01 -5.727895349E-02 9.428289778E-01
 4.650815129E-01 -5.620885268E-02 9.293578388E-01
 4.771773815E-01 -5.498487875E-02 9.117520631E-01
 4.890477061E-01 -5.368868634E-02 8.922701058E-01
 5.016382337E-01 -5.224758387E-02 8.778322799E-01
 5.151215196E-01 -5.061112344E-02 8.618411203E-01
 5.279574394E-01 -4.896847904E-02 8.451849569E-01
 5.406373143E-01 -4.728707299E-02 8.295187829E-01
 5.530163646E-01 -4.562079534E-02 8.191412568E-01
 5.664829016E-01 -4.373265058E-02 8.031400024E-01
 5.791459680E-01 -4.194015265E-02 7.927691318E-01
 5.917251706E-01 -4.011307657E-02 7.793548448E-01
 6.046560407E-01 -3.822247311E-02 7.677723709E-01
 6.187738776E-01 -3.614307940E-02 7.554607570E-01
 6.329271793E-01 -3.406728432E-02 7.462633036E-01
 6.475336552E-01 -3.189602867E-02 7.335701745E-01
 6.601487994E-01 -3.004166298E-02 7.251153633E-01
 6.732819080E-01 -2.812437527E-02 7.176759249E-01
 6.856302619E-01 -2.631390840E-02 7.082788827E-01
 6.979811788E-01 -2.452169172E-02 7.005774178E-01
 7.123548388E-01 -2.244245820E-02 6.905274914E-01
 7.251696587E-01 -2.060840465E-02 6.803362667E-01
 7.374306917E-01 -1.895778440E-02 6.803699734E-01
 7.508906126E-01 -1.704589278E-02 6.659235243E-01
 7.632936239E-01 -1.536397450E-02 6.583839111E-01
 7.772305608E-01 -1.356531307E-02 6.546160956E-01
 7.890835404E-01 -1.202123985E-02 6.451305847E-01
 8.020525575E-01 -1.038574241E-02 6.362669785E-01
 8.131935000E-01 -9.059285745E-03 6.311401970E-01
 8.249222040E-01 -7.722107228E-03 6.264442613E-01
 8.378618956E-01 -6.285994314E-03 6.184177626E-01
 8.504754305E-01 -4.964962136E-03 6.107998450E-01
 8.628441095E-01 -3.770864569E-03 6.048354660E-01
 8.736013174E-01 -2.802667441E-03 5.980736407E-01
 8.850015998E-01 -1.898715855E-03 5.941415567E-01
 8.978807330E-01 -1.011194894E-03 5.897025630E-01
 9.079418778E-01 -4.047495313E-04 5.861104854E-01
 9.192730784E-01 1.318128925E-04 5.845859091E-01
 9.294989705E-01 5.176417180E-04 5.829072715E-01
 9.388573170E-01 7.854160503E-04 5.819744712E-01
 9.503406882E-01 9.950217791E-04 5.812094677E-01
 9.633369446E-01 1.081616152E-03 5.805941180E-01
 9.765967131E-01 1.014629612E-03 5.784026059E-01
 9.888661504E-01 8.143300074E-04 5.697185498E-01
 -5.000000000E-01 -1.000000000E+00 7.234269779E-01
 3.500000000E+00 -1.000000000E+00 7.282305114E-01
 3.500000000E+00 1.000000000E+00 7.085935275E-01
 -5.000000000E-01 1.000000000E+00 7.236792156E-01
 9.938188493E-01 1.840484969E-03 6.121444430E-01
 9.808412194E-01 4.525730968E-03 6.497400003E-01
 9.656918049E-01 7.660913747E-03 6.793042194E-01
 9.495853484E-01 1.098470623E-02 7.006138017E-01
 9.350432754E-01 1.399994828E-02 7.201763414E-01
 9.222200811E-01 1.665713498E-02 7.376244563E-01
 9.107853472E-01 1.899409853E-02 7.523407624E-01
 8.993285894E-01 2.129212022E-02 7.622374925E-01
 8.879675567E-01 2.355916798E-02 7.768366487E-01
 8.765172064E-01 2.581777517E-02 7.957293489E-01
 8.643181026E-01 2.811281104E-02 8.004053019E-01
 8.521891236E-01 3.035088815E-02 8.118880352E-01
 8.409774601E-01 3.239647113E-02 8.241041573E-01
 8.297725916E-01 3.436945193E-02 8.326542496E-01
 8.178262413E-01 3.641125746E-02 8.348016982E-01
 8.055808842E-01 3.848442808E-02 8.480509712E-01
 7.930517197E-01 4.056317173E-02 8.577642560E-01
 7.804333270E-01 4.258415103E-02 8.639945808E-01
 7.684655488E-01 4.446754605E-02 8.715228333E-01
 7.561018467E-01 4.637611844E-02 8.845585123E-01
 7.427067161E-01 4.837440513E-02 8.881554306E-01
 7.305168808E-01 5.015403777E-02 8.996376939E-01
 7.194458544E-01 5.174227245E-02 9.107517053E-01
 7.078368068E-01 5.334522389E-02 9.180748665E-01
 6.952962279E-01 5.501940846E-02 9.257577102E-01
 6.822634637E-01 5.669847876E-02 9.325738329E-01
 6.704604030E-01 5.816965550E-02 9.426807211E-01
 6.590936780E-01 5.952369794E-02 9.449026238E-01
 6.471684277E-01 6.088117696E-02 9.415612361E-01
 6.353135109E-01 6.216673926E-02 9.044618855E-01
 6.234569252E-01 6.339065358E-02 9.846667216E-01
 6.122497618E-01 6.449009851E-02 1.165647562E+00
 6.010517180E-01 6.551808491E-02 1.145738745E+00
 5.893613994E-01 6.652831286E-02 1.135804642E+00
 5.769225359E-01 6.751010194E-02 1.130474094E+00
 5.640971363E-01 6.844661012E-02 1.130757852E+00
 5.519194603E-01 6.926212460E-02 1.122129993E+00
 5.402845144E-01 6.995658204E-02 1.112995190E+00
 5.289023221E-01 7.055904716E-02 1.106173087E+00
 5.171065629E-01 7.110587135E-02 1.097991224E+00
 5.056182146E-01 7.157057896E-02 1.092810645E+00
 4.936732352E-01 7.197173685E-02 1.081674609E+00
 4.805998951E-01 7.231807336E-02 1.073184422E+00
 4.673852324E-01 7.259131595E-02 1.070919926E+00
 4.543208927E-01 7.277903706E-02 1.059292013E+00
 4.416799843E-01 7.287128642E-02 1.050817517E+00
 4.293552190E-01 7.290108502E-02 1.050334232E+00
 4.170217812E-01 7.285499573E-02 1.037174262E+00
 4.045917243E-01 7.272471115E-02 1.030225343E+00
 3.923353255E-01 7.253945619E-02 1.030909303E+00
 3.803437948E-01 7.229303569E-02 1.024075915E+00
 3.679623008E-01 7.195924222E-02 1.012675671E+00
 3.552363068E-01 7.154696062E-02 1.006518785E+00
 3.424247503E-01 7.105622441E-02 9.980293883E-01
 3.304769993E-01 7.054254040E-02 1.000730824E+00
 3.187547177E-01 6.997114792E-02 9.947142874E-01
 3.060140461E-01 6.926586479E-02 9.861364025E-01
 2.926536202E-01 6.844281778E-02 9.793823929E-01
 2.798187882E-01 6.757573411E-02 9.764847587E-01
 2.679695338E-01 6.669355184E-02 9.677340874E-01
 2.559354231E-01 6.572438776E-02 9.640120476E-01
 2.436327413E-01 6.465105340E-02 9.559953919E-01
 2.312785089E-01 6.348435208E-02 9.487580778E-01
 2.190673873E-01 6.224991567E-02 9.417970655E-01
 2.069327012E-01 6.093483791E-02 9.360861870E-01
 1.945105568E-01 5.949378759E-02 9.302667114E-01
 1.822090000E-01 5.795958266E-02 9.202229170E-01
 1.702878922E-01 5.637517013E-02 9.143499104E-01
 1.583826467E-01 5.468882993E-02 9.065307318E-01
 1.468682513E-01 5.294671841E-02 8.990046483E-01
 1.354224384E-01 5.109978653E-02 8.905614667E-01
 1.238596477E-01 4.910371825E-02 8.805460200E-01
 1.127829477E-01 4.705830850E-02 8.700401710E-01
 1.022740528E-01 4.499154538E-02 8.604816255E-01
 9.173336998E-02 4.277096875E-02 8.481924819E-01
 8.071198314E-02 4.027734511E-02 8.350389904E-01
 7.014777884E-02 3.769779578E-02 8.233745704E-01
 7.089525834E-02 -3.488751315E-02 8.510117328E-01
 8.087920398E-02 -3.703763708E-02 8.571607316E-01
 9.109655768E-02 -3.907511197E-02 8.652732890E-01
 1.019717604E-01 -4.108241014E-02 8.728235778E-01
 1.133479290E-01 -4.303338751E-02 8.781787656E-01
 1.249720119E-01 -4.489382915E-02 8.862896357E-01
 1.362933815E-01 -4.658908956E-02 8.927026544E-01
 1.474081650E-01 -4.815196432E-02 8.999602763E-01
 1.592752263E-01 -4.971251637E-02 9.075564546E-01
 1.712704226E-01 -5.118573457E-02 9.138022480E-01
 1.831347942E-01 -5.255087093E-02 9.212180873E-01
 1.946337298E-01 -5.379091948E-02 9.312072971E-01
 2.059400752E-01 -5.491815880E-02 9.373490239E-01
 2.180174142E-01 -5.603471212E-02 9.443772587E-01
 2.303805053E-01 -5.708490871E-02 9.539952217E-01
 2.425443530E-01 -5.802538432E-02 9.608661321E-01
 2.547388151E-01 -5.888306536E-02 9.716540793E-01
 2.664739490E-01 -5.961331911E-02 9.841387177E-01
 2.783067822E-01 -6.025383435E-02 9.889806530E-01
 2.905473709E-01 -6.081988290E-02 1.003935814E+00
 3.030293435E-01 -6.127825938E-02 1.006197788E+00
 3.155512810E-01 -6.164128520E-02 1.014165103E+00
 3.280079961E-01 -6.188927963E-02 1.025673600E+00
 3.399080336E-01 -6.201825105E-02 1.044192662E+00
 3.510996997E-01 -6.201848015E-02 1.056340013E+00
 3.622834533E-01 -6.191935204E-02 1.054792520E+00
 3.732803911E-01 -6.172645092E-02 1.044985128E+00
 3.848232031E-01 -6.141256168E-02 1.023499836E+00
 3.974414170E-01 -6.094193645E-02 1.007335899E+00
 4.103171080E-01 -6.032047421E-02 9.990753335E-01
 4.228927493E-01 -5.957609788E-02 9.806460982E-01
 4.353597909E-01 -5.872422643E-02 9.671389198E-01
 4.474177510E-01 -5.777686089E-02 9.533828758E-01
 4.592026174E-01 -5.674390309E-02 9.351576760E-01
 4.711294472E-01 -5.559686571E-02 9.213809268E-01
 4.831125438E-01 -5.433678254E-02 9.019471052E-01
 4.953429699E-01 -5.296813510E-02 8.845790087E-01
 5.083798766E-01 -5.142935365E-02 8.700642519E-01
 5.215394795E-01 -4.978980124E-02 8.536426545E-01
 5.342973769E-01 -4.812777601E-02 8.370295955E-01
 5.468268394E-01 -4.645393416E-02 8.242077867E-01
 5.597496331E-01 -4.467672296E-02 8.113190457E-01
 5.728144348E-01 -4.283640161E-02 7.975730110E-01
 5.854355693E-01 -4.102661461E-02 7.863135404E-01
 5.981906056E-01 -3.916777484E-02 7.734332000E-01
 6.117149591E-01 -3.718277626E-02 7.615003482E-01
 6.258505285E-01 -3.510518186E-02 7.508130776E-01
 6.402304173E-01 -3.298165649E-02 7.400506448E-01
 6.538412273E-01 -3.096884582E-02 7.288474198E-01
 6.667153537E-01 -2.908301912E-02 7.214100599E-01
 6.794560850E-01 -2.721914183E-02 7.131489776E-01
 6.918057203E-01 -2.541780006E-02 7.043911593E-01
 7.051680088E-01 -2.348207496E-02 6.957797541E-01
 7.187622488E-01 -2.152543142E-02 6.850637202E-01
 7.313001752E-01 -1.978309453E-02 6.799849927E-01
 7.441606522E-01 -1.800183859E-02 6.741257582E-01
 7.570921183E-01 -1.620493364E-02 6.614108316E-01
 7.702620924E-01 -1.446464378E-02 6.565561660E-01
 7.831570506E-01 -1.279327646E-02 6.500794723E-01
 7.955680490E-01 -1.120349113E-02 6.407859049E-01
 8.076230288E-01 -9.722514078E-03 6.331830229E-01
 8.190578520E-01 -8.390696486E-03 6.289375179E-01
 8.313920498E-01 -7.004050771E-03 6.227361353E-01
 8.441686630E-01 -5.625478225E-03 6.145055600E-01
 8.566597700E-01 -4.367913352E-03 6.078111616E-01
 8.682227135E-01 -3.286766005E-03 6.012520782E-01
 8.793014586E-01 -2.350691648E-03 5.959209024E-01
 8.914411664E-01 -1.454955374E-03 5.924646443E-01
 9.136074781E-01 -1.364683194E-04 5.846988803E-01
 9.243860245E-01 3.247273053E-04 5.836791486E-01
 9.445990026E-01 8.902189147E-04 5.813050001E-01
 9.568388164E-01 1.038318966E-03 5.811646028E-01
 9.699668288E-01 1.048122882E-03 5.798770172E-01
 9.827314317E-01 9.144798096E-04 5.739659934E-01
 9.945608079E-01 6.638389605E-04 5.657925471E-01
 -5.000000000E-01 9.500000000E-01 7.211022837E-01
 -5.000000000E-01 9.000000000E-01 7.171159590E-01
 -5.000000000E-01 8.500000000E-01 7.140108183E-01
 -5.000000000E-01 8.000000000E-01 7.113932925E-01
 -5.000000000E-01 7.500000000E-01 7.088414718E-01
 -5.000000000E-01 7.000000000E-01 7.063084264E-01
 -5.000000000E-01 6.500000000E-01 7.037430029E-01
 -5.000000000E-01 6.000000000E-01 7.011593905E-01
 -5.000000000E-01 5.500000000E-01 6.985443545E-01
 -5.000000000E-01 5.000000000E-01 6.958476007E-01
 -5.000000000E-01 4.500000000E-01 6.931121293E-01
 -5.000000000E-01 4.000000000E-01 6.903964010E-01
 -5.000000000E-01 3.500000000E-01 6.877331195E-01
 -5.000000000E-01 3.000000000E-01 6.852063075E-01
 -5.000000000E-01 2.500000000E-01 6.828580516E-01
 -5.000000000E-01 2.000000000E-01 6.807680192E-01
 -5.000000000E-01 1.500000000E-01 6.790713780E-01
 -5.000000000E-01 1.000000000E-01 6.777781471E-01
 -5.000000000E-01 5.000000000E-02 6.769800558E-01
 -5.000000000E-01 2.752242878E-12 6.767038874E-01
 -5.000000000E-01 -5.000000000E-02 6.769928431E-01
 -5.000000000E-01 -1.000000000E-01 6.777551812E-01
 -5.000000000E-01 -1.500000000E-01 6.790005523E-01
 -5.000000000E-01 -2.000000000E-01 6.807220206E-01
 -5.000000000E-01 -2.500000000E-01 6.827507190E-01
 -5.000000000E-01 -3.000000000E-01 6.850334307E-01
 -5.000000000E-01 -3.500000000E-01 6.874940262E-01
 -5.000000000E-01 -4.000000000E-01 6.900855030E-01
 -5.000000000E-01 -4.500000000E-01 6.927154081E-01
 -5.000000000E-01 -5.000000000E-01 6.953860102E-01
 -5.000000000E-01 -5.500000000E-01 6.980140191E-01
 -5.000000000E-01 -6.000000000E-01 7.005732243E-01
 -5.000000000E-01 -6.500000000E-01 7.031267297E-01
 -5.000000000E-01 -7.000000000E-01 7.056485369E-01
 -5.000000000E-01 -7.500000000E-01 7.081687054E-01
 -5.000000000E-01 -8.000000000E-01 7.107458948E-01
 -5.000000000E-01 -8.500000000E-01 7.135021319E-01
 -5.000000000E-01 -9.000000000E-01 7.166251542E-01
 -5.000000000E-01 -9.500000000E-01 7.207717414E-01
 -4.500000000E-01 -1.000000000E+00 7.205841786E-01
 -4.000000000E-01 -1.000000000E+00 7.165389567E-01
 -3.500000000E-01 -1.000000000E+00 7.139431186E-01
 -3.000000000E-01 -1.000000000E+00 7.121982088E-01
 -2.500000000E-01 -1.000000000E+00 7.111808671E-01
 -2.000000000E-01 -1.000000000E+00 7.107755104E-01
 -1.500000000E-01 -1.000000000E+00 7.110277723E-01
 -1.000000000E-01 -1.000000000E+00 7.119956298E-01
 -5.000000000E-02 -1.000000000E+00 7.134945441E-01
 -9.424683256E-13 -1.000000000E+00 7.156568278E-01
 5.000000000E-02 -1.000000000E+00 7.184825246E-01
 1.000000000E-01 -1.000000000E+00 7.217137083E-01
 1.500000000E-01 -1.000000000E+00 7.252254376E-01
 2.000000000E-01 -1.000000000E+00 7.288457257E-01
 2.500000000E-01 -1.000000000E+00 7.325422235E-01
 3.000000000E-01 -1.000000000E+00 7.359956896E-01
 3.500000000E-01 -1.000000000E+00 7.389169505E-01
 4.000000000E-01 -1.000000000E+00 7.412160465E-01
 4.500000000E-01 -1.000000000E+00 7.427966835E-01
 5.000000000E-01 -1.000000000E+00 7.436327547E-01
 5.500000000E-01 -1.000000000E+00 7.436587572E-01
 6.000000000E-01 -1.000000000E+00 7.429420024E-01
 6.500000000E-01 -1.000000000E+00 7.415193238E-01
 7.000000000E-01 -1.000000000E+00 7.396765891E-01
 7.500000000E-01 -1.000000000E+00 7.373781966E-01
 8.000000000E-01 -1.000000000E+00 7.347556581E-01
 8.500000000E-01 -1.000000000E+00 7.319894271E-01
 9.000000000E-01 -1.000000000E+00 7.292663150E-01
 9.500000000E-01 -1.000000000E+00 7.265470100E-01
 1.000000000E+00 -1.000000000E+00 7.239238797E-01
 1.050000000E+00 -1.000000000E+00 7.215268446E-01
 1.100000000E+00 -1.000000000E+00 7.194778231E-01
 1.150000000E+00 -1.000000000E+00 7.176778734E-01
 1.200000000E+00 -1.000000000E+00 7.161584339E-01
 1.250000000E+00 -1.000000000E+00 7.149463628E-01
 1.300000000E+00 -1.000000000E+00 7.139974532E-01
 1.350000000E+00 -1.000000000E+00 7.133143799E-01
 1.400000000E+00 -1.000000000E+00 7.128544795E-01
 1.450000000E+00 -1.000000000E+00 7.125808335E-01
 1.500000000E+00 -1.000000000E+00 7.125030244E-01
 1.550000000E+00 -1.000000000E+00 7.125731887E-01
 1.600000000E+00 -1.000000000E+00 7.126636595E-01
 1.650000000E+00 -1.000000000E+00 7.129207508E-01
 1.700000000E+00 -1.000000000E+00 7.132122700E-01
 1.750000000E+00 -1.000000000E+00 7.136532549E-01
 1.800000000E+00 -1.000000000E+00 7.141390199E-01
 1.850000000E+00 -1.000000000E+00 7.145888465E-01
 1.900000000E+00 -1.000000000E+00 7.150322586E-01
 1.950000000E+00 -1.000000000E+00 7.155423095E-01
 2.000000000E+00 -1.000000000E+00 7.160697952E-01
 2.050000000E+00 -1.000000000E+00 7.165376544E-01
 2.100000000E+00 -1.000000000E+00 7.170221611E-01
 2.150000000E+00 -1.000000000E+00 7.174963561E-01
 2.200000000E+00 -1.000000000E+00 7.179787556E-01
 2.250000000E+00 -1.000000000E+00 7.184333030E-01
 2.300000000E+00 -1.000000000E+00 7.188753914E-01
 2.350000000E+00 -1.000000000E+00 7.192784082E-01
 2.400000000E+00 -1.000000000E+00 7.197122556E-01
 2.450000000E+00 -1.000000000E+00 7.199283776E-01
 2.500000000E+00 -1.000000000E+00 7.203553602E-01
 2.550000000E+00 -1.000000000E+00 7.207410126E-01
 2.600000000E+00 -1.000000000E+00 7.210542252E-01
 2.650000000E+00 -1.000000000E+00 7.213180732E-01
 2.700000000E+00 -1.000000000E+00 7.215692875E-01
 2.750000000E+00 -1.000000000E+00 7.218450646E-01
 2.800000000E+00 -1.000000000E+00 7.220051315E-01
 2.850000000E+00 -1.000000000E+00 7.221604087E-01
 2.900000000E+00 -1.000000000E+00 7.223718076E-01
 2.950000000E+00 -1.000000000E+00 7.225686253E-01
 3.000000000E+00 -1.000000000E+00 7.226881822E-01
 3.050000000E+00 -1.000000000E+00 7.228905415E-01
 3.100000000E+00 -1.000000000E+00 7.230722049E-01
 3.150000000E+00 -1.000000000E+00 7.231969777E-01
 3.200000000E+00 -1.000000000E+00 7.233115459E-01
 3.250000000E+00 -1.000000000E+00 7.234676596E-01
 3.300000000E+00 -1.000000000E+00 7.236940523E-01
 3.350000000E+00 -1.000000000E+00 7.240536248E-01
 3.400000000E+00 -1.000000000E+00 7.245725981E-01
 3.450000000E+00 -1.000000000E+00 7.258019881E-01
 3.500000000E+00 -9.500000000E-01 7.297161428E-01
 3.500000000E+00 -9.000000000E-01 7.305074115E-01
 3.500000000E+00 -8.500000000E-01 7.310789742E-01
 3.500000000E+00 -8.000000000E-01 7.314935322E-01
 3.500000000E+00 -7.500000000E-01 7.318074332E-01
 3.500000000E+00 -7.000000000E-01 7.321061750E-01
 3.500000000E+00 -6.500000000E-01 7.324104949E-01
 3.500000000E+00 -6.000000000E-01 7.327430814E-01
 3.500000000E+00 -5.500000000E-01 7.331085590E-01
 3.500000000E+00 -5.000000000E-01 7.334777240E-01
 3.500000000E+00 -4.500000000E-01 7.338311005E-01
 3.500000000E+00 -4.000000000E-01 7.341911684E-01
 3.500000000E+00 -3.500000000E-01 7.345824930E-01
 3.500000000E+00 -3.000000000E-01 7.349856868E-01
 3.500000000E+00 -2.500000000E-01 7.353461058E-01
 3.500000000E+00 -2.000000000E-01 7.355749197E-01
 3.500000000E+00 -1.500000000E-01 7.356784108E-01
 3.500000000E+00 -1.000000000E-01 7.356908789E-01
 3.500000000E+00 -5.000000000E-02 7.356594150E-01
 3.500000000E+00 -2.752242878E-12 7.356458341E-01
 3.500000000E+00 5.000000000E-02 7.356205961E-01
 3.500000000E+00 1.000000000E-01 7.355170647E-01
 3.500000000E+00 1.500000000E-01 7.352820250E-01
 3.500000000E+00 2.000000000E-01 7.349306356E-01
 3.500000000E+00 2.500000000E-01 7.345355700E-01
 3.500000000E+00 3.000000000E-01 7.341442957E-01
 3.500000000E+00 3.500000000E-01 7.337677738E-01
 3.500000000E+00 4.000000000E-01 7.333892211E-01
 3.500000000E+00 4.500000000E-01 7.329824404E-01
 3.500000000E+00 5.000000000E-01 7.324993900E-01
 3.500000000E+00 5.500000000E-01 7.320537299E-01
 3.500000000E+00 6.000000000E-01 7.318953961E-01
 3.500000000E+00 6.500000000E-01 7.321706626E-01
 3.500000000E+00 7.000000000E-01 7.326142305E-01
 3.500000000E+00 7.500000000E-01 7.325501111E-01
 3.500000000E+00 8.000000000E-01 7.311638602E-01
 3.500000000E+00 8.500000000E-01 7.280614871E-01
 3.500000000E+00 9.000000000E-01 7.230774426E-01
 3.500000000E+00 9.500000000E-01 7.169051600E-01
 3.450000000E+00 1.000000000E+00 6.961022855E-01
 3.400000000E+00 1.000000000E+00 6.902513821E-01
 3.350000000E+00 1.000000000E+00 6.888495913E-01
 3.300000000E+00 1.000000000E+00 6.883353939E-01
 3.250000000E+00 1.000000000E+00 6.884241169E-01
 3.200000000E+00 1.000000000E+00 6.884986270E-01
 3.150000000E+00 1.000000000E+00 6.889193069E-01
 3.100000000E+00 1.000000000E+00 6.891376514E-01
 3.050000000E+00 1.000000000E+00 6.894856126E-01
 3.000000000E+00 1.000000000E+00 6.899845816E-01
 2.950000000E+00 1.000000000E+00 6.908163120E-01
 2.900000000E+00 1.000000000E+00 6.909616181E-01
 2.850000000E+00 1.000000000E+00 6.909756420E-01
 2.800000000E+00 1.000000000E+00 6.913446625E-01
 2.750000000E+00 1.000000000E+00 6.919366199E-01
 2.700000000E+00 1.000000000E+00 6.925353548E-01
 2.650000000E+00 1.000000000E+00 6.929150902E-01
 2.600000000E+00 1.000000000E+00 6.934905364E-01
 2.550000000E+00 1.000000000E+00 6.938272346E-01
 2.500000000E+00 1.000000000E+00 6.942158321E-01
 2.450000000E+00 1.000000000E+00 6.946941913E-01
 2.400000000E+00 1.000000000E+00 6.951044529E-01
 2.350000000E+00 1.000000000E+00 6.954625935E-01
 2.300000000E+00 1.000000000E+00 6.958477847E-01
 2.250000000E+00 1.000000000E+00 6.961908987E-01
 2.200000000E+00 1.000000000E+00 6.969330386E-01
 2.150000000E+00 1.000000000E+00 6.978449633E-01
 2.100000000E+00 1.000000000E+00 6.983271454E-01
 2.050000000E+00 1.000000000E+00 6.989684601E-01
 2.000000000E+00 1.000000000E+00 6.996130079E-01
 1.950000000E+00 1.000000000E+00 7.003561078E-01
 1.900000000E+00 1.000000000E+00 7.012756725E-01
 1.850000000E+00 1.000000000E+00 7.019314074E-01
 1.800000000E+00 1.000000000E+00 7.028876539E-01
 1.750000000E+00 1.000000000E+00 7.037841939E-01
 1.700000000E+00 1.000000000E+00 7.050573249E-01
 1.650000000E+00 1.000000000E+00 7.063793055E-01
 1.600000000E+00 1.000000000E+00 7.078475431E-01
 1.550000000E+00 1.000000000E+00 7.096450284E-01
 1.500000000E+00 1.000000000E+00 7.120939037E-01
 1.450000000E+00 1.000000000E+00 7.138290745E-01
 1.400000000E+00 1.000000000E+00 7.156424209E-01
 1.350000000E+00 1.000000000E+00 7.182370134E-01
 1.300000000E+00 1.000000000E+00 7.219415091E-01
 1.250000000E+00 1.000000000E+00 7.243886689E-01
 1.200000000E+00 1.000000000E+00 7.275172874E-01
 1.150000000E+00 1.000000000E+00 7.316208197E-01
 1.100000000E+00 1.000000000E+00 7.347618959E-01
 1.050000000E+00 1.000000000E+00 7.388399677E-01
 1.000000000E+00 1.000000000E+00 7.431083032E-01
 9.500000000E-01 1.000000000E+00 7.482532662E-01
 9.000000000E-01 1.000000000E+00 7.527668194E-01
 8.500000000E-01 1.000000000E+00 7.577433357E-01
 8.000000000E-01 1.000000000E+00 7.627011092E-01
 7.500000000E-01 1.000000000E+00 7.661403711E-01
 7.000000000E-01 1.000000000E+00 7.699029919E-01
 6.500000000E-01 1.000000000E+00 7.710624225E-01
 6.000000000E-01 1.000000000E+00 7.707168923E-01
 5.500000000E-01 1.000000000E+00 7.703084874E-01
 5.000000000E-01 1.000000000E+00 7.684812502E-01
 4.500000000E-01 1.000000000E+00 7.656508999E-01
 4.000000000E-01 1.000000000E+00 7.612007371E-01
 3.500000000E-01 1.000000000E+00 7.566611301E-01
 3.000000000E-01 1.000000000E+00 7.513585105E-01
 2.500000000E-01 1.000000000E+00 7.455157482E-01
 2.000000000E-01 1.000000000E+00 7.395495477E-01
 1.500000000E-01 1.000000000E+00 7.337923776E-01
 1.000000000E-01 1.000000000E+00 7.284987813E-01
 5.000000000E-02 1.000000000E+00 7.238833589E-01
 1.733724275E-12 1.000000000E+00 7.199763025E-01
 -5.000000000E-02 1.000000000E+00 7.168381993E-01
 -1.000000000E-01 1.000000000E+00 7.145201617E-01
 -1.500000000E-01 1.000000000E+00 7.130597392E-01
 -2.000000000E-01 1.000000000E+00 7.123527233E-01
 -2.500000000E-01 1.000000000E+00 7.124362591E-01
 -3.000000000E-01 1.000000000E+00 7.131906441E-01
 -3.500000000E-01 1.000000000E+00 7.147549493E-01
 -4.000000000E-01 1.000000000E+00 7.172126844E-01
 -4.500000000E-01 1.000000000E+00 7.209691854E-01
 1.973476877E+00 -9.577418734E-01 7.176598353E-01
 1.972366827E+00 9.531904714E-01 7.122241191E-01
 9.271095663E-01 -4.006756642E-03 5.859343348E-01
 8.480099976E-01 -1.057121556E-02 6.149926326E-01
 7.744537705E-01 -1.951006312E-02 6.564959278E-01
 7.037606438E-01 -2.849969974E-02 6.978679714E-01
 6.311787188E-01 -4.001757550E-02 7.478517729E-01
 5.571672934E-01 -5.074246763E-02 8.147809994E-01
 4.930040117E-01 -5.832370641E-02 8.866019384E-01
 4.331509176E-01 -6.474477972E-02 9.644325565E-01
 3.769264398E-01 -6.664990941E-02 1.033509654E+00
 3.248523262E-01 -6.659785420E-02 1.019232320E+00
 2.634114476E-01 -6.428160768E-02 9.780183231E-01
 2.083762659E-01 -6.026045561E-02 9.357143931E-01
 1.496769073E-01 -5.330340425E-02 8.987202905E-01
 9.837407261E-02 -4.498599757E-02 8.665569966E-01
 9.860766261E-01 -3.896897555E-03 5.783950038E-01