TITLE     = "Visualization of the solution"
VARIABLES = "x"
"y"
"Mach"
ZONE T="Zone"
 STRANDID=0, SOLUTIONTIME=0
 Nodes=12113, Elements=23646, ZONETYPE=FEQuadrilateral
 DATAPACKING=POINT
 DT=(DOUBLE DOUBLE DOUBLE )
 9.998323321E-01 5.110147758E-04 5.626654599E-01
 9.856583476E-01 3.074874403E-03 6.580909212E-01
 9.723823071E-01 5.524820182E-03 6.859797767E-01
 9.566959739E-01 8.407981135E-03 7.053182247E-01
 9.427730441E-01 1.104270201E-02 7.319950690E-01
 9.287821651E-01 1.354349311E-02 7.421977742E-01
 9.171037078E-01 1.562709175E-02 7.540371319E-01
 9.044809341E-01 1.786473207E-02 7.667151053E-01
 8.928744793E-01 1.993111707E-02 7.869052092E-01
 8.802335262E-01 2.202101052E-02 7.893752809E-01
 8.678294420E-01 2.407938428E-02 8.011385689E-01
 8.558044434E-01 2.602865733E-02 8.117703528E-01
 8.435386419E-01 2.795866318E-02 8.198478498E-01
 8.322817087E-01 2.967892587E-02 8.258971043E-01
 8.209088445E-01 3.140440956E-02 8.359098121E-01
 8.083546758E-01 3.322109580E-02 8.378479610E-01
 7.958988547E-01 3.503326699E-02 8.496944805E-01
 7.841749191E-01 3.667587787E-02 8.555128240E-01
 7.721132040E-01 3.833103180E-02 8.624650247E-01
 7.604114413E-01 3.989698365E-02 8.678492418E-01
 7.477509975E-01 4.155389220E-02 8.732695026E-01
 7.345021963E-01 4.327760637E-02 8.863489351E-01
 7.239151001E-01 4.460810870E-02 8.939053556E-01
 7.127883434E-01 4.595952481E-02 8.988539003E-01
 7.013297677E-01 4.732363671E-02 9.065966511E-01
 6.879271269E-01 4.887422547E-02 9.169042332E-01
 6.750654578E-01 5.031041056E-02 9.291504386E-01
 6.648942828E-01 5.139371008E-02 9.345194981E-01
 6.532912254E-01 5.258287489E-02 9.427840064E-01
 6.420910358E-01 5.369582400E-02 9.506570672E-01
 6.303166747E-01 5.478743836E-02 9.566484106E-01
 6.191945672E-01 5.581562221E-02 9.756369899E-01
 6.082472801E-01 5.672827363E-02 9.751174492E-01
 5.958703756E-01 5.770815164E-02 9.840772724E-01
 5.841865540E-01 5.858730152E-02 9.969528204E-01
 5.706821084E-01 5.951269343E-02 1.002177019E+00
 5.580268502E-01 6.029430032E-02 1.006506816E+00
 5.455836654E-01 6.099131703E-02 1.020078128E+00
 5.343189240E-01 6.155439839E-02 1.037307163E+00
 5.226340294E-01 6.208465993E-02 1.046172915E+00
 5.098379254E-01 6.257843226E-02 1.042955760E+00
 4.986714423E-01 6.293944269E-02 1.037228493E+00
 4.854836464E-01 6.329503655E-02 1.031603491E+00
 4.721034765E-01 6.354853511E-02 1.027283294E+00
 4.577153027E-01 6.376357377E-02 1.028828753E+00
 4.439381361E-01 6.385843456E-02 1.016792541E+00
 4.306322038E-01 6.386226416E-02 1.008931605E+00
 4.174198806E-01 6.380574405E-02 1.006137089E+00
 4.047873914E-01 6.366906315E-02 1.000075949E+00
 3.919607401E-01 6.347168982E-02 9.958880365E-01
 3.794462979E-01 6.319662184E-02 9.884574347E-01
 3.679940403E-01 6.289654225E-02 9.827782658E-01
 3.548022807E-01 6.247553602E-02 9.762126636E-01
 3.425396979E-01 6.202781200E-02 9.720055609E-01
 3.298503160E-01 6.149859726E-02 9.698474696E-01
 3.191860020E-01 6.100019813E-02 9.653956508E-01
 3.067882359E-01 6.034737453E-02 9.574792480E-01
 2.935731113E-01 5.957845971E-02 9.498528463E-01
 2.796499431E-01 5.869165063E-02 9.442193567E-01
 2.671074271E-01 5.782336742E-02 9.400568733E-01
 2.551018000E-01 5.692311749E-02 9.336616572E-01
 2.424373925E-01 5.589694902E-02 9.262348258E-01
 2.296361476E-01 5.479875579E-02 9.230623659E-01
 2.173039466E-01 5.365598202E-02 9.165203770E-01
 2.055205703E-01 5.249166116E-02 9.105179092E-01
 1.940815747E-01 5.130048841E-02 9.066266015E-01
 1.815290749E-01 4.990233108E-02 8.999248033E-01
 1.695373058E-01 4.846907407E-02 8.910716821E-01
 1.578858197E-01 4.701095819E-02 8.860500414E-01
 1.460012943E-01 4.543378204E-02 8.809285800E-01
 1.352615505E-01 4.391587526E-02 8.735787345E-01
 1.238432229E-01 4.221218079E-02 8.673053299E-01
 1.124973074E-01 4.041247070E-02 8.608647362E-01
 1.019491106E-01 3.862632439E-02 8.521909235E-01
 9.222499281E-02 3.687859699E-02 8.461046267E-01
 8.131121844E-02 3.479283303E-02 8.378537159E-01
 6.979933381E-02 3.240788355E-02 8.264312005E-01
 6.027301028E-02 3.027396463E-02 8.169460406E-01
 5.089335144E-02 2.800536342E-02 8.062055336E-01
 4.231451824E-02 2.572452463E-02 7.933018911E-01
 3.499800339E-02 2.359613776E-02 7.796642502E-01
 2.855813690E-02 2.153598145E-02 7.653138944E-01
 2.313445136E-02 1.962676458E-02 7.522929029E-01
 1.920632832E-02 1.810642704E-02 7.346140317E-01
 1.552004833E-02 1.653904095E-02 7.162871987E-01
 1.279267855E-02 1.527485438E-02 6.988307316E-01
 1.036892273E-02 1.404138841E-02 6.804071575E-01
 8.589815348E-03 1.305748150E-02 6.638568660E-01
 6.975309458E-03 1.208737586E-02 6.462882196E-01
 5.467764102E-03 1.109076198E-02 6.129177887E-01
 3.488190006E-03 9.612725116E-03 5.712155671E-01
 1.809051377E-03 8.108583279E-03 5.209311843E-01
 3.895714181E-04 6.523193326E-03 4.319524091E-01
 -9.556922596E-04 4.400476348E-03 3.139372392E-01
 -1.577561139E-03 2.731387736E-03 1.966864143E-01
 -1.812334056E-03 1.380449976E-03 7.950436134E-02
 -1.793818083E-03 -2.156372066E-04 3.560701933E-02
 -1.406244119E-03 -1.994815888E-03 1.529398785E-01
 -5.149830249E-04 -4.028579686E-03 2.794328074E-01
 9.218314080E-04 -6.170110777E-03 3.908224789E-01
 2.970636124E-03 -8.417803794E-03 4.775010325E-01
 4.834058229E-03 -1.007244922E-02 5.389489150E-01
 6.973649375E-03 -1.170951966E-02 5.831862619E-01
 8.602455258E-03 -1.282750815E-02 6.183071657E-01
 1.063030213E-02 -1.409170497E-02 6.441200252E-01
 1.300787460E-02 -1.544611994E-02 6.712526616E-01
 1.621711440E-02 -1.710516028E-02 7.003210442E-01
 1.924048550E-02 -1.852113567E-02 7.254927730E-01
 2.310901694E-02 -2.017198876E-02 7.439585696E-01
 2.842267975E-02 -2.222493477E-02 7.642251810E-01
 3.403543308E-02 -2.416996099E-02 7.844028168E-01
 4.107162356E-02 -2.636518329E-02 8.006309599E-01
 4.855640605E-02 -2.847734839E-02 8.151945963E-01
 5.717770010E-02 -3.067944944E-02 8.260375133E-01
 6.583212316E-02 -3.269359469E-02 8.346771799E-01
 7.585923374E-02 -3.483882919E-02 8.442470838E-01
 8.569672704E-02 -3.678309545E-02 8.504218239E-01
 9.613140672E-02 -3.869096562E-02 8.589922061E-01
 1.070429757E-01 -4.054480791E-02 8.646074016E-01
 1.184486523E-01 -4.235177487E-02 8.714337459E-01
 1.299015135E-01 -4.405236244E-02 8.789395283E-01
 1.405375302E-01 -4.553053901E-02 8.848840585E-01
 1.514632106E-01 -4.696447030E-02 8.911814236E-01
 1.632415354E-01 -4.841189086E-02 8.967633999E-01
 1.748991758E-01 -4.976027831E-02 9.046475192E-01
 1.867450029E-01 -5.104304105E-02 9.123235553E-01
 1.972971559E-01 -5.211145803E-02 9.192728919E-01
 2.085848302E-01 -5.317915976E-02 9.256281212E-01
 2.208538055E-01 -5.425791442E-02 9.339641937E-01
 2.333659530E-01 -5.526056886E-02 9.409897638E-01
 2.455608994E-01 -5.616140366E-02 9.515524509E-01
 2.580665052E-01 -5.697747692E-02 9.585865440E-01
 2.692674696E-01 -5.763826519E-02 9.679421383E-01
 2.820785344E-01 -5.829599872E-02 9.774545148E-01
 2.945714295E-01 -5.883178860E-02 9.873769105E-01
 3.073185384E-01 -5.926731229E-02 9.945687106E-01
 3.190858960E-01 -5.957889184E-02 1.004867123E+00
 3.315506876E-01 -5.979442224E-02 1.014549238E+00
 3.422094285E-01 -5.987666920E-02 1.017680903E+00
 3.536463380E-01 -5.989381298E-02 1.026467303E+00
 3.647046685E-01 -5.978539959E-02 1.029750088E+00
 3.755081892E-01 -5.958385020E-02 1.019346470E+00
 3.872107267E-01 -5.928793177E-02 1.016888564E+00
 3.998074830E-01 -5.880648270E-02 1.006433097E+00
 4.121188223E-01 -5.821989104E-02 9.923488788E-01
 4.252502620E-01 -5.744027346E-02 9.739439007E-01
 4.378309548E-01 -5.657421052E-02 9.596640084E-01
 4.506263137E-01 -5.557936057E-02 9.504793627E-01
 4.627344906E-01 -5.447325483E-02 9.262973830E-01
 4.753281772E-01 -5.324961245E-02 9.101067074E-01
 4.871160686E-01 -5.200121924E-02 8.940964370E-01
 4.995256066E-01 -5.061532557E-02 8.795949432E-01
 5.132606030E-01 -4.898795113E-02 8.648845417E-01
 5.268024802E-01 -4.726134241E-02 8.437805154E-01
 5.401359797E-01 -4.553083330E-02 8.313674286E-01
 5.535477400E-01 -4.370759055E-02 8.142925750E-01
 5.666450858E-01 -4.190500081E-02 8.034635116E-01
 5.798221827E-01 -4.002850875E-02 7.888635137E-01
 5.921196342E-01 -3.824701533E-02 7.747136756E-01
 6.047284603E-01 -3.644913808E-02 7.673103432E-01
 6.181852818E-01 -3.448826447E-02 7.548738282E-01
 6.325243115E-01 -3.240103647E-02 7.447447005E-01
 6.462584138E-01 -3.038610704E-02 7.336649249E-01
 6.595544219E-01 -2.843016014E-02 7.223494081E-01
 6.732450128E-01 -2.646014094E-02 7.153354216E-01
 6.857063174E-01 -2.466550842E-02 7.070818154E-01
 6.980332136E-01 -2.288973145E-02 6.973880146E-01
 7.125566006E-01 -2.083560638E-02 6.879229414E-01
 7.257384658E-01 -1.904363371E-02 6.848488631E-01
 7.371503711E-01 -1.744022593E-02 6.726437344E-01
 7.498554587E-01 -1.573618874E-02 6.667028240E-01
 7.624999881E-01 -1.407549065E-02 6.594644496E-01
 7.755491734E-01 -1.241109706E-02 6.525061649E-01
 7.874992490E-01 -1.092994865E-02 6.463625767E-01
 8.002664447E-01 -9.392830543E-03 6.399549757E-01
 8.111101389E-01 -8.114060387E-03 6.326354643E-01
 8.222681284E-01 -6.835515611E-03 6.237358881E-01
 8.348525167E-01 -5.518948194E-03 6.195202845E-01
 8.473123908E-01 -4.291093443E-03 6.134657143E-01
 8.592749834E-01 -3.191427328E-03 6.070116674E-01
 8.711502552E-01 -2.210881561E-03 6.025855127E-01
 8.830233812E-01 -1.328745042E-03 5.978457655E-01
 8.960598707E-01 -4.932312295E-04 5.931293677E-01
 9.062582254E-01 4.290921788E-05 5.906905840E-01
 9.169575572E-01 4.918904742E-04 5.898690416E-01
 9.266853333E-01 8.131047362E-04 5.890003474E-01
 9.358391166E-01 1.036872622E-03 5.882472487E-01
 9.482448101E-01 1.210118760E-03 5.885526170E-01
 9.619688392E-01 1.243194216E-03 5.885725273E-01
 9.763374925E-01 1.106234384E-03 5.872340273E-01
 9.891005754E-01 8.424128755E-04 5.807757329E-01
 -5.000000000E-01 -1.000000000E+00 7.240712279E-01
 3.500000000E+00 -1.000000000E+00 7.281150842E-01
 3.500000000E+00 1.000000000E+00 7.126631730E-01
 -5.000000000E-01 1.000000000E+00 7.244730602E-01
 9.927453399E-01 1.792944589E-03 6.400363775E-01
 9.790203273E-01 4.299847293E-03 6.725917499E-01
 9.645391405E-01 6.966400659E-03 6.956340516E-01
 9.497345090E-01 9.725341573E-03 7.196415836E-01
 9.357776046E-01 1.229309756E-02 7.376196629E-01
 9.229429364E-01 1.458529243E-02 7.483113154E-01
 9.107923210E-01 1.674591191E-02 7.593282758E-01
 8.986777067E-01 1.889792457E-02 7.785901468E-01
 8.865540028E-01 2.097606380E-02 7.876206837E-01
 8.740314841E-01 2.305019740E-02 7.951269892E-01
 8.618169427E-01 2.505402081E-02 8.066045559E-01
 8.496715426E-01 2.699366026E-02 8.162026061E-01
 8.379101753E-01 2.881879453E-02 8.222965181E-01
 8.265952766E-01 3.054166771E-02 8.321472183E-01
 8.146317601E-01 3.231275268E-02 8.358288852E-01
 8.021267653E-01 3.412718140E-02 8.440631012E-01
 7.900368869E-01 3.585457243E-02 8.527080821E-01
 7.781440616E-01 3.750345483E-02 8.590461724E-01
 7.662623227E-01 3.911400773E-02 8.654712952E-01
 7.540812194E-01 4.072543792E-02 8.697076615E-01
 7.411265969E-01 4.241574928E-02 8.797852753E-01
 7.292086482E-01 4.394285753E-02 8.908964567E-01
 7.183517218E-01 4.528381675E-02 8.961103694E-01
 7.070590556E-01 4.664158076E-02 9.026216517E-01
 6.946284473E-01 4.809893109E-02 9.113423595E-01
 6.814962924E-01 4.959231801E-02 9.232335650E-01
 6.699798703E-01 5.085206032E-02 9.325074265E-01
 6.590927541E-01 5.198829249E-02 9.375401153E-01
 6.476911306E-01 5.313934945E-02 9.486596107E-01
 6.362038553E-01 5.424163118E-02 9.505574164E-01
 6.247556210E-01 5.530153029E-02 9.688765507E-01
 6.137209237E-01 5.627194792E-02 9.754011245E-01
 6.020588279E-01 5.721821263E-02 9.780670011E-01
 5.900284648E-01 5.814772658E-02 9.915746753E-01
 5.774343312E-01 5.904999748E-02 1.000162689E+00
 5.643544793E-01 5.990349688E-02 1.003483777E+00
 5.518052578E-01 6.064280868E-02 1.012244279E+00
 5.399512947E-01 6.127285771E-02 1.028607883E+00
 5.284764767E-01 6.181952916E-02 1.044143711E+00
 5.162359774E-01 6.233154610E-02 1.044998178E+00
 5.042546839E-01 6.275893748E-02 1.039945264E+00
 4.920775443E-01 6.311723962E-02 1.035389781E+00
 4.787935615E-01 6.342178583E-02 1.027236643E+00
 4.649093896E-01 6.365605444E-02 1.030034073E+00
 4.508267194E-01 6.381100416E-02 1.023185851E+00
 4.372851700E-01 6.386034936E-02 1.011480242E+00
 4.240260422E-01 6.383400410E-02 1.008127493E+00
 4.111036360E-01 6.373740360E-02 1.002565269E+00
 3.983740658E-01 6.357037649E-02 9.988063817E-01
 3.857035190E-01 6.333415583E-02 9.914657955E-01
 3.737201691E-01 6.304658204E-02 9.863536844E-01
 3.613981605E-01 6.268603913E-02 9.788619212E-01
 3.486709893E-01 6.225167401E-02 9.741337068E-01
 3.361950070E-01 6.176320463E-02 9.704577296E-01
 3.245181590E-01 6.124939770E-02 9.685754135E-01
 3.129871190E-01 6.067378633E-02 9.614332958E-01
 3.001806736E-01 5.996291712E-02 9.535740385E-01
 2.866115272E-01 5.913505517E-02 9.466273598E-01
 2.733786851E-01 5.825750902E-02 9.421337440E-01
 2.611046135E-01 5.737324245E-02 9.374500681E-01
 2.487695962E-01 5.641003326E-02 9.293005271E-01
 2.360367700E-01 5.534785241E-02 9.248156886E-01
 2.234700471E-01 5.422736891E-02 9.199753879E-01
 2.114122584E-01 5.307382159E-02 9.130502495E-01
 1.998010725E-01 5.189607479E-02 9.088965644E-01
 1.878053248E-01 5.060140975E-02 9.036928265E-01
 1.755331904E-01 4.918570258E-02 8.949151437E-01
 1.637115628E-01 4.774001613E-02 8.886207793E-01
 1.519435570E-01 4.622237012E-02 8.835012734E-01
 1.406314224E-01 4.467482865E-02 8.773842625E-01
 1.295523867E-01 4.306402802E-02 8.704738440E-01
 1.181702651E-01 4.131232575E-02 8.640031592E-01
 1.072232090E-01 3.951939754E-02 8.574406467E-01
 8.676810563E-02 3.583571501E-02 8.421500894E-01
 7.555527613E-02 3.360035829E-02 8.330222338E-01
 7.084567845E-02 -3.376621194E-02 8.401811901E-01
 9.091406688E-02 -3.773703054E-02 8.564021525E-01
 1.015871912E-01 -3.961788677E-02 8.616101678E-01
 1.127458140E-01 -4.144829139E-02 8.679065722E-01
 1.241750829E-01 -4.320206866E-02 8.751050801E-01
 1.352195218E-01 -4.479145072E-02 8.824284398E-01
 1.460003704E-01 -4.624750465E-02 8.878221661E-01
 1.573523730E-01 -4.768818058E-02 8.939461781E-01
 1.690703556E-01 -4.908608459E-02 9.004505720E-01
 1.808220893E-01 -5.040165968E-02 9.085380625E-01
 1.920210794E-01 -5.157724954E-02 9.161133450E-01
 2.029409930E-01 -5.264530890E-02 9.224063541E-01
 2.147193179E-01 -5.371853709E-02 9.293882741E-01
 2.271098793E-01 -5.475924164E-02 9.376884303E-01
 2.394634262E-01 -5.571098626E-02 9.458320558E-01
 2.518137023E-01 -5.656944029E-02 9.556339189E-01
 2.636669874E-01 -5.730787106E-02 9.631565672E-01
 2.756730020E-01 -5.796713196E-02 9.722472547E-01
 2.883249819E-01 -5.856389366E-02 9.828291975E-01
 3.009449840E-01 -5.904955044E-02 9.910426415E-01
 3.132022172E-01 -5.942310207E-02 9.994095899E-01
 3.253182918E-01 -5.968665704E-02 1.009728971E+00
 3.368800581E-01 -5.983554572E-02 1.017678159E+00
 3.479278833E-01 -5.988524109E-02 1.020041401E+00
 3.591755033E-01 -5.983960629E-02 1.030607120E+00
 3.701064289E-01 -5.968462490E-02 1.025555048E+00
 3.813594580E-01 -5.943589099E-02 1.016234697E+00
 3.935091048E-01 -5.904720724E-02 1.013748659E+00
 4.059631526E-01 -5.851318687E-02 9.991751845E-01
 4.186845422E-01 -5.783008225E-02 9.834445078E-01
 4.315406084E-01 -5.700724199E-02 9.661067249E-01
 4.442286342E-01 -5.607678555E-02 9.549323487E-01
 4.566804022E-01 -5.502630770E-02 9.405878020E-01
 4.690313339E-01 -5.386143364E-02 9.161217694E-01
 4.812221229E-01 -5.262541585E-02 9.029983984E-01
 4.933208376E-01 -5.130827241E-02 8.863542352E-01
 5.063931048E-01 -4.980163835E-02 8.724511040E-01
 5.200315416E-01 -4.812464677E-02 8.548094167E-01
 5.334692299E-01 -4.639608786E-02 8.366907228E-01
 5.468418598E-01 -4.461921193E-02 8.232947202E-01
 5.600964129E-01 -4.280629568E-02 8.082836230E-01
 5.732336342E-01 -4.096675478E-02 7.966157024E-01
 5.859709084E-01 -3.913776204E-02 7.814560058E-01
 5.984240472E-01 -3.734807670E-02 7.706781796E-01
 6.114568710E-01 -3.546870127E-02 7.615032989E-01
 6.253547966E-01 -3.344465047E-02 7.495230130E-01
 6.393913627E-01 -3.139357176E-02 7.392969683E-01
 6.529064178E-01 -2.940813359E-02 7.278673625E-01
 6.663997173E-01 -2.744515054E-02 7.185963169E-01
 6.794756651E-01 -2.556282468E-02 7.113107851E-01
 6.918697655E-01 -2.377761994E-02 7.023320584E-01
 7.052949071E-01 -2.186266892E-02 6.925159414E-01
 7.191475332E-01 -1.993962005E-02 6.860222127E-01
 7.314444184E-01 -1.824192982E-02 6.792571180E-01
 7.435029149E-01 -1.658820733E-02 6.693658890E-01
 7.561777234E-01 -1.490583969E-02 6.631368958E-01
 7.690245807E-01 -1.324329386E-02 6.559635493E-01
 7.815242112E-01 -1.167052286E-02 6.493333004E-01
 7.938828468E-01 -1.016138960E-02 6.433084238E-01
 8.056882918E-01 -8.753445465E-03 6.363530392E-01
 8.166891336E-01 -7.474787999E-03 6.280839189E-01
 8.285603225E-01 -6.177231902E-03 6.215780925E-01
 8.410824537E-01 -4.905020818E-03 6.165623809E-01
 8.532936871E-01 -3.741260385E-03 6.102490287E-01
 8.652126193E-01 -2.701154444E-03 6.046517416E-01
 8.770868182E-01 -1.769813302E-03 6.001842242E-01
 8.895416260E-01 -9.109881357E-04 5.957664896E-01
 9.011590481E-01 -2.251610058E-04 5.912366464E-01
 9.116078913E-01 2.673998461E-04 5.903204279E-01
 9.420419633E-01 1.123495691E-03 5.884485697E-01
 9.551068246E-01 1.226656488E-03 5.885903813E-01
 9.691531658E-01 1.174714300E-03 5.885469550E-01
 9.827190340E-01 9.743236296E-04 5.829918436E-01
 9.944664538E-01 6.767138257E-04 5.810906870E-01
 -5.000000000E-01 9.500000000E-01 7.222659682E-01
 -5.000000000E-01 9.000000000E-01 7.187989906E-01
 -5.000000000E-01 8.500000000E-01 7.161587182E-01
 -5.000000000E-01 8.000000000E-01 7.138210926E-01
 -5.000000000E-01 7.500000000E-01 7.116023984E-01
 -5.000000000E-01 7.000000000E-01 7.094040942E-01
 -5.000000000E-01 6.500000000E-01 7.071959437E-01
 -5.000000000E-01 6.000000000E-01 7.049018140E-01
 -5.000000000E-01 5.500000000E-01 7.025481367E-01
 -5.000000000E-01 5.000000000E-01 7.001593269E-01
 -5.000000000E-01 4.500000000E-01 6.977259366E-01
 -5.000000000E-01 4.000000000E-01 6.953023484E-01
 -5.000000000E-01 3.500000000E-01 6.929021851E-01
 -5.000000000E-01 3.000000000E-01 6.905846442E-01
 -5.000000000E-01 2.500000000E-01 6.883992488E-01
 -5.000000000E-01 2.000000000E-01 6.865822537E-01
 -5.000000000E-01 1.500000000E-01 6.849214979E-01
 -5.000000000E-01 1.000000000E-01 6.837277375E-01
 -5.000000000E-01 5.000000000E-02 6.829446179E-01
 -5.000000000E-01 2.752242878E-12 6.825834883E-01
 -5.000000000E-01 -5.000000000E-02 6.827752493E-01
 -5.000000000E-01 -1.000000000E-01 6.834236364E-01
 -5.000000000E-01 -1.500000000E-01 6.844723593E-01
 -5.000000000E-01 -2.000000000E-01 6.859564068E-01
 -5.000000000E-01 -2.500000000E-01 6.877310947E-01
 -5.000000000E-01 -3.000000000E-01 6.897407085E-01
 -5.000000000E-01 -3.500000000E-01 6.919382246E-01
 -5.000000000E-01 -4.000000000E-01 6.942422314E-01
 -5.000000000E-01 -4.500000000E-01 6.966168089E-01
 -5.000000000E-01 -5.000000000E-01 6.989819061E-01
 -5.000000000E-01 -5.500000000E-01 7.013406091E-01
 -5.000000000E-01 -6.000000000E-01 7.036724639E-01
 -5.000000000E-01 -6.500000000E-01 7.059429227E-01
 -5.000000000E-01 -7.000000000E-01 7.082077698E-01
 -5.000000000E-01 -7.500000000E-01 7.104591183E-01
 -5.000000000E-01 -8.000000000E-01 7.127705574E-01
 -5.000000000E-01 -8.500000000E-01 7.152197109E-01
 -5.000000000E-01 -9.000000000E-01 7.180231407E-01
 -5.000000000E-01 -9.500000000E-01 7.217085619E-01
 -4.500000000E-01 -1.000000000E+00 7.215629027E-01
 -4.000000000E-01 -1.000000000E+00 7.179480771E-01
 -3.500000000E-01 -1.000000000E+00 7.156702573E-01
 -3.000000000E-01 -1.000000000E+00 7.141316853E-01
 -2.500000000E-01 -1.000000000E+00 7.131931424E-01
 -2.000000000E-01 -1.000000000E+00 7.129110892E-01
 -1.500000000E-01 -1.000000000E+00 7.132377436E-01
 -1.000000000E-01 -1.000000000E+00 7.141352739E-01
 -5.000000000E-02 -1.000000000E+00 7.155562612E-01
 -9.424683256E-13 -1.000000000E+00 7.176349881E-01
 5.000000000E-02 -1.000000000E+00 7.202702815E-01
 1.000000000E-01 -1.000000000E+00 7.232272894E-01
 1.500000000E-01 -1.000000000E+00 7.265128670E-01
 2.000000000E-01 -1.000000000E+00 7.300508868E-01
 2.500000000E-01 -1.000000000E+00 7.333790971E-01
 3.000000000E-01 -1.000000000E+00 7.365445945E-01
 3.500000000E-01 -1.000000000E+00 7.394149413E-01
 4.000000000E-01 -1.000000000E+00 7.417892640E-01
 4.500000000E-01 -1.000000000E+00 7.431260046E-01
 5.000000000E-01 -1.000000000E+00 7.437303201E-01
 5.500000000E-01 -1.000000000E+00 7.437002914E-01
 6.000000000E-01 -1.000000000E+00 7.429946471E-01
 6.500000000E-01 -1.000000000E+00 7.417473878E-01
 7.000000000E-01 -1.000000000E+00 7.400294816E-01
 7.500000000E-01 -1.000000000E+00 7.378664716E-01
 8.000000000E-01 -1.000000000E+00 7.353945614E-01
 8.500000000E-01 -1.000000000E+00 7.327588999E-01
 9.000000000E-01 -1.000000000E+00 7.301747845E-01
 9.500000000E-01 -1.000000000E+00 7.275521838E-01
 1.000000000E+00 -1.000000000E+00 7.251574671E-01
 1.050000000E+00 -1.000000000E+00 7.228930808E-01
 1.100000000E+00 -1.000000000E+00 7.209268491E-01
 1.150000000E+00 -1.000000000E+00 7.191744632E-01
 1.200000000E+00 -1.000000000E+00 7.177605650E-01
 1.250000000E+00 -1.000000000E+00 7.166290012E-01
 1.300000000E+00 -1.000000000E+00 7.157442825E-01
 1.350000000E+00 -1.000000000E+00 7.151131529E-01
 1.400000000E+00 -1.000000000E+00 7.146210994E-01
 1.450000000E+00 -1.000000000E+00 7.143967795E-01
 1.500000000E+00 -1.000000000E+00 7.142768195E-01
 1.550000000E+00 -1.000000000E+00 7.142859374E-01
 1.600000000E+00 -1.000000000E+00 7.144282959E-01
 1.650000000E+00 -1.000000000E+00 7.146413465E-01
 1.700000000E+00 -1.000000000E+00 7.148952771E-01
 1.750000000E+00 -1.000000000E+00 7.153011822E-01
 1.800000000E+00 -1.000000000E+00 7.157429895E-01
 1.850000000E+00 -1.000000000E+00 7.160911460E-01
 1.900000000E+00 -1.000000000E+00 7.164560473E-01
 1.950000000E+00 -1.000000000E+00 7.168850228E-01
 2.000000000E+00 -1.000000000E+00 7.173225408E-01
 2.050000000E+00 -1.000000000E+00 7.177149042E-01
 2.100000000E+00 -1.000000000E+00 7.181848778E-01
 2.150000000E+00 -1.000000000E+00 7.185155674E-01
 2.200000000E+00 -1.000000000E+00 7.188533862E-01
 2.250000000E+00 -1.000000000E+00 7.193039816E-01
 2.300000000E+00 -1.000000000E+00 7.197371335E-01
 2.350000000E+00 -1.000000000E+00 7.201149773E-01
 2.400000000E+00 -1.000000000E+00 7.204504913E-01
 2.450000000E+00 -1.000000000E+00 7.207860496E-01
 2.500000000E+00 -1.000000000E+00 7.210532627E-01
 2.550000000E+00 -1.000000000E+00 7.213434341E-01
 2.600000000E+00 -1.000000000E+00 7.215708552E-01
 2.650000000E+00 -1.000000000E+00 7.218173419E-01
 2.700000000E+00 -1.000000000E+00 7.220469118E-01
 2.750000000E+00 -1.000000000E+00 7.222955784E-01
 2.800000000E+00 -1.000000000E+00 7.224850212E-01
 2.850000000E+00 -1.000000000E+00 7.225785229E-01
 2.900000000E+00 -1.000000000E+00 7.227909374E-01
 2.950000000E+00 -1.000000000E+00 7.229853252E-01
 3.000000000E+00 -1.000000000E+00 7.231050482E-01
 3.050000000E+00 -1.000000000E+00 7.232162096E-01
 3.100000000E+00 -1.000000000E+00 7.233273790E-01
 3.150000000E+00 -1.000000000E+00 7.234438830E-01
 3.200000000E+00 -1.000000000E+00 7.235802238E-01
 3.250000000E+00 -1.000000000E+00 7.237421315E-01
 3.300000000E+00 -1.000000000E+00 7.239575720E-01
 3.350000000E+00 -1.000000000E+00 7.242674933E-01
 3.400000000E+00 -1.000000000E+00 7.247294533E-01
 3.450000000E+00 -1.000000000E+00 7.258562652E-01
 3.500000000E+00 -9.500000000E-01 7.295263687E-01
 3.500000000E+00 -9.000000000E-01 7.303149843E-01
 3.500000000E+00 -8.500000000E-01 7.308308482E-01
 3.500000000E+00 -8.000000000E-01 7.311676250E-01
 3.500000000E+00 -7.500000000E-01 7.314427889E-01
 3.500000000E+00 -7.000000000E-01 7.317075253E-01
 3.500000000E+00 -6.500000000E-01 7.319893821E-01
 3.500000000E+00 -6.000000000E-01 7.322904336E-01
 3.500000000E+00 -5.500000000E-01 7.326027465E-01
 3.500000000E+00 -5.000000000E-01 7.329081131E-01
 3.500000000E+00 -4.500000000E-01 7.332368699E-01
 3.500000000E+00 -4.000000000E-01 7.335431927E-01
 3.500000000E+00 -3.500000000E-01 7.338895088E-01
 3.500000000E+00 -3.000000000E-01 7.342239250E-01
 3.500000000E+00 -2.500000000E-01 7.345075804E-01
 3.500000000E+00 -2.000000000E-01 7.347294716E-01
 3.500000000E+00 -1.500000000E-01 7.348667726E-01
 3.500000000E+00 -1.000000000E-01 7.349178708E-01
 3.500000000E+00 -5.000000000E-02 7.349258811E-01
 3.500000000E+00 -2.752242878E-12 7.349124654E-01
 3.500000000E+00 5.000000000E-02 7.348431068E-01
 3.500000000E+00 1.000000000E-01 7.346933993E-01
 3.500000000E+00 1.500000000E-01 7.344609548E-01
 3.500000000E+00 2.000000000E-01 7.341526381E-01
 3.500000000E+00 2.500000000E-01 7.338850459E-01
 3.500000000E+00 3.000000000E-01 7.335381700E-01
 3.500000000E+00 3.500000000E-01 7.331960082E-01
 3.500000000E+00 4.000000000E-01 7.328731760E-01
 3.500000000E+00 4.500000000E-01 7.325289100E-01
 3.500000000E+00 5.000000000E-01 7.321222325E-01
 3.500000000E+00 5.500000000E-01 7.317101387E-01
 3.500000000E+00 6.000000000E-01 7.314762650E-01
 3.500000000E+00 6.500000000E-01 7.315971592E-01
 3.500000000E+00 7.000000000E-01 7.320221000E-01
 3.500000000E+00 7.500000000E-01 7.321259029E-01
 3.500000000E+00 8.000000000E-01 7.312144781E-01
 3.500000000E+00 8.500000000E-01 7.288401840E-01
 3.500000000E+00 9.000000000E-01 7.249046884E-01
 3.500000000E+00 9.500000000E-01 7.196285195E-01
 3.450000000E+00 1.000000000E+00 7.025397723E-01
 3.400000000E+00 1.000000000E+00 6.982422022E-01
 3.350000000E+00 1.000000000E+00 6.971982478E-01
 3.300000000E+00 1.000000000E+00 6.968909512E-01
 3.250000000E+00 1.000000000E+00 6.967740154E-01
 3.200000000E+00 1.000000000E+00 6.971062997E-01
 3.150000000E+00 1.000000000E+00 6.972898672E-01
 3.100000000E+00 1.000000000E+00 6.977007535E-01
 3.050000000E+00 1.000000000E+00 6.978889528E-01
 3.000000000E+00 1.000000000E+00 6.981022029E-01
 2.950000000E+00 1.000000000E+00 6.985805344E-01
 2.900000000E+00 1.000000000E+00 6.994927172E-01
 2.850000000E+00 1.000000000E+00 6.997401958E-01
 2.800000000E+00 1.000000000E+00 6.996315309E-01
 2.750000000E+00 1.000000000E+00 7.004069347E-01
 2.700000000E+00 1.000000000E+00 7.006370893E-01
 2.650000000E+00 1.000000000E+00 7.007175312E-01
 2.600000000E+00 1.000000000E+00 7.014243309E-01
 2.550000000E+00 1.000000000E+00 7.014932141E-01
 2.500000000E+00 1.000000000E+00 7.016147391E-01
 2.450000000E+00 1.000000000E+00 7.023631894E-01
 2.400000000E+00 1.000000000E+00 7.027727403E-01
 2.350000000E+00 1.000000000E+00 7.032471336E-01
 2.300000000E+00 1.000000000E+00 7.038869890E-01
 2.250000000E+00 1.000000000E+00 7.044482847E-01
 2.200000000E+00 1.000000000E+00 7.050262636E-01
 2.150000000E+00 1.000000000E+00 7.055022963E-01
 2.100000000E+00 1.000000000E+00 7.060981490E-01
 2.050000000E+00 1.000000000E+00 7.065899997E-01
 2.000000000E+00 1.000000000E+00 7.069556725E-01
 1.950000000E+00 1.000000000E+00 7.076219355E-01
 1.900000000E+00 1.000000000E+00 7.081522213E-01
 1.850000000E+00 1.000000000E+00 7.088575066E-01
 1.800000000E+00 1.000000000E+00 7.098235298E-01
 1.750000000E+00 1.000000000E+00 7.109338460E-01
 1.700000000E+00 1.000000000E+00 7.119784609E-01
 1.650000000E+00 1.000000000E+00 7.130216229E-01
 1.600000000E+00 1.000000000E+00 7.144393212E-01
 1.550000000E+00 1.000000000E+00 7.156682146E-01
 1.500000000E+00 1.000000000E+00 7.171769804E-01
 1.450000000E+00 1.000000000E+00 7.189059613E-01
 1.400000000E+00 1.000000000E+00 7.213458072E-01
 1.350000000E+00 1.000000000E+00 7.235877553E-01
 1.300000000E+00 1.000000000E+00 7.259970003E-01
 1.250000000E+00 1.000000000E+00 7.287089626E-01
 1.200000000E+00 1.000000000E+00 7.313644013E-01
 1.150000000E+00 1.000000000E+00 7.355840122E-01
 1.100000000E+00 1.000000000E+00 7.382533004E-01
 1.050000000E+00 1.000000000E+00 7.415910184E-01
 1.000000000E+00 1.000000000E+00 7.454062384E-01
 9.500000000E-01 1.000000000E+00 7.491192484E-01
 9.000000000E-01 1.000000000E+00 7.536349900E-01
 8.500000000E-01 1.000000000E+00 7.564096726E-01
 8.000000000E-01 1.000000000E+00 7.607246543E-01
 7.500000000E-01 1.000000000E+00 7.624444289E-01
 7.000000000E-01 1.000000000E+00 7.645204519E-01
 6.500000000E-01 1.000000000E+00 7.667334144E-01
 6.000000000E-01 1.000000000E+00 7.668381426E-01
 5.500000000E-01 1.000000000E+00 7.653898456E-01
 5.000000000E-01 1.000000000E+00 7.643286013E-01
 4.500000000E-01 1.000000000E+00 7.614516035E-01
 4.000000000E-01 1.000000000E+00 7.581434908E-01
 3.500000000E-01 1.000000000E+00 7.536881282E-01
 3.000000000E-01 1.000000000E+00 7.491041220E-01
 2.500000000E-01 1.000000000E+00 7.441929883E-01
 2.000000000E-01 1.000000000E+00 7.389551804E-01
 1.500000000E-01 1.000000000E+00 7.339020158E-01
 1.000000000E-01 1.000000000E+00 7.292045695E-01
 5.000000000E-02 1.000000000E+00 7.251406272E-01
 1.733724275E-12 1.000000000E+00 7.218302787E-01
 -5.000000000E-02 1.000000000E+00 7.190404297E-01
 -1.000000000E-01 1.000000000E+00 7.169493508E-01
 -1.500000000E-01 1.000000000E+00 7.155991915E-01
 -2.000000000E-01 1.000000000E+00 7.149198740E-01
 -2.500000000E-01 1.000000000E+00 7.149043394E-01
 -3.000000000E-01 1.000000000E+00 7.155653009E-01
 -3.500000000E-01 1.000000000E+00 7.168580080E-01
 -4.000000000E-01 1.000000000E+00 7.189170421E-01
 -4.500000000E-01 1.000000000E+00 7.221425532E-01
 9.039407924E-01 -4.507143027E-03 5.937679279E-01
 8.259522799E-01 -1.164935822E-02 6.249213677E-01
 9.873137352E-01 -4.128892094E-03 5.866770780E-01
 7.541170403E-01 -2.079329802E-02 6.656340173E-01
 6.833639012E-01 -3.048098478E-02 7.094708171E-01
 6.156338765E-01 -4.143323532E-02 7.582813836E-01
 5.443443851E-01 -5.036740259E-02 8.260390352E-01
 4.786945747E-01 -5.768600743E-02 9.043211315E-01
 4.216919922E-01 -6.311428380E-02 9.750059443E-01
 3.624807471E-01 -6.472990326E-02 1.025357936E+00
 3.096034759E-01 -6.462349488E-02 9.925267505E-01
 2.490548644E-01 -6.166977198E-02 9.503587572E-01
 1.888653073E-01 -5.579457314E-02 9.113166253E-01
 1.321503685E-01 -4.970409295E-02 8.765589396E-01
 8.018542723E-02 -3.961284636E-02 8.415529027E-01
 4.255038821E-02 -3.372247135E-02 7.884309512E-01
 1.978947526E+00 -9.585092441E-01 7.188613823E-01
 1.975340915E+00 9.569020476E-01 7.172026068E-01
 1.631670867E-02 -2.080312929E-02 6.914392679E-01
 9.255413995E-01 1.871659710E-02 7.467409126E-01