TITLE     = "Visualization of the solution"
VARIABLES = "x"
"y"
"Mach"
ZONE T="Zone"
 STRANDID=0, SOLUTIONTIME=0
 Nodes=11854, Elements=23128, ZONETYPE=FEQuadrilateral
 DATAPACKING=POINT
 DT=(DOUBLE DOUBLE DOUBLE )
 9.995407462E-01 5.097552203E-04 5.040037440E-01
 9.834786057E-01 3.694370389E-03 6.137116139E-01
 9.700549245E-01 6.364809349E-03 6.538975366E-01
 9.538682699E-01 9.487164207E-03 6.758720476E-01
 9.397885203E-01 1.226130500E-02 6.981011655E-01
 9.277105331E-01 1.463316847E-02 7.151341882E-01
 9.165603518E-01 1.681325585E-02 7.322299896E-01
 9.049320817E-01 1.904232427E-02 7.479216611E-01
 8.930488229E-01 2.124210075E-02 7.586211896E-01
 8.807821870E-01 2.347636782E-02 7.714087262E-01
 8.686785102E-01 2.561267093E-02 7.787644666E-01
 8.568254113E-01 2.771761641E-02 7.954134837E-01
 8.449785113E-01 2.974673361E-02 8.093483922E-01
 8.334242105E-01 3.160677478E-02 8.108461813E-01
 8.218235970E-01 3.345545381E-02 8.171070401E-01
 8.095110059E-01 3.539667279E-02 8.269684185E-01
 7.972102761E-01 3.729653358E-02 8.368773163E-01
 7.855961919E-01 3.903674707E-02 8.432022811E-01
 7.734973431E-01 4.082544520E-02 8.535951535E-01
 7.619683743E-01 4.248029739E-02 8.617916751E-01
 7.492375970E-01 4.424850643E-02 8.681198869E-01
 7.360458970E-01 4.602894560E-02 8.744564308E-01
 7.253102660E-01 4.746254534E-02 8.845508818E-01
 7.139831781E-01 4.893049225E-02 8.934622687E-01
 7.022427917E-01 5.041059852E-02 9.030135791E-01
 6.893013716E-01 5.196992308E-02 9.083570004E-01
 6.766323447E-01 5.346186459E-02 9.219404294E-01
 6.655157804E-01 5.472989753E-02 9.348677262E-01
 6.536108255E-01 5.598855764E-02 9.346346196E-01
 6.426366568E-01 5.712169409E-02 9.423405891E-01
 6.306030154E-01 5.833030120E-02 9.557247165E-01
 6.189368963E-01 5.943130702E-02 9.637282172E-01
 6.083247066E-01 6.038273126E-02 9.747905515E-01
 5.964598656E-01 6.139756739E-02 9.879398497E-01
 5.845634937E-01 6.232138351E-02 9.896446455E-01
 5.709170699E-01 6.330870837E-02 9.966933364E-01
 5.579189062E-01 6.418661773E-02 1.002090371E+00
 5.447803140E-01 6.495654583E-02 1.013082127E+00
 5.332767963E-01 6.557781249E-02 1.045214112E+00
 5.210301876E-01 6.616187096E-02 1.058164996E+00
 5.084199905E-01 6.668971479E-02 1.057160112E+00
 4.977319837E-01 6.708066911E-02 1.047949294E+00
 4.845829010E-01 6.745873392E-02 1.038226751E+00
 4.716190100E-01 6.774686277E-02 1.038969932E+00
 4.580743015E-01 6.799643487E-02 1.035840163E+00
 4.439969659E-01 6.812714785E-02 1.023317474E+00
 4.310513139E-01 6.817445904E-02 1.024506682E+00
 4.180209935E-01 6.816863269E-02 1.028624417E+00
 4.054560661E-01 6.807703525E-02 1.021038903E+00
 3.920102715E-01 6.789182127E-02 1.012589620E+00
 3.799628317E-01 6.765250117E-02 1.006556109E+00
 3.681168258E-01 6.736184657E-02 1.001401751E+00
 3.546663225E-01 6.695007533E-02 9.949935937E-01
 3.419646323E-01 6.648894399E-02 9.908922352E-01
 3.293911219E-01 6.596362591E-02 9.875382709E-01
 3.190433383E-01 6.546844542E-02 9.795744559E-01
 3.069915175E-01 6.483866274E-02 9.768599408E-01
 2.946304381E-01 6.412860751E-02 9.725429628E-01
 2.811584473E-01 6.325143576E-02 9.642100835E-01
 2.690306008E-01 6.239849329E-02 9.606348696E-01
 2.572167218E-01 6.149436533E-02 9.548871760E-01
 2.448619306E-01 6.047151238E-02 9.486153198E-01
 2.323171943E-01 5.935005844E-02 9.428275450E-01
 2.202753276E-01 5.819734558E-02 9.380624917E-01
 2.085183263E-01 5.698761344E-02 9.308156513E-01
 1.967130750E-01 5.569221452E-02 9.243347252E-01
 1.844362170E-01 5.426919088E-02 9.202711147E-01
 1.726880074E-01 5.279571563E-02 9.113836053E-01
 1.610013098E-01 5.125598609E-02 9.067923223E-01
 1.493779123E-01 4.960730672E-02 8.971913235E-01
 1.383452117E-01 4.796891659E-02 8.931054428E-01
 1.271523535E-01 4.618432000E-02 8.840537932E-01
 1.161712855E-01 4.433425143E-02 8.780101400E-01
 1.054486558E-01 4.240477830E-02 8.685751813E-01
 9.557374567E-02 4.051917791E-02 8.621925448E-01
 8.494742960E-02 3.835082799E-02 8.526262257E-01
 7.386988401E-02 3.592281416E-02 8.416781787E-01
 6.415782124E-02 3.361607343E-02 8.309541571E-01
 5.478314683E-02 3.121411614E-02 8.198031748E-01
 4.605615139E-02 2.877852693E-02 8.079447662E-01
 3.813583776E-02 2.636130527E-02 7.940023046E-01
 3.126234561E-02 2.405832335E-02 7.801520566E-01
 2.539642900E-02 2.190084755E-02 7.668957075E-01
 2.106428146E-02 2.014593035E-02 7.499896689E-01
 1.692693681E-02 1.830796152E-02 7.329684897E-01
 1.380968187E-02 1.679161936E-02 7.164667134E-01
 1.109258085E-02 1.533163618E-02 6.988324579E-01
 9.123646654E-03 1.417980529E-02 6.791921404E-01
 7.276879624E-03 1.299062185E-02 6.572783495E-01
 5.569462664E-03 1.178080216E-02 6.255840221E-01
 3.416953841E-03 1.002439577E-02 5.775801337E-01
 1.683930866E-03 8.304724470E-03 5.259626438E-01
 3.109516692E-04 6.589008961E-03 4.343115180E-01
 -1.031562337E-03 4.169972613E-03 3.238615616E-01
 -1.627718797E-03 2.277485561E-03 2.132571514E-01
 -1.834206865E-03 7.054207381E-04 1.060626820E-01
 -1.767576090E-03 -1.172604621E-03 4.173525903E-03
 -1.288507483E-03 -3.339755116E-03 1.117366098E-01
 -2.338951599E-04 -5.865845364E-03 2.280075663E-01
 1.406360185E-03 -8.526922204E-03 3.290227074E-01
 3.585395636E-03 -1.121813338E-02 4.082831408E-01
 5.564230494E-03 -1.325306762E-02 4.698786852E-01
 7.908952422E-03 -1.534758881E-02 5.205952406E-01
 9.707518853E-03 -1.679860242E-02 5.575470279E-01
 1.187489461E-02 -1.840256155E-02 5.871878967E-01
 1.435220614E-02 -2.009013668E-02 6.188246494E-01
 1.760294661E-02 -2.211338282E-02 6.514890934E-01
 2.085416019E-02 -2.396184206E-02 6.815367869E-01
 2.491893992E-02 -2.608540282E-02 7.088246506E-01
 3.023736924E-02 -2.860274911E-02 7.374208175E-01
 3.575379401E-02 -3.097219020E-02 7.638050056E-01
 4.246323556E-02 -3.357904777E-02 7.873180310E-01
 4.980910569E-02 -3.617319092E-02 8.088044439E-01
 5.842911825E-02 -3.894300386E-02 8.282187276E-01
 6.692455709E-02 -4.141924903E-02 8.440609700E-01
 7.711528242E-02 -4.414292052E-02 8.607017433E-01
 8.668527752E-02 -4.648258165E-02 8.703716076E-01
 9.728173167E-02 -4.887498543E-02 8.823814276E-01
 1.083810031E-01 -5.120487139E-02 8.955762796E-01
 1.201204658E-01 -5.346743762E-02 9.050449183E-01
 1.316734254E-01 -5.553592741E-02 9.157467553E-01
 1.420938224E-01 -5.726726726E-02 9.237639744E-01
 1.535504162E-01 -5.905505642E-02 9.311398508E-01
 1.653827578E-01 -6.078747287E-02 9.444430529E-01
 1.769117713E-01 -6.234316900E-02 9.530365517E-01
 1.886292398E-01 -6.381476671E-02 9.613039802E-01
 1.992009133E-01 -6.504987925E-02 9.717385292E-01
 2.104254365E-01 -6.626559049E-02 9.799507076E-01
 2.226641625E-01 -6.748739630E-02 9.892771112E-01
 2.344464362E-01 -6.855398417E-02 9.989110511E-01
 2.461337298E-01 -6.951706111E-02 1.006488158E+00
 2.581668496E-01 -7.042044401E-02 1.023627503E+00
 2.694144845E-01 -7.114677131E-02 1.039234193E+00
 2.818053365E-01 -7.183867693E-02 1.048151692E+00
 2.939248085E-01 -7.240709662E-02 1.060554409E+00
 3.066554368E-01 -7.287719101E-02 1.072201605E+00
 3.183288276E-01 -7.319784164E-02 1.082130009E+00
 3.309047818E-01 -7.343491167E-02 1.095445823E+00
 3.411867321E-01 -7.351005822E-02 1.108882106E+00
 3.528488576E-01 -7.350367308E-02 1.119159417E+00
 3.641608953E-01 -7.337886840E-02 1.129904036E+00
 3.752523363E-01 -7.316390425E-02 1.145061418E+00
 3.872404099E-01 -7.278375328E-02 1.157717768E+00
 4.002206028E-01 -7.225542516E-02 1.169361744E+00
 4.125250280E-01 -7.159721106E-02 1.181215494E+00
 4.253641665E-01 -7.078626752E-02 1.185067062E+00
 4.377824962E-01 -6.986337155E-02 1.217175113E+00
 4.508764148E-01 -6.876563281E-02 1.126708261E+00
 4.634651542E-01 -6.756320596E-02 8.746073005E-01
 4.759064317E-01 -6.625729054E-02 8.961560893E-01
 4.884047508E-01 -6.486690789E-02 9.103850578E-01
 5.005763173E-01 -6.337977201E-02 8.932462633E-01
 5.141196847E-01 -6.168777868E-02 8.873165759E-01
 5.270149112E-01 -5.994371697E-02 8.705180681E-01
 5.393164754E-01 -5.824771896E-02 8.604156725E-01
 5.528790951E-01 -5.628870800E-02 8.458138009E-01
 5.661643744E-01 -5.430554971E-02 8.310076032E-01
 5.793870091E-01 -5.228849873E-02 8.179313271E-01
 5.927656889E-01 -5.021195859E-02 8.063063943E-01
 6.060737371E-01 -4.811602086E-02 7.964386958E-01
 6.189544201E-01 -4.601354897E-02 7.801111350E-01
 6.325818896E-01 -4.381420463E-02 7.713241517E-01
 6.461203098E-01 -4.158573970E-02 7.580481661E-01
 6.593133807E-01 -3.944146261E-02 7.514012104E-01
 6.727861762E-01 -3.721496463E-02 7.406867692E-01
 6.851670146E-01 -3.514136374E-02 7.279037116E-01
 6.976629496E-01 -3.310446441E-02 7.224192718E-01
 7.124810219E-01 -3.066845983E-02 7.129384797E-01
 7.256196141E-01 -2.849383093E-02 7.023475488E-01
 7.368898988E-01 -2.663302235E-02 6.925061700E-01
 7.505074143E-01 -2.445874736E-02 6.879754452E-01
 7.633462548E-01 -2.237464301E-02 6.770278490E-01
 7.770381570E-01 -2.018729225E-02 6.676252755E-01
 7.894271612E-01 -1.825090498E-02 6.603378535E-01
 8.019163609E-01 -1.628327742E-02 6.472081459E-01
 8.132050037E-01 -1.463254169E-02 6.464503329E-01
 8.240358233E-01 -1.299950294E-02 6.341660832E-01
 8.362898231E-01 -1.125224587E-02 6.278994541E-01
 8.486492038E-01 -9.554065764E-03 6.207931266E-01
 8.605334759E-01 -7.946396247E-03 6.092222943E-01
 8.711392879E-01 -6.617348175E-03 6.025292337E-01
 8.821701407E-01 -5.344362464E-03 5.978846145E-01
 8.943324089E-01 -4.023286048E-03 5.891382330E-01
 9.046766162E-01 -3.051500069E-03 5.868042027E-01
 9.154242277E-01 -2.136557363E-03 5.820946603E-01
 9.255669713E-01 -1.393992105E-03 5.792385055E-01
 9.355129600E-01 -7.831460680E-04 5.781986054E-01
 9.479698539E-01 -1.899506024E-04 5.779376103E-01
 9.621564150E-01 2.675816067E-04 5.791639448E-01
 9.766723514E-01 5.165924085E-04 5.791850032E-01
 9.899230003E-01 5.613752874E-04 5.812557961E-01
 -5.000000000E-01 -1.000000000E+00 7.232654067E-01
 3.500000000E+00 -1.000000000E+00 7.250137092E-01
 3.500000000E+00 1.000000000E+00 7.144464062E-01
 -5.000000000E-01 1.000000000E+00 7.233669192E-01
 9.915096760E-01 2.102062805E-03 5.891682261E-01
 9.767667651E-01 5.029589869E-03 6.351372481E-01
 9.619615972E-01 7.925986778E-03 6.655108268E-01
 9.468283951E-01 1.087423461E-02 6.875587940E-01
 9.337495267E-01 1.344723674E-02 7.068401303E-01
 9.221354425E-01 1.572321216E-02 7.237490556E-01
 9.107462168E-01 1.792779006E-02 7.406128382E-01
 8.989904523E-01 2.014221251E-02 7.532239979E-01
 8.869155049E-01 2.235923428E-02 7.654113908E-01
 8.747303486E-01 2.454451937E-02 7.745511808E-01
 8.627519608E-01 2.666514367E-02 7.868240112E-01
 8.509019613E-01 2.873217501E-02 8.037496840E-01
 8.392013609E-01 3.067675419E-02 8.100588908E-01
 8.276239038E-01 3.253111430E-02 8.135250116E-01
 8.156673014E-01 3.442606330E-02 8.218400163E-01
 8.033606410E-01 3.634660318E-02 8.322866391E-01
 7.914032340E-01 3.816664033E-02 8.397854052E-01
 7.795467675E-01 3.993109614E-02 8.483679028E-01
 7.677328587E-01 4.165287130E-02 8.580450095E-01
 7.556029856E-01 4.336440191E-02 8.651457868E-01
 7.426417470E-01 4.513872601E-02 8.706732364E-01
 7.306780815E-01 4.674574547E-02 8.797569551E-01
 7.196467221E-01 4.819651879E-02 8.887103808E-01
 7.081129849E-01 4.967054538E-02 8.990089866E-01
 6.957720816E-01 5.119026080E-02 9.052299084E-01
 6.829668581E-01 5.271589383E-02 9.139025088E-01
 6.710740626E-01 5.409588106E-02 9.306969379E-01
 6.595633030E-01 5.535922758E-02 9.342238307E-01
 6.481237411E-01 5.655512586E-02 9.375006808E-01
 6.366198361E-01 5.772599764E-02 9.494631809E-01
 6.247699559E-01 5.888080411E-02 9.598391229E-01
 6.136308014E-01 5.990701914E-02 9.683611157E-01
 6.023922861E-01 6.089014933E-02 9.828300265E-01
 5.905116796E-01 6.185947545E-02 9.890244260E-01
 5.777402818E-01 6.281504594E-02 9.922278569E-01
 5.644179881E-01 6.374766305E-02 1.000942384E+00
 5.513496101E-01 6.457158178E-02 1.003627606E+00
 5.390285552E-01 6.526717916E-02 1.029638452E+00
 5.271534920E-01 6.586984172E-02 1.054688468E+00
 5.147250891E-01 6.642579287E-02 1.058118160E+00
 5.030759871E-01 6.688519195E-02 1.054274077E+00
 4.911574423E-01 6.726970151E-02 1.041799121E+00
 4.781009555E-01 6.760279834E-02 1.037027274E+00
 4.648466557E-01 6.787164882E-02 1.040571495E+00
 4.510356337E-01 6.806179136E-02 1.027832059E+00
 4.375241399E-01 6.815080345E-02 1.022408736E+00
 4.245361537E-01 6.817154586E-02 1.027896198E+00
 4.117385298E-01 6.812283397E-02 1.025684622E+00
 3.987331688E-01 6.798442826E-02 1.016427049E+00
 3.859865516E-01 6.777216122E-02 1.008994154E+00
 3.740398288E-01 6.750717387E-02 1.004661589E+00
 3.613915741E-01 6.715596095E-02 9.977852841E-01
 3.483154774E-01 6.671950966E-02 9.926468509E-01
 3.356778771E-01 6.622628495E-02 9.895399754E-01
 3.242172301E-01 6.571603566E-02 9.836050901E-01
 3.130174279E-01 6.515355408E-02 9.775825312E-01
 3.008109778E-01 6.448363513E-02 9.759917177E-01
 2.878944427E-01 6.369002163E-02 9.674025977E-01
 2.750945240E-01 6.282496452E-02 9.625117434E-01
 2.631236613E-01 6.194642931E-02 9.580717570E-01
 2.510393262E-01 6.098293886E-02 9.518083003E-01
 2.385895625E-01 5.991078541E-02 9.453322633E-01
 2.262962610E-01 5.877370201E-02 9.406851552E-01
 2.143968269E-01 5.759247951E-02 9.346749137E-01
 2.026157007E-01 5.633991398E-02 9.269914163E-01
 1.905746460E-01 5.498070270E-02 9.231139835E-01
 1.785621122E-01 5.353245325E-02 9.150798788E-01
 1.668446586E-01 5.202585086E-02 9.099540636E-01
 1.551896110E-01 5.043164641E-02 9.012266622E-01
 1.438615620E-01 4.878811166E-02 8.958232852E-01
 1.327487826E-01 4.707661830E-02 8.882300214E-01
 1.216618195E-01 4.525928572E-02 8.810643540E-01
 1.108099706E-01 4.336951487E-02 8.743202450E-01
 9.026058763E-02 3.943500295E-02 8.573244145E-01
 7.940865681E-02 3.713682108E-02 8.482753891E-01
 7.201991975E-02 -4.278108478E-02 8.530827184E-01
 9.198350459E-02 -4.767878354E-02 8.779776756E-01
 1.028313674E-01 -5.003992841E-02 8.881005137E-01
 1.142507344E-01 -5.233615451E-02 9.010576985E-01
 1.258969456E-01 -5.450168252E-02 9.099358825E-01
 1.368836239E-01 -5.640159734E-02 9.210006954E-01
 1.478221193E-01 -5.816116184E-02 9.265751009E-01
 1.594665870E-01 -5.992126465E-02 9.374541166E-01
 1.711472645E-01 -6.156532094E-02 9.496637873E-01
 1.827705055E-01 -6.307896785E-02 9.566096914E-01
 1.939150766E-01 -6.443232298E-02 9.669059664E-01
 2.048131749E-01 -6.565773487E-02 9.760168482E-01
 2.165447995E-01 -6.687649339E-02 9.838980615E-01
 2.285552993E-01 -6.802069023E-02 9.947149571E-01
 2.402900830E-01 -6.903552264E-02 1.002513833E+00
 2.521502897E-01 -6.996875256E-02 1.013316685E+00
 2.637906671E-01 -7.078360766E-02 1.033138165E+00
 2.756099105E-01 -7.149272412E-02 1.043493361E+00
 2.878650725E-01 -7.212288678E-02 1.053996132E+00
 3.002901226E-01 -7.264214382E-02 1.066465717E+00
 3.124921322E-01 -7.303751633E-02 1.077894460E+00
 3.246168047E-01 -7.331637666E-02 1.087002438E+00
 3.360457569E-01 -7.347248495E-02 1.104292920E+00
 3.470177948E-01 -7.350686565E-02 1.112569036E+00
 3.585048765E-01 -7.344127074E-02 1.125508706E+00
 3.697066158E-01 -7.327138633E-02 1.135753053E+00
 3.812463731E-01 -7.297382876E-02 1.153055043E+00
 3.937305063E-01 -7.251958922E-02 1.161759023E+00
 4.063728154E-01 -7.192631811E-02 1.177122620E+00
 4.189445972E-01 -7.119173929E-02 1.182553112E+00
 4.315733314E-01 -7.032481954E-02 1.196068428E+00
 4.443294555E-01 -6.931450218E-02 1.212199624E+00
 4.571707845E-01 -6.816441938E-02 9.498761727E-01
 4.696857929E-01 -6.691024825E-02 8.751283010E-01
 4.821555912E-01 -6.556209922E-02 9.088832181E-01
 4.944905341E-01 -6.412333995E-02 9.031389010E-01
 5.073480010E-01 -6.253377534E-02 8.888381825E-01
 5.205672979E-01 -6.081574783E-02 8.807580190E-01
 5.331656933E-01 -5.909571797E-02 8.643222247E-01
 5.460977852E-01 -5.726821348E-02 8.537444218E-01
 5.595217347E-01 -5.529712886E-02 8.382839595E-01
 5.727756917E-01 -5.329702422E-02 8.242292874E-01
 5.860763490E-01 -5.125022866E-02 8.120378395E-01
 5.994197130E-01 -4.916398972E-02 8.012992347E-01
 6.125140786E-01 -4.706478491E-02 7.887935269E-01
 6.257681549E-01 -4.491387680E-02 7.751282213E-01
 6.393510997E-01 -4.269997217E-02 7.649659779E-01
 6.527168453E-01 -4.051360115E-02 7.542190319E-01
 6.660497785E-01 -3.832821362E-02 7.464758091E-01
 6.789765954E-01 -3.617816418E-02 7.341738300E-01
 6.914149821E-01 -3.412291408E-02 7.247994292E-01
 7.050719857E-01 -3.188646212E-02 7.180224251E-01
 7.190503180E-01 -2.958114538E-02 7.076504819E-01
 7.312547565E-01 -2.756342664E-02 6.971318280E-01
 7.436986566E-01 -2.554588486E-02 6.901929825E-01
 7.569268346E-01 -2.341669519E-02 6.828439367E-01
 7.701922059E-01 -2.128096763E-02 6.722218956E-01
 7.832326591E-01 -1.921909861E-02 6.639193718E-01
 7.956717610E-01 -1.726709120E-02 6.540574659E-01
 8.075606823E-01 -1.545790955E-02 6.460970191E-01
 8.186204135E-01 -1.381602231E-02 6.408443353E-01
 8.301628232E-01 -1.212587440E-02 6.308037133E-01
 8.424695134E-01 -1.040315581E-02 6.245342154E-01
 8.545913398E-01 -8.750231005E-03 6.152533302E-01
 8.658363819E-01 -7.281872211E-03 6.053312051E-01
 8.766547143E-01 -5.980855320E-03 6.001879202E-01
 8.882512748E-01 -4.683824256E-03 5.938259820E-01
 8.995045125E-01 -3.537393059E-03 5.872497450E-01
 9.100504220E-01 -2.594028716E-03 5.846249476E-01
 9.204955995E-01 -1.765274734E-03 5.804637361E-01
 9.417414069E-01 -4.865483352E-04 5.777119157E-01
 9.550631344E-01 3.881550219E-05 5.787242645E-01
 9.694143832E-01 3.920870076E-04 5.803293799E-01
 9.832976758E-01 5.389838479E-04 5.820786665E-01
 -5.000000000E-01 9.500000000E-01 7.206617041E-01
 -5.000000000E-01 9.000000000E-01 7.164390030E-01
 -5.000000000E-01 8.500000000E-01 7.132208935E-01
 -5.000000000E-01 8.000000000E-01 7.104088563E-01
 -5.000000000E-01 7.500000000E-01 7.077322277E-01
 -5.000000000E-01 7.000000000E-01 7.051121782E-01
 -5.000000000E-01 6.500000000E-01 7.024679172E-01
 -5.000000000E-01 6.000000000E-01 6.997849355E-01
 -5.000000000E-01 5.500000000E-01 6.970168697E-01
 -5.000000000E-01 5.000000000E-01 6.941973524E-01
 -5.000000000E-01 4.500000000E-01 6.913566480E-01
 -5.000000000E-01 4.000000000E-01 6.885175408E-01
 -5.000000000E-01 3.500000000E-01 6.857403335E-01
 -5.000000000E-01 3.000000000E-01 6.830615637E-01
 -5.000000000E-01 2.500000000E-01 6.805437923E-01
 -5.000000000E-01 2.000000000E-01 6.783150291E-01
 -5.000000000E-01 1.500000000E-01 6.764635048E-01
 -5.000000000E-01 1.000000000E-01 6.750361562E-01
 -5.000000000E-01 5.000000000E-02 6.741255283E-01
 -5.000000000E-01 2.752242878E-12 6.737650177E-01
 -5.000000000E-01 -5.000000000E-02 6.739683431E-01
 -5.000000000E-01 -1.000000000E-01 6.747506787E-01
 -5.000000000E-01 -1.500000000E-01 6.760878961E-01
 -5.000000000E-01 -2.000000000E-01 6.778651296E-01
 -5.000000000E-01 -2.500000000E-01 6.799998587E-01
 -5.000000000E-01 -3.000000000E-01 6.824330683E-01
 -5.000000000E-01 -3.500000000E-01 6.850898995E-01
 -5.000000000E-01 -4.000000000E-01 6.879113716E-01
 -5.000000000E-01 -4.500000000E-01 6.907594833E-01
 -5.000000000E-01 -5.000000000E-01 6.936363296E-01
 -5.000000000E-01 -5.500000000E-01 6.964746805E-01
 -5.000000000E-01 -6.000000000E-01 6.992674811E-01
 -5.000000000E-01 -6.500000000E-01 7.019945845E-01
 -5.000000000E-01 -7.000000000E-01 7.046813004E-01
 -5.000000000E-01 -7.500000000E-01 7.073391458E-01
 -5.000000000E-01 -8.000000000E-01 7.101252966E-01
 -5.000000000E-01 -8.500000000E-01 7.129367634E-01
 -5.000000000E-01 -9.000000000E-01 7.162438047E-01
 -5.000000000E-01 -9.500000000E-01 7.204949257E-01
 -4.500000000E-01 -1.000000000E+00 7.203004109E-01
 -4.000000000E-01 -1.000000000E+00 7.162152012E-01
 -3.500000000E-01 -1.000000000E+00 7.136248653E-01
 -3.000000000E-01 -1.000000000E+00 7.119600178E-01
 -2.500000000E-01 -1.000000000E+00 7.110572337E-01
 -2.000000000E-01 -1.000000000E+00 7.109203455E-01
 -1.500000000E-01 -1.000000000E+00 7.116000391E-01
 -1.000000000E-01 -1.000000000E+00 7.130734307E-01
 -5.000000000E-02 -1.000000000E+00 7.152905759E-01
 -9.424683256E-13 -1.000000000E+00 7.182207567E-01
 5.000000000E-02 -1.000000000E+00 7.219189824E-01
 1.000000000E-01 -1.000000000E+00 7.262723901E-01
 1.500000000E-01 -1.000000000E+00 7.310451739E-01
 2.000000000E-01 -1.000000000E+00 7.361339402E-01
 2.500000000E-01 -1.000000000E+00 7.412313072E-01
 3.000000000E-01 -1.000000000E+00 7.458184424E-01
 3.500000000E-01 -1.000000000E+00 7.499639995E-01
 4.000000000E-01 -1.000000000E+00 7.530688039E-01
 4.500000000E-01 -1.000000000E+00 7.550736286E-01
 5.000000000E-01 -1.000000000E+00 7.561628653E-01
 5.500000000E-01 -1.000000000E+00 7.562329746E-01
 6.000000000E-01 -1.000000000E+00 7.552861907E-01
 6.500000000E-01 -1.000000000E+00 7.534466119E-01
 7.000000000E-01 -1.000000000E+00 7.507448488E-01
 7.500000000E-01 -1.000000000E+00 7.478596394E-01
 8.000000000E-01 -1.000000000E+00 7.442393751E-01
 8.500000000E-01 -1.000000000E+00 7.412916836E-01
 9.000000000E-01 -1.000000000E+00 7.376922290E-01
 9.500000000E-01 -1.000000000E+00 7.342945773E-01
 1.000000000E+00 -1.000000000E+00 7.311850642E-01
 1.050000000E+00 -1.000000000E+00 7.282854038E-01
 1.100000000E+00 -1.000000000E+00 7.253051425E-01
 1.150000000E+00 -1.000000000E+00 7.227705637E-01
 1.200000000E+00 -1.000000000E+00 7.207342002E-01
 1.250000000E+00 -1.000000000E+00 7.190591977E-01
 1.300000000E+00 -1.000000000E+00 7.174977657E-01
 1.350000000E+00 -1.000000000E+00 7.160633736E-01
 1.400000000E+00 -1.000000000E+00 7.148832884E-01
 1.450000000E+00 -1.000000000E+00 7.140383927E-01
 1.500000000E+00 -1.000000000E+00 7.136912883E-01
 1.550000000E+00 -1.000000000E+00 7.133314714E-01
 1.600000000E+00 -1.000000000E+00 7.130132061E-01
 1.650000000E+00 -1.000000000E+00 7.129913342E-01
 1.700000000E+00 -1.000000000E+00 7.130267825E-01
 1.750000000E+00 -1.000000000E+00 7.127526315E-01
 1.800000000E+00 -1.000000000E+00 7.128317145E-01
 1.850000000E+00 -1.000000000E+00 7.131875920E-01
 1.900000000E+00 -1.000000000E+00 7.135448416E-01
 1.950000000E+00 -1.000000000E+00 7.137628176E-01
 2.000000000E+00 -1.000000000E+00 7.139767810E-01
 2.050000000E+00 -1.000000000E+00 7.142832943E-01
 2.100000000E+00 -1.000000000E+00 7.144200570E-01
 2.150000000E+00 -1.000000000E+00 7.146829943E-01
 2.200000000E+00 -1.000000000E+00 7.149840172E-01
 2.250000000E+00 -1.000000000E+00 7.152087623E-01
 2.300000000E+00 -1.000000000E+00 7.155707320E-01
 2.350000000E+00 -1.000000000E+00 7.155928828E-01
 2.400000000E+00 -1.000000000E+00 7.159139809E-01
 2.450000000E+00 -1.000000000E+00 7.161388336E-01
 2.500000000E+00 -1.000000000E+00 7.163879789E-01
 2.550000000E+00 -1.000000000E+00 7.165856280E-01
 2.600000000E+00 -1.000000000E+00 7.167612550E-01
 2.650000000E+00 -1.000000000E+00 7.169966026E-01
 2.700000000E+00 -1.000000000E+00 7.171419671E-01
 2.750000000E+00 -1.000000000E+00 7.173404406E-01
 2.800000000E+00 -1.000000000E+00 7.175470394E-01
 2.850000000E+00 -1.000000000E+00 7.176023674E-01
 2.900000000E+00 -1.000000000E+00 7.175995493E-01
 2.950000000E+00 -1.000000000E+00 7.176538347E-01
 3.000000000E+00 -1.000000000E+00 7.176945180E-01
 3.050000000E+00 -1.000000000E+00 7.177229188E-01
 3.100000000E+00 -1.000000000E+00 7.178064867E-01
 3.150000000E+00 -1.000000000E+00 7.177947172E-01
 3.200000000E+00 -1.000000000E+00 7.178900406E-01
 3.250000000E+00 -1.000000000E+00 7.179791742E-01
 3.300000000E+00 -1.000000000E+00 7.181559398E-01
 3.350000000E+00 -1.000000000E+00 7.184984143E-01
 3.400000000E+00 -1.000000000E+00 7.190086893E-01
 3.450000000E+00 -1.000000000E+00 7.207495602E-01
 3.500000000E+00 -9.500000000E-01 7.279873370E-01
 3.500000000E+00 -9.000000000E-01 7.299163757E-01
 3.500000000E+00 -8.500000000E-01 7.311433883E-01
 3.500000000E+00 -8.000000000E-01 7.317499084E-01
 3.500000000E+00 -7.500000000E-01 7.319651712E-01
 3.500000000E+00 -7.000000000E-01 7.321154463E-01
 3.500000000E+00 -6.500000000E-01 7.323455365E-01
 3.500000000E+00 -6.000000000E-01 7.326833212E-01
 3.500000000E+00 -5.500000000E-01 7.330743199E-01
 3.500000000E+00 -5.000000000E-01 7.335022296E-01
 3.500000000E+00 -4.500000000E-01 7.339081569E-01
 3.500000000E+00 -4.000000000E-01 7.343192580E-01
 3.500000000E+00 -3.500000000E-01 7.347466316E-01
 3.500000000E+00 -3.000000000E-01 7.351777986E-01
 3.500000000E+00 -2.500000000E-01 7.356215366E-01
 3.500000000E+00 -2.000000000E-01 7.359454179E-01
 3.500000000E+00 -1.500000000E-01 7.360595402E-01
 3.500000000E+00 -1.000000000E-01 7.360105663E-01
 3.500000000E+00 -5.000000000E-02 7.359643437E-01
 3.500000000E+00 -2.752242878E-12 7.359968837E-01
 3.500000000E+00 5.000000000E-02 7.360934515E-01
 3.500000000E+00 1.000000000E-01 7.361038201E-01
 3.500000000E+00 1.500000000E-01 7.358889050E-01
 3.500000000E+00 2.000000000E-01 7.354752426E-01
 3.500000000E+00 2.500000000E-01 7.350647961E-01
 3.500000000E+00 3.000000000E-01 7.346035624E-01
 3.500000000E+00 3.500000000E-01 7.341885947E-01
 3.500000000E+00 4.000000000E-01 7.338196015E-01
 3.500000000E+00 4.500000000E-01 7.334221714E-01
 3.500000000E+00 5.000000000E-01 7.329771015E-01
 3.500000000E+00 5.500000000E-01 7.325132125E-01
 3.500000000E+00 6.000000000E-01 7.321709982E-01
 3.500000000E+00 6.500000000E-01 7.320877563E-01
 3.500000000E+00 7.000000000E-01 7.322448153E-01
 3.500000000E+00 7.500000000E-01 7.323695588E-01
 3.500000000E+00 8.000000000E-01 7.317488134E-01
 3.500000000E+00 8.500000000E-01 7.298151612E-01
 3.500000000E+00 9.000000000E-01 7.261841749E-01
 3.500000000E+00 9.500000000E-01 7.213206642E-01
 3.450000000E+00 1.000000000E+00 7.045934159E-01
 3.400000000E+00 1.000000000E+00 7.007402804E-01
 3.350000000E+00 1.000000000E+00 7.000064384E-01
 3.300000000E+00 1.000000000E+00 6.997345962E-01
 3.250000000E+00 1.000000000E+00 6.996373080E-01
 3.200000000E+00 1.000000000E+00 7.004348551E-01
 3.150000000E+00 1.000000000E+00 7.002360849E-01
 3.100000000E+00 1.000000000E+00 7.002406131E-01
 3.050000000E+00 1.000000000E+00 7.004511182E-01
 3.000000000E+00 1.000000000E+00 7.007117684E-01
 2.950000000E+00 1.000000000E+00 7.010881015E-01
 2.900000000E+00 1.000000000E+00 7.013032649E-01
 2.850000000E+00 1.000000000E+00 7.016514051E-01
 2.800000000E+00 1.000000000E+00 7.019838512E-01
 2.750000000E+00 1.000000000E+00 7.023761733E-01
 2.700000000E+00 1.000000000E+00 7.026322102E-01
 2.650000000E+00 1.000000000E+00 7.029366333E-01
 2.600000000E+00 1.000000000E+00 7.031502424E-01
 2.550000000E+00 1.000000000E+00 7.034237130E-01
 2.500000000E+00 1.000000000E+00 7.037737501E-01
 2.450000000E+00 1.000000000E+00 7.040169525E-01
 2.400000000E+00 1.000000000E+00 7.044612648E-01
 2.350000000E+00 1.000000000E+00 7.050225097E-01
 2.300000000E+00 1.000000000E+00 7.054190473E-01
 2.250000000E+00 1.000000000E+00 7.059411030E-01
 2.200000000E+00 1.000000000E+00 7.063932234E-01
 2.150000000E+00 1.000000000E+00 7.065582079E-01
 2.100000000E+00 1.000000000E+00 7.069601149E-01
 2.050000000E+00 1.000000000E+00 7.073424319E-01
 2.000000000E+00 1.000000000E+00 7.079129395E-01
 1.950000000E+00 1.000000000E+00 7.086233372E-01
 1.900000000E+00 1.000000000E+00 7.091468629E-01
 1.850000000E+00 1.000000000E+00 7.097148542E-01
 1.800000000E+00 1.000000000E+00 7.104681124E-01
 1.750000000E+00 1.000000000E+00 7.113601589E-01
 1.700000000E+00 1.000000000E+00 7.122381051E-01
 1.650000000E+00 1.000000000E+00 7.133183276E-01
 1.600000000E+00 1.000000000E+00 7.145596295E-01
 1.550000000E+00 1.000000000E+00 7.159112386E-01
 1.500000000E+00 1.000000000E+00 7.174406932E-01
 1.450000000E+00 1.000000000E+00 7.190849828E-01
 1.400000000E+00 1.000000000E+00 7.209748159E-01
 1.350000000E+00 1.000000000E+00 7.232409285E-01
 1.300000000E+00 1.000000000E+00 7.256924233E-01
 1.250000000E+00 1.000000000E+00 7.285454121E-01
 1.200000000E+00 1.000000000E+00 7.311149402E-01
 1.150000000E+00 1.000000000E+00 7.341855843E-01
 1.100000000E+00 1.000000000E+00 7.379560558E-01
 1.050000000E+00 1.000000000E+00 7.413552218E-01
 1.000000000E+00 1.000000000E+00 7.461256596E-01
 9.500000000E-01 1.000000000E+00 7.497318461E-01
 9.000000000E-01 1.000000000E+00 7.534347433E-01
 8.500000000E-01 1.000000000E+00 7.565086248E-01
 8.000000000E-01 1.000000000E+00 7.593324978E-01
 7.500000000E-01 1.000000000E+00 7.617115209E-01
 7.000000000E-01 1.000000000E+00 7.636941430E-01
 6.500000000E-01 1.000000000E+00 7.647311616E-01
 6.000000000E-01 1.000000000E+00 7.648655443E-01
 5.500000000E-01 1.000000000E+00 7.639015734E-01
 5.000000000E-01 1.000000000E+00 7.638404543E-01
 4.500000000E-01 1.000000000E+00 7.609724022E-01
 4.000000000E-01 1.000000000E+00 7.566929730E-01
 3.500000000E-01 1.000000000E+00 7.527949296E-01
 3.000000000E-01 1.000000000E+00 7.475693849E-01
 2.500000000E-01 1.000000000E+00 7.421728914E-01
 2.000000000E-01 1.000000000E+00 7.368039829E-01
 1.500000000E-01 1.000000000E+00 7.314508939E-01
 1.000000000E-01 1.000000000E+00 7.263162860E-01
 5.000000000E-02 1.000000000E+00 7.218302508E-01
 1.733724275E-12 1.000000000E+00 7.181823307E-01
 -5.000000000E-02 1.000000000E+00 7.152880402E-01
 -1.000000000E-01 1.000000000E+00 7.132126065E-01
 -1.500000000E-01 1.000000000E+00 7.118853368E-01
 -2.000000000E-01 1.000000000E+00 7.112686153E-01
 -2.500000000E-01 1.000000000E+00 7.113635705E-01
 -3.000000000E-01 1.000000000E+00 7.122345124E-01
 -3.500000000E-01 1.000000000E+00 7.138822987E-01
 -4.000000000E-01 1.000000000E+00 7.164645158E-01
 -4.500000000E-01 1.000000000E+00 7.204922292E-01
 9.128720615E-01 -6.633189219E-03 5.870433016E-01
 8.351246399E-01 -1.717431973E-02 6.314786578E-01
 7.605814766E-01 -2.829414625E-02 6.815640396E-01
 6.890893018E-01 -3.897920584E-02 7.272293000E-01
 6.242905207E-01 -5.057456286E-02 7.775496423E-01
 5.564585050E-01 -6.132766065E-02 8.422232414E-01
 4.922301124E-01 -6.983007185E-02 9.037184105E-01
 4.350775395E-01 -7.547139005E-02 1.200514886E+00
 3.784077850E-01 -7.806497225E-02 1.142410285E+00
 3.222881284E-01 -7.855396377E-02 1.080065347E+00
 2.610408479E-01 -7.557592130E-02 1.024240902E+00
 2.070928873E-01 -7.082202379E-02 9.736478672E-01
 9.863255107E-01 -5.745283570E-03 5.799084652E-01
 1.559293833E-01 -6.462712136E-02 9.302039261E-01
 1.048444430E-01 -5.449178389E-02 8.866171156E-01
 6.096550625E-02 -4.605231868E-02 8.202505786E-01
 2.558685041E-02 -3.150551618E-02 7.011644335E-01
 1.970419470E+00 -9.587149237E-01 7.184070575E-01
 1.975207414E+00 9.573453444E-01 7.173960409E-01
 8.744379121E-01 -1.098627858E-02 6.047469156E-01