TITLE     = "Visualization of the solution"
VARIABLES = "x"
"y"
"Mach"
ZONE T="Zone"
 STRANDID=0, SOLUTIONTIME=0
 Nodes=11829, Elements=23080, ZONETYPE=FEQuadrilateral
 DATAPACKING=POINT
 DT=(DOUBLE DOUBLE DOUBLE )
 9.997806549E-01 5.020448589E-04 5.342576210E-01
 9.870265722E-01 2.951986389E-03 6.435946082E-01
 9.737940431E-01 5.497167818E-03 6.744261035E-01
 9.567763805E-01 8.739204146E-03 6.947691960E-01
 9.415052533E-01 1.169345807E-02 7.156623334E-01
 9.262593389E-01 1.459826995E-02 7.290711379E-01
 9.143274426E-01 1.691238210E-02 7.471299239E-01
 9.019386768E-01 1.924118586E-02 7.580005114E-01
 8.896811008E-01 2.150139026E-02 7.642477393E-01
 8.777621984E-01 2.376604266E-02 7.854812653E-01
 8.652386665E-01 2.603148110E-02 7.957559134E-01
 8.525855541E-01 2.823362872E-02 7.983040623E-01
 8.404912949E-01 3.040545061E-02 8.201960457E-01
 8.293368816E-01 3.227873519E-02 8.229992892E-01
 8.176100850E-01 3.420723602E-02 8.260288657E-01
 8.052396774E-01 3.627407178E-02 8.432473930E-01
 7.926515937E-01 3.826434538E-02 8.467292626E-01
 7.805734277E-01 4.015270993E-02 8.539091933E-01
 7.687756419E-01 4.198222235E-02 8.656545917E-01
 7.575955987E-01 4.367070645E-02 8.738624337E-01
 7.449625731E-01 4.552533105E-02 8.807230185E-01
 7.317615747E-01 4.743037745E-02 8.927247401E-01
 7.213855982E-01 4.889034107E-02 9.029204239E-01
 7.106366754E-01 5.035187304E-02 9.094255554E-01
 6.992573142E-01 5.185608566E-02 9.164576142E-01
 6.862306595E-01 5.353461951E-02 9.277236382E-01
 6.735450029E-01 5.511160567E-02 9.410627561E-01
 6.635347605E-01 5.630110577E-02 9.466837990E-01
 6.520707607E-01 5.761168897E-02 9.534888440E-01
 6.404384375E-01 5.888557062E-02 9.608443081E-01
 6.289516687E-01 6.009682640E-02 9.702118638E-01
 6.176406741E-01 6.123000383E-02 9.638086712E-01
 6.071362495E-01 6.222341582E-02 9.450067841E-01
 5.949569345E-01 6.331336498E-02 1.012863451E+00
 5.833467841E-01 6.424108893E-02 1.118901350E+00
 5.702447891E-01 6.525277346E-02 1.118303827E+00
 5.577958822E-01 6.610441953E-02 1.105754961E+00
 5.457090139E-01 6.688220054E-02 1.104196503E+00
 5.348228216E-01 6.748810410E-02 1.098438852E+00
 5.234236717E-01 6.809223443E-02 1.095236972E+00
 5.110915899E-01 6.862867624E-02 1.086073485E+00
 5.000739098E-01 6.905648857E-02 1.077620629E+00
 4.867365360E-01 6.945099682E-02 1.071520540E+00
 4.735666513E-01 6.980454177E-02 1.069232304E+00
 4.595479071E-01 7.005031407E-02 1.056302119E+00
 4.462432265E-01 7.020810246E-02 1.051274343E+00
 4.335675240E-01 7.028345019E-02 1.040532754E+00
 4.207637608E-01 7.026013732E-02 1.029270757E+00
 4.082295299E-01 7.017712295E-02 1.027067544E+00
 3.958071172E-01 7.002945989E-02 1.023211085E+00
 3.834825456E-01 6.980652362E-02 1.016874276E+00
 3.717254996E-01 6.953559816E-02 1.012215083E+00
 3.584674895E-01 6.915437430E-02 1.007131382E+00
 3.456580341E-01 6.870849431E-02 9.988371991E-01
 3.323472440E-01 6.815370172E-02 9.927685179E-01
 3.211792707E-01 6.764303148E-02 9.895587309E-01
 3.084236979E-01 6.696914881E-02 9.801181630E-01
 2.951157391E-01 6.619513035E-02 9.735200631E-01
 2.811530232E-01 6.528985500E-02 9.681339132E-01
 2.689706385E-01 6.443021446E-02 9.644524445E-01
 2.569507658E-01 6.350152194E-02 9.585119600E-01
 2.445060462E-01 6.246088073E-02 9.518194725E-01
 2.321220785E-01 6.133200973E-02 9.440383908E-01
 2.199819088E-01 6.015778333E-02 9.390560075E-01
 2.081351876E-01 5.891328678E-02 9.298095804E-01
 1.965089142E-01 5.763189122E-02 9.260680077E-01
 1.841363162E-01 5.616096407E-02 9.187674251E-01
 1.722600013E-01 5.465811491E-02 9.131900150E-01
 1.609128416E-01 5.311261117E-02 9.027462919E-01
 1.490961462E-01 5.141422898E-02 8.971077028E-01
 1.384433359E-01 4.977890104E-02 8.882779919E-01
 1.268452108E-01 4.788530245E-02 8.794547988E-01
 1.155196503E-01 4.591495544E-02 8.713678530E-01
 1.050142869E-01 4.395590723E-02 8.590726109E-01
 9.530760348E-02 4.204332083E-02 8.524096142E-01
 8.434505761E-02 3.972429037E-02 8.387430031E-01
 7.284145057E-02 3.709889203E-02 8.241955464E-01
 6.304479390E-02 3.467399254E-02 8.106857392E-01
 5.330982059E-02 3.205122426E-02 7.956457579E-01
 4.478319734E-02 2.954898775E-02 7.799112717E-01
 3.736280277E-02 2.717476152E-02 7.617934635E-01
 3.078662604E-02 2.487331443E-02 7.425753216E-01
 2.516690083E-02 2.272867970E-02 7.244744470E-01
 2.104878612E-02 2.100858465E-02 7.044783852E-01
 1.713577844E-02 1.923976839E-02 6.836315497E-01
 1.408884116E-02 1.773096621E-02 6.609815674E-01
 1.124874689E-02 1.620400138E-02 6.389516381E-01
 9.202230722E-03 1.500075497E-02 6.185633266E-01
 7.379509043E-03 1.383477170E-02 5.941644144E-01
 5.716498010E-03 1.267373655E-02 5.604762161E-01
 3.552989336E-03 1.096960623E-02 5.153068516E-01
 1.698554726E-03 9.216642939E-03 4.639978173E-01
 1.543770923E-04 7.390614133E-03 3.725238347E-01
 -1.311046304E-03 4.842840601E-03 2.403350702E-01
 -1.893537119E-03 2.923097694E-03 1.216795889E-01
 -2.043850487E-03 1.390233054E-03 5.530755844E-03
 -1.893214067E-03 -2.526954340E-04 1.138666217E-01
 -1.436685678E-03 -1.894580782E-03 2.248834398E-01
 -4.734968825E-04 -3.874165239E-03 3.360521284E-01
 9.668620187E-04 -5.912828259E-03 4.354031434E-01
 2.955522854E-03 -8.035897277E-03 5.146863443E-01
 4.742585588E-03 -9.603457525E-03 5.703101297E-01
 6.788298022E-03 -1.115689985E-02 6.118429644E-01
 8.441048674E-03 -1.228498295E-02 6.448557939E-01
 1.050539501E-02 -1.356429607E-02 6.694949781E-01
 1.285730675E-02 -1.489620470E-02 6.929776910E-01
 1.608210243E-02 -1.654585823E-02 7.178080033E-01
 1.898031123E-02 -1.789462753E-02 7.402063749E-01
 2.279306762E-02 -1.951571926E-02 7.576839788E-01
 2.812814526E-02 -2.157089859E-02 7.776545933E-01
 3.382883966E-02 -2.353805862E-02 7.950958192E-01
 4.083077610E-02 -2.571160533E-02 8.085477984E-01
 4.831795767E-02 -2.782176808E-02 8.204730247E-01
 5.722252280E-02 -3.009255230E-02 8.307144814E-01
 6.589101255E-02 -3.210936114E-02 8.396251775E-01
 7.586300373E-02 -3.423885629E-02 8.481484833E-01
 8.575213701E-02 -3.619310632E-02 8.530689745E-01
 9.591152519E-02 -3.806129470E-02 8.614665006E-01
 1.068385318E-01 -3.993757814E-02 8.676683986E-01
 1.179598570E-01 -4.171793535E-02 8.736441419E-01
 1.295526624E-01 -4.345562309E-02 8.800737508E-01
 1.401523203E-01 -4.495007917E-02 8.863039663E-01
 1.511710286E-01 -4.641405120E-02 8.923231872E-01
 1.631649286E-01 -4.791224375E-02 8.993560642E-01
 1.746024042E-01 -4.924927279E-02 9.055916366E-01
 1.864420772E-01 -5.055012181E-02 9.120834474E-01
 1.970273703E-01 -5.164637789E-02 9.211063279E-01
 2.081437558E-01 -5.272024497E-02 9.277741581E-01
 2.203098983E-01 -5.380587652E-02 9.337428236E-01
 2.329171598E-01 -5.485082045E-02 9.441720902E-01
 2.450571805E-01 -5.575406924E-02 9.509148133E-01
 2.573296428E-01 -5.658871308E-02 9.598085411E-01
 2.683982849E-01 -5.725916475E-02 9.699189941E-01
 2.812075615E-01 -5.793707445E-02 9.775680560E-01
 2.936902940E-01 -5.849584937E-02 9.875207350E-01
 3.064790070E-01 -5.895962939E-02 9.968198410E-01
 3.183640838E-01 -5.928541720E-02 1.004232660E+00
 3.311184645E-01 -5.953182280E-02 1.012610116E+00
 3.420196772E-01 -5.963832512E-02 1.020944533E+00
 3.536000550E-01 -5.965448171E-02 1.024281521E+00
 3.646106422E-01 -5.957956240E-02 1.033383703E+00
 3.755270541E-01 -5.938274041E-02 1.027332631E+00
 3.872635067E-01 -5.907582119E-02 1.011142076E+00
 4.005875885E-01 -5.858594924E-02 9.959438634E-01
 4.132746756E-01 -5.800005794E-02 9.916918546E-01
 4.262613356E-01 -5.724233016E-02 9.760834012E-01
 4.391499758E-01 -5.636084080E-02 9.588452597E-01
 4.514663517E-01 -5.539806932E-02 9.446698982E-01
 4.635829329E-01 -5.432882532E-02 9.258438862E-01
 4.760299623E-01 -5.314364284E-02 9.124161666E-01
 4.879305363E-01 -5.190747976E-02 8.971350615E-01
 5.005768538E-01 -5.048433319E-02 8.758305294E-01
 5.147343278E-01 -4.883599281E-02 8.628802817E-01
 5.282753110E-01 -4.714396596E-02 8.449432262E-01
 5.416824222E-01 -4.540908337E-02 8.291937144E-01
 5.545527339E-01 -4.369749129E-02 8.161220285E-01
 5.681111217E-01 -4.184460267E-02 8.025684495E-01
 5.810967088E-01 -4.002128169E-02 7.876900943E-01
 5.935561061E-01 -3.827079013E-02 7.776844238E-01
 6.063519120E-01 -3.645582497E-02 7.680636325E-01
 6.205571890E-01 -3.440411761E-02 7.551067424E-01
 6.349865794E-01 -3.232324868E-02 7.449265484E-01
 6.494798660E-01 -3.021739423E-02 7.333535449E-01
 6.624988317E-01 -2.832632512E-02 7.230648954E-01
 6.760540605E-01 -2.639326453E-02 7.164067676E-01
 6.883108616E-01 -2.462194860E-02 7.057031775E-01
 7.006995678E-01 -2.287531458E-02 6.995976823E-01
 7.150580287E-01 -2.084057964E-02 6.890105527E-01
 7.280350327E-01 -1.903826557E-02 6.806064998E-01
 7.401389480E-01 -1.740635745E-02 6.754829176E-01
 7.533325553E-01 -1.562500186E-02 6.660814831E-01
 7.656337023E-01 -1.402122527E-02 6.608151545E-01
 7.786561251E-01 -1.232111175E-02 6.501966817E-01
 7.903415561E-01 -1.086172741E-02 6.430932365E-01
 8.035472631E-01 -9.309234098E-03 6.396982019E-01
 8.143067956E-01 -8.037727326E-03 6.298551176E-01
 8.259783387E-01 -6.768570747E-03 6.275373770E-01
 8.380998373E-01 -5.436503794E-03 6.150326041E-01
 8.508449197E-01 -4.215203226E-03 6.126860284E-01
 8.628403544E-01 -3.119975096E-03 6.056124950E-01
 8.741749525E-01 -2.182212193E-03 6.004886478E-01
 8.857405782E-01 -1.337985974E-03 5.963904244E-01
 8.984641433E-01 -5.350299180E-04 5.918839548E-01
 9.083968997E-01 -1.449562387E-05 5.892704581E-01
 9.189968705E-01 4.212259082E-04 5.884440430E-01
 9.283761978E-01 7.263361476E-04 5.876097159E-01
 9.371794462E-01 9.381814161E-04 5.870126322E-01
 9.488297105E-01 1.109923003E-03 5.871494465E-01
 9.617521167E-01 1.161380904E-03 5.870835624E-01
 9.762529135E-01 1.056255423E-03 5.853138092E-01
 9.888551235E-01 8.202051977E-04 5.771219296E-01
 -5.000000000E-01 -1.000000000E+00 7.237154850E-01
 3.500000000E+00 -1.000000000E+00 7.282681736E-01
 3.500000000E+00 1.000000000E+00 7.100653332E-01
 -5.000000000E-01 1.000000000E+00 7.240163046E-01
 9.934036136E-01 1.727015624E-03 6.256906087E-01
 9.804103076E-01 4.224577104E-03 6.608908815E-01
 9.652852118E-01 7.118185982E-03 6.847813824E-01
 9.491408169E-01 1.021633111E-02 7.058031538E-01
 9.338822961E-01 1.314586401E-02 7.224112835E-01
 9.202933908E-01 1.575532602E-02 7.385990875E-01
 9.081330597E-01 1.807678398E-02 7.532682253E-01
 8.958098888E-01 2.037128806E-02 7.598827194E-01
 8.837216496E-01 2.263371646E-02 7.752207365E-01
 8.715004325E-01 2.489876188E-02 7.920810591E-01
 8.589121103E-01 2.713255491E-02 7.952122596E-01
 8.465384245E-01 2.931953967E-02 8.103279382E-01
 8.349140882E-01 3.134209290E-02 8.227245389E-01
 8.234734833E-01 3.324298561E-02 8.226806544E-01
 8.114248812E-01 3.524065390E-02 8.357686889E-01
 7.989456356E-01 3.726920858E-02 8.450528724E-01
 7.866125107E-01 3.920852765E-02 8.497184954E-01
 7.746745348E-01 4.106746614E-02 8.598816533E-01
 7.631856203E-01 4.282646440E-02 8.702050034E-01
 7.512790859E-01 4.459801875E-02 8.769265720E-01
 7.383620739E-01 4.647785425E-02 8.863363088E-01
 7.265735865E-01 4.816035926E-02 8.985019080E-01
 7.160111368E-01 4.962110706E-02 9.063132143E-01
 7.049469948E-01 5.110397935E-02 9.126053550E-01
 6.927439868E-01 5.269535258E-02 9.217435838E-01
 6.798878312E-01 5.432311259E-02 9.342762972E-01
 6.578027606E-01 5.695639737E-02 9.505808939E-01
 6.462545991E-01 5.824862979E-02 9.564880846E-01
 6.346950531E-01 5.949119851E-02 9.662763970E-01
 6.232961714E-01 6.066341512E-02 9.702820866E-01
 6.123884618E-01 6.172670983E-02 9.513572943E-01
 6.010465920E-01 6.276839040E-02 9.623689078E-01
 5.891518593E-01 6.377722695E-02 1.077577671E+00
 5.767957866E-01 6.474693120E-02 1.128059033E+00
 5.640203357E-01 6.567859650E-02 1.107546288E+00
 5.517524481E-01 6.649331003E-02 1.107279834E+00
 5.402659178E-01 6.718515232E-02 1.098804246E+00
 5.291232467E-01 6.779016927E-02 1.099893989E+00
 5.172576308E-01 6.836045533E-02 1.088450711E+00
 5.055827498E-01 6.884258240E-02 1.084308781E+00
 4.934052229E-01 6.925374269E-02 1.071118397E+00
 4.801515937E-01 6.962776929E-02 1.073753398E+00
 4.665572792E-01 6.992742792E-02 1.061134800E+00
 4.528955668E-01 7.012920827E-02 1.053850689E+00
 4.399053752E-01 7.024577633E-02 1.047138875E+00
 4.271656424E-01 7.027179375E-02 1.033348892E+00
 4.144966453E-01 7.021863014E-02 1.027850218E+00
 4.020183235E-01 7.010329142E-02 1.025871390E+00
 3.896448314E-01 6.991799176E-02 1.019592293E+00
 3.776040226E-01 6.967106089E-02 1.014803083E+00
 3.650964946E-01 6.934498623E-02 1.009702258E+00
 3.520627618E-01 6.893143430E-02 1.003695860E+00
 3.390026391E-01 6.843109801E-02 9.941631300E-01
 3.267632574E-01 6.789836660E-02 9.927481608E-01
 3.148014843E-01 6.730609015E-02 9.843614475E-01
 3.017697185E-01 6.658213958E-02 9.770029408E-01
 2.881343812E-01 6.574249268E-02 9.701018640E-01
 2.750618309E-01 6.486003473E-02 9.666823526E-01
 2.629607022E-01 6.396586820E-02 9.614811529E-01
 2.507284060E-01 6.298120134E-02 9.556759115E-01
 2.383140624E-01 6.189644523E-02 9.471676304E-01
 2.260519937E-01 6.074489653E-02 9.424055665E-01
 2.140585482E-01 5.953553505E-02 9.335691940E-01
 2.023220509E-01 5.827258900E-02 9.285952678E-01
 1.903226152E-01 5.689642765E-02 9.220435074E-01
 1.781981587E-01 5.540953949E-02 9.164332236E-01
 1.665864214E-01 5.388536304E-02 9.078547920E-01
 1.550044939E-01 5.226342008E-02 8.996429628E-01
 1.437697411E-01 5.059656501E-02 8.932872397E-01
 1.326442733E-01 4.883210175E-02 8.836221928E-01
 1.211824305E-01 4.690012895E-02 8.755594395E-01
 1.102669686E-01 4.493543133E-02 8.657574305E-01
 8.982633054E-02 4.088380560E-02 8.460516002E-01
 7.859325409E-02 3.841159120E-02 8.325495698E-01
 7.087700814E-02 -3.317410871E-02 8.452355568E-01
 9.083183110E-02 -3.712720051E-02 8.585719834E-01
 1.013750285E-01 -3.899943642E-02 8.640772815E-01
 1.123991944E-01 -4.082775675E-02 8.709475676E-01
 1.237562597E-01 -4.258677922E-02 8.766695723E-01
 1.348524913E-01 -4.420285113E-02 8.834965208E-01
 1.456616744E-01 -4.568206519E-02 8.892095384E-01
 1.571679786E-01 -4.716314748E-02 8.955212414E-01
 1.688836664E-01 -4.858075827E-02 9.029041633E-01
 1.805222407E-01 -4.989969730E-02 9.083562149E-01
 1.917347237E-01 -5.109824985E-02 9.167638270E-01
 2.025855631E-01 -5.218331143E-02 9.247508367E-01
 2.142268270E-01 -5.326306075E-02 9.304338955E-01
 2.266135290E-01 -5.432834849E-02 9.384988736E-01
 2.389871702E-01 -5.530244485E-02 9.482440704E-01
 2.511934116E-01 -5.617139116E-02 9.546176185E-01
 2.628639638E-01 -5.692393892E-02 9.655018139E-01
 2.748029232E-01 -5.759811960E-02 9.733031823E-01
 2.874489278E-01 -5.821646191E-02 9.825994515E-01
 3.000846505E-01 -5.872773938E-02 9.920918837E-01
 3.124215454E-01 -5.912252329E-02 1.001187434E+00
 3.247412741E-01 -5.940862000E-02 1.007414036E+00
 3.365690708E-01 -5.958507396E-02 1.018109154E+00
 3.478098661E-01 -5.964640342E-02 1.022263786E+00
 3.591053486E-01 -5.961702205E-02 1.028502870E+00
 3.700688481E-01 -5.948115140E-02 1.033443932E+00
 3.813952804E-01 -5.922928080E-02 1.019201378E+00
 3.939255476E-01 -5.883088522E-02 1.002384612E+00
 4.069311321E-01 -5.829300359E-02 9.933675701E-01
 4.197680056E-01 -5.762119405E-02 9.856687264E-01
 4.327056557E-01 -5.680158548E-02 9.666858274E-01
 4.453081638E-01 -5.587945506E-02 9.519452198E-01
 4.575246423E-01 -5.486344732E-02 9.356930709E-01
 4.698064476E-01 -5.373623408E-02 9.182445607E-01
 4.819802493E-01 -5.252556130E-02 9.056947748E-01
 4.942536950E-01 -5.119590648E-02 8.865968689E-01
 5.076555908E-01 -4.966016300E-02 8.683864355E-01
 5.215048194E-01 -4.798997939E-02 8.548011073E-01
 5.349788666E-01 -4.627652466E-02 8.364671004E-01
 5.481175780E-01 -4.455328733E-02 8.226502372E-01
 5.613319278E-01 -4.277104698E-02 8.093696710E-01
 5.746039152E-01 -4.093294218E-02 7.952783062E-01
 5.873264074E-01 -3.914603591E-02 7.821350317E-01
 5.999540091E-01 -3.736330755E-02 7.730411928E-01
 6.134545505E-01 -3.542997129E-02 7.618247508E-01
 6.277718842E-01 -3.336368315E-02 7.497584710E-01
 6.422332227E-01 -3.127032146E-02 7.392275316E-01
 6.559893489E-01 -2.927185968E-02 7.279804554E-01
 6.692764461E-01 -2.735979483E-02 7.196168165E-01
 6.821824610E-01 -2.550760657E-02 7.111725188E-01
 6.945052147E-01 -2.374863159E-02 7.026055273E-01
 7.078787982E-01 -2.185794711E-02 6.944447280E-01
 7.215465307E-01 -1.993942261E-02 6.844715077E-01
 7.340869904E-01 -1.822231151E-02 6.779067149E-01
 7.467357516E-01 -1.651567966E-02 6.710572199E-01
 7.594831288E-01 -1.482311357E-02 6.632428610E-01
 7.721449137E-01 -1.317116851E-02 6.558175667E-01
 7.844988406E-01 -1.159141958E-02 6.460703472E-01
 7.969444096E-01 -1.008548075E-02 6.415760222E-01
 8.089270294E-01 -8.673480712E-03 6.348261687E-01
 8.201425672E-01 -7.403149037E-03 6.286571444E-01
 8.320390880E-01 -6.102537271E-03 6.214942509E-01
 8.444723785E-01 -4.825853510E-03 6.135837039E-01
 8.568426371E-01 -3.667589161E-03 6.093291297E-01
 8.685076535E-01 -2.651093644E-03 6.027959233E-01
 8.799577653E-01 -1.760099083E-03 5.981991015E-01
 8.921023607E-01 -9.365079459E-04 5.946254654E-01
 9.136968851E-01 2.033651422E-04 5.884093851E-01
 9.430045784E-01 1.024052210E-03 5.871903645E-01
 9.552909136E-01 1.135651954E-03 5.871587746E-01
 9.690025151E-01 1.108818164E-03 5.867776376E-01
 9.825540185E-01 9.382303106E-04 5.811817095E-01
 9.943178892E-01 6.611250283E-04 5.739120888E-01
 -5.000000000E-01 9.500000000E-01 7.216223565E-01
 -5.000000000E-01 9.000000000E-01 7.178863524E-01
 -5.000000000E-01 8.500000000E-01 7.150093571E-01
 -5.000000000E-01 8.000000000E-01 7.124605284E-01
 -5.000000000E-01 7.500000000E-01 7.100638236E-01
 -5.000000000E-01 7.000000000E-01 7.076815751E-01
 -5.000000000E-01 6.500000000E-01 7.052616856E-01
 -5.000000000E-01 6.000000000E-01 7.028096037E-01
 -5.000000000E-01 5.500000000E-01 7.002653746E-01
 -5.000000000E-01 5.000000000E-01 6.977270029E-01
 -5.000000000E-01 4.500000000E-01 6.951235920E-01
 -5.000000000E-01 4.000000000E-01 6.925313491E-01
 -5.000000000E-01 3.500000000E-01 6.899640430E-01
 -5.000000000E-01 3.000000000E-01 6.875269667E-01
 -5.000000000E-01 2.500000000E-01 6.852585730E-01
 -5.000000000E-01 2.000000000E-01 6.832763478E-01
 -5.000000000E-01 1.500000000E-01 6.816312867E-01
 -5.000000000E-01 1.000000000E-01 6.803766190E-01
 -5.000000000E-01 5.000000000E-02 6.795920253E-01
 -5.000000000E-01 2.752242878E-12 6.793086036E-01
 -5.000000000E-01 -5.000000000E-02 6.795508442E-01
 -5.000000000E-01 -1.000000000E-01 6.802660918E-01
 -5.000000000E-01 -1.500000000E-01 6.814539045E-01
 -5.000000000E-01 -2.000000000E-01 6.830486511E-01
 -5.000000000E-01 -2.500000000E-01 6.849719480E-01
 -5.000000000E-01 -3.000000000E-01 6.871495052E-01
 -5.000000000E-01 -3.500000000E-01 6.894790774E-01
 -5.000000000E-01 -4.000000000E-01 6.919445713E-01
 -5.000000000E-01 -4.500000000E-01 6.944581892E-01
 -5.000000000E-01 -5.000000000E-01 6.969749299E-01
 -5.000000000E-01 -5.500000000E-01 6.994268135E-01
 -5.000000000E-01 -6.000000000E-01 7.019252934E-01
 -5.000000000E-01 -6.500000000E-01 7.043599550E-01
 -5.000000000E-01 -7.000000000E-01 7.067520665E-01
 -5.000000000E-01 -7.500000000E-01 7.091484932E-01
 -5.000000000E-01 -8.000000000E-01 7.116069437E-01
 -5.000000000E-01 -8.500000000E-01 7.142209508E-01
 -5.000000000E-01 -9.000000000E-01 7.172032801E-01
 -5.000000000E-01 -9.500000000E-01 7.211562019E-01
 -4.500000000E-01 -1.000000000E+00 7.209498273E-01
 -4.000000000E-01 -1.000000000E+00 7.171712483E-01
 -3.500000000E-01 -1.000000000E+00 7.146946742E-01
 -3.000000000E-01 -1.000000000E+00 7.130258552E-01
 -2.500000000E-01 -1.000000000E+00 7.120332609E-01
 -2.000000000E-01 -1.000000000E+00 7.116866300E-01
 -1.500000000E-01 -1.000000000E+00 7.119525736E-01
 -1.000000000E-01 -1.000000000E+00 7.128344169E-01
 -5.000000000E-02 -1.000000000E+00 7.143172359E-01
 -9.424683256E-13 -1.000000000E+00 7.163716380E-01
 5.000000000E-02 -1.000000000E+00 7.189484815E-01
 1.000000000E-01 -1.000000000E+00 7.219825069E-01
 1.500000000E-01 -1.000000000E+00 7.252319125E-01
 2.000000000E-01 -1.000000000E+00 7.286975569E-01
 2.500000000E-01 -1.000000000E+00 7.321884217E-01
 3.000000000E-01 -1.000000000E+00 7.354098288E-01
 3.500000000E-01 -1.000000000E+00 7.382226155E-01
 4.000000000E-01 -1.000000000E+00 7.405162566E-01
 4.500000000E-01 -1.000000000E+00 7.420839382E-01
 5.000000000E-01 -1.000000000E+00 7.429018305E-01
 5.500000000E-01 -1.000000000E+00 7.429365213E-01
 6.000000000E-01 -1.000000000E+00 7.422803318E-01
 6.500000000E-01 -1.000000000E+00 7.410100583E-01
 7.000000000E-01 -1.000000000E+00 7.391863743E-01
 7.500000000E-01 -1.000000000E+00 7.370171527E-01
 8.000000000E-01 -1.000000000E+00 7.345051286E-01
 8.500000000E-01 -1.000000000E+00 7.318708346E-01
 9.000000000E-01 -1.000000000E+00 7.292955534E-01
 9.500000000E-01 -1.000000000E+00 7.267268150E-01
 1.000000000E+00 -1.000000000E+00 7.242435086E-01
 1.050000000E+00 -1.000000000E+00 7.220137099E-01
 1.100000000E+00 -1.000000000E+00 7.200107845E-01
 1.150000000E+00 -1.000000000E+00 7.183290362E-01
 1.200000000E+00 -1.000000000E+00 7.168560155E-01
 1.250000000E+00 -1.000000000E+00 7.156970693E-01
 1.300000000E+00 -1.000000000E+00 7.147972307E-01
 1.350000000E+00 -1.000000000E+00 7.141561743E-01
 1.400000000E+00 -1.000000000E+00 7.136911579E-01
 1.450000000E+00 -1.000000000E+00 7.134095755E-01
 1.500000000E+00 -1.000000000E+00 7.133183164E-01
 1.550000000E+00 -1.000000000E+00 7.134096395E-01
 1.600000000E+00 -1.000000000E+00 7.135953680E-01
 1.650000000E+00 -1.000000000E+00 7.138508007E-01
 1.700000000E+00 -1.000000000E+00 7.141767804E-01
 1.750000000E+00 -1.000000000E+00 7.145550457E-01
 1.800000000E+00 -1.000000000E+00 7.149710734E-01
 1.850000000E+00 -1.000000000E+00 7.154110854E-01
 1.900000000E+00 -1.000000000E+00 7.158886118E-01
 1.950000000E+00 -1.000000000E+00 7.163575520E-01
 2.000000000E+00 -1.000000000E+00 7.168137761E-01
 2.050000000E+00 -1.000000000E+00 7.172618252E-01
 2.100000000E+00 -1.000000000E+00 7.177037172E-01
 2.150000000E+00 -1.000000000E+00 7.181675771E-01
 2.200000000E+00 -1.000000000E+00 7.185929498E-01
 2.250000000E+00 -1.000000000E+00 7.189894778E-01
 2.300000000E+00 -1.000000000E+00 7.194222883E-01
 2.350000000E+00 -1.000000000E+00 7.197864488E-01
 2.400000000E+00 -1.000000000E+00 7.202155644E-01
 2.450000000E+00 -1.000000000E+00 7.205014660E-01
 2.500000000E+00 -1.000000000E+00 7.208145554E-01
 2.550000000E+00 -1.000000000E+00 7.211438689E-01
 2.600000000E+00 -1.000000000E+00 7.214508692E-01
 2.650000000E+00 -1.000000000E+00 7.217227517E-01
 2.700000000E+00 -1.000000000E+00 7.219704261E-01
 2.750000000E+00 -1.000000000E+00 7.221829661E-01
 2.800000000E+00 -1.000000000E+00 7.223937862E-01
 2.850000000E+00 -1.000000000E+00 7.225770493E-01
 2.900000000E+00 -1.000000000E+00 7.227433507E-01
 2.950000000E+00 -1.000000000E+00 7.228708299E-01
 3.000000000E+00 -1.000000000E+00 7.230188700E-01
 3.050000000E+00 -1.000000000E+00 7.231369005E-01
 3.100000000E+00 -1.000000000E+00 7.231703368E-01
 3.150000000E+00 -1.000000000E+00 7.233263849E-01
 3.200000000E+00 -1.000000000E+00 7.235324349E-01
 3.250000000E+00 -1.000000000E+00 7.236976236E-01
 3.300000000E+00 -1.000000000E+00 7.239055586E-01
 3.350000000E+00 -1.000000000E+00 7.243310178E-01
 3.400000000E+00 -1.000000000E+00 7.247435566E-01
 3.450000000E+00 -1.000000000E+00 7.257835623E-01
 3.500000000E+00 -9.500000000E-01 7.297599197E-01
 3.500000000E+00 -9.000000000E-01 7.304497114E-01
 3.500000000E+00 -8.500000000E-01 7.309445636E-01
 3.500000000E+00 -8.000000000E-01 7.313427449E-01
 3.500000000E+00 -7.500000000E-01 7.316534874E-01
 3.500000000E+00 -7.000000000E-01 7.319232114E-01
 3.500000000E+00 -6.500000000E-01 7.322262751E-01
 3.500000000E+00 -6.000000000E-01 7.325452576E-01
 3.500000000E+00 -5.500000000E-01 7.328799585E-01
 3.500000000E+00 -5.000000000E-01 7.332317902E-01
 3.500000000E+00 -4.500000000E-01 7.335842719E-01
 3.500000000E+00 -4.000000000E-01 7.339310865E-01
 3.500000000E+00 -3.500000000E-01 7.342846914E-01
 3.500000000E+00 -3.000000000E-01 7.346347092E-01
 3.500000000E+00 -2.500000000E-01 7.349547719E-01
 3.500000000E+00 -2.000000000E-01 7.351911659E-01
 3.500000000E+00 -1.500000000E-01 7.352744972E-01
 3.500000000E+00 -1.000000000E-01 7.352996267E-01
 3.500000000E+00 -5.000000000E-02 7.353189728E-01
 3.500000000E+00 -2.752242878E-12 7.353163553E-01
 3.500000000E+00 5.000000000E-02 7.352836956E-01
 3.500000000E+00 1.000000000E-01 7.351494188E-01
 3.500000000E+00 1.500000000E-01 7.348887808E-01
 3.500000000E+00 2.000000000E-01 7.345895976E-01
 3.500000000E+00 2.500000000E-01 7.341932445E-01
 3.500000000E+00 3.000000000E-01 7.338430731E-01
 3.500000000E+00 3.500000000E-01 7.335093546E-01
 3.500000000E+00 4.000000000E-01 7.331734573E-01
 3.500000000E+00 4.500000000E-01 7.327958754E-01
 3.500000000E+00 5.000000000E-01 7.323415462E-01
 3.500000000E+00 5.500000000E-01 7.319167191E-01
 3.500000000E+00 6.000000000E-01 7.317168180E-01
 3.500000000E+00 6.500000000E-01 7.319119187E-01
 3.500000000E+00 7.000000000E-01 7.323848519E-01
 3.500000000E+00 7.500000000E-01 7.324619488E-01
 3.500000000E+00 8.000000000E-01 7.312715450E-01
 3.500000000E+00 8.500000000E-01 7.282515670E-01
 3.500000000E+00 9.000000000E-01 7.236066586E-01
 3.500000000E+00 9.500000000E-01 7.178936694E-01
 3.450000000E+00 1.000000000E+00 6.984364351E-01
 3.400000000E+00 1.000000000E+00 6.936020635E-01
 3.350000000E+00 1.000000000E+00 6.924704062E-01
 3.300000000E+00 1.000000000E+00 6.917135651E-01
 3.250000000E+00 1.000000000E+00 6.917161803E-01
 3.200000000E+00 1.000000000E+00 6.924539171E-01
 3.150000000E+00 1.000000000E+00 6.926072645E-01
 3.100000000E+00 1.000000000E+00 6.924804371E-01
 3.050000000E+00 1.000000000E+00 6.928173155E-01
 3.000000000E+00 1.000000000E+00 6.930756159E-01
 2.950000000E+00 1.000000000E+00 6.932000972E-01
 2.900000000E+00 1.000000000E+00 6.938120881E-01
 2.850000000E+00 1.000000000E+00 6.939966694E-01
 2.800000000E+00 1.000000000E+00 6.945466714E-01
 2.750000000E+00 1.000000000E+00 6.951525445E-01
 2.700000000E+00 1.000000000E+00 6.957458833E-01
 2.650000000E+00 1.000000000E+00 6.962044543E-01
 2.600000000E+00 1.000000000E+00 6.964307077E-01
 2.550000000E+00 1.000000000E+00 6.966653617E-01
 2.500000000E+00 1.000000000E+00 6.972351250E-01
 2.450000000E+00 1.000000000E+00 6.979826505E-01
 2.400000000E+00 1.000000000E+00 6.982742356E-01
 2.350000000E+00 1.000000000E+00 6.985374920E-01
 2.300000000E+00 1.000000000E+00 6.991841357E-01
 2.250000000E+00 1.000000000E+00 6.995440067E-01
 2.200000000E+00 1.000000000E+00 7.000592312E-01
 2.150000000E+00 1.000000000E+00 7.007734101E-01
 2.100000000E+00 1.000000000E+00 7.016855629E-01
 2.050000000E+00 1.000000000E+00 7.022308185E-01
 2.000000000E+00 1.000000000E+00 7.028169414E-01
 1.950000000E+00 1.000000000E+00 7.033186318E-01
 1.900000000E+00 1.000000000E+00 7.039656145E-01
 1.850000000E+00 1.000000000E+00 7.046283087E-01
 1.800000000E+00 1.000000000E+00 7.053856759E-01
 1.750000000E+00 1.000000000E+00 7.064794691E-01
 1.700000000E+00 1.000000000E+00 7.075795777E-01
 1.650000000E+00 1.000000000E+00 7.093143341E-01
 1.600000000E+00 1.000000000E+00 7.102645620E-01
 1.550000000E+00 1.000000000E+00 7.119285759E-01
 1.500000000E+00 1.000000000E+00 7.137008707E-01
 1.450000000E+00 1.000000000E+00 7.157440997E-01
 1.400000000E+00 1.000000000E+00 7.173114732E-01
 1.350000000E+00 1.000000000E+00 7.195248339E-01
 1.300000000E+00 1.000000000E+00 7.225335856E-01
 1.250000000E+00 1.000000000E+00 7.258990169E-01
 1.200000000E+00 1.000000000E+00 7.290654090E-01
 1.150000000E+00 1.000000000E+00 7.324343299E-01
 1.100000000E+00 1.000000000E+00 7.363446006E-01
 1.050000000E+00 1.000000000E+00 7.399768364E-01
 1.000000000E+00 1.000000000E+00 7.443899920E-01
 9.500000000E-01 1.000000000E+00 7.498176694E-01
 9.000000000E-01 1.000000000E+00 7.539234076E-01
 8.500000000E-01 1.000000000E+00 7.577264177E-01
 8.000000000E-01 1.000000000E+00 7.615118993E-01
 7.500000000E-01 1.000000000E+00 7.649753960E-01
 7.000000000E-01 1.000000000E+00 7.681712112E-01
 6.500000000E-01 1.000000000E+00 7.694229921E-01
 6.000000000E-01 1.000000000E+00 7.709338856E-01
 5.500000000E-01 1.000000000E+00 7.692375888E-01
 5.000000000E-01 1.000000000E+00 7.676590226E-01
 4.500000000E-01 1.000000000E+00 7.648225499E-01
 4.000000000E-01 1.000000000E+00 7.608146810E-01
 3.500000000E-01 1.000000000E+00 7.562024315E-01
 3.000000000E-01 1.000000000E+00 7.509128296E-01
 2.500000000E-01 1.000000000E+00 7.454199373E-01
 2.000000000E-01 1.000000000E+00 7.398404974E-01
 1.500000000E-01 1.000000000E+00 7.342951568E-01
 1.000000000E-01 1.000000000E+00 7.291755007E-01
 5.000000000E-02 1.000000000E+00 7.245606243E-01
 1.733724275E-12 1.000000000E+00 7.207922952E-01
 -5.000000000E-02 1.000000000E+00 7.179095406E-01
 -1.000000000E-01 1.000000000E+00 7.158368445E-01
 -1.500000000E-01 1.000000000E+00 7.143395593E-01
 -2.000000000E-01 1.000000000E+00 7.135850050E-01
 -2.500000000E-01 1.000000000E+00 7.136475764E-01
 -3.000000000E-01 1.000000000E+00 7.142736416E-01
 -3.500000000E-01 1.000000000E+00 7.156551939E-01
 -4.000000000E-01 1.000000000E+00 7.179136604E-01
 -4.500000000E-01 1.000000000E+00 7.214800968E-01
 8.417034374E-01 -1.081621997E-02 6.173226862E-01
 9.401590900E-01 -4.158863476E-03 5.903273418E-01
 7.632528712E-01 -1.974872231E-02 6.626861915E-01
 6.921605114E-01 -2.952251016E-02 7.046638860E-01
 6.249279506E-01 -4.073602829E-02 7.528499180E-01
 5.520636789E-01 -4.955255189E-02 8.181755342E-01
 4.920617478E-01 -5.704381453E-02 8.882653271E-01
 4.370241833E-01 -6.194611174E-02 9.574130428E-01
 3.785894131E-01 -6.421007588E-02 1.018654270E+00
 3.203819495E-01 -6.441450857E-02 1.001322190E+00
 2.593720477E-01 -6.151339870E-02 9.591018404E-01
 2.045556357E-01 -5.720737545E-02 9.228818622E-01
 1.470229635E-01 -5.042074394E-02 8.871339447E-01
 1.033186408E-01 -4.398207720E-02 8.611989708E-01
 6.059760965E-02 -3.768088686E-02 8.231905190E-01
 2.439700893E-02 -2.494105080E-02 7.460752079E-01
 9.850653031E-01 -4.362394859E-03 5.859087638E-01
 8.893495426E-01 -6.373076692E-03 5.981434810E-01
 1.973956274E+00 -9.602522549E-01 7.181204940E-01
 1.975386652E+00 9.570290575E-01 7.129913134E-01
 9.244063227E-01 2.066015033E-02 7.348234636E-01
 9.915947380E-01 8.458460599E-03 6.366250562E-01