TITLE     = "Visualization of the solution"
VARIABLES = "x"
"y"
"Mach"
ZONE T="Zone"
 STRANDID=0, SOLUTIONTIME=0
 Nodes=12162, Elements=23744, ZONETYPE=FEQuadrilateral
 DATAPACKING=POINT
 DT=(DOUBLE DOUBLE DOUBLE )
 1.000168920E+00 5.398844369E-04 5.456124212E-01
 9.877825975E-01 2.789243124E-03 6.551756268E-01
 9.765813947E-01 4.811583553E-03 6.816125195E-01
 9.640803933E-01 7.139962167E-03 7.102512320E-01
 9.517145753E-01 9.337007999E-03 7.291643988E-01
 9.400936961E-01 1.134271082E-02 7.410754251E-01
 9.299315810E-01 1.312285569E-02 7.609154517E-01
 9.178876281E-01 1.513579302E-02 7.749891460E-01
 9.068135023E-01 1.694776118E-02 7.935454533E-01
 8.944161534E-01 1.882616058E-02 8.016413719E-01
 8.817938566E-01 2.063887566E-02 8.072647220E-01
 8.700739741E-01 2.229784429E-02 8.215381537E-01
 8.567395806E-01 2.400424331E-02 8.173194630E-01
 8.445510864E-01 2.555118129E-02 8.217844794E-01
 8.325008750E-01 2.706247009E-02 8.295977486E-01
 8.187689781E-01 2.870578505E-02 8.323008253E-01
 8.050583005E-01 3.031124733E-02 8.369643848E-01
 7.927047014E-01 3.171188384E-02 8.380978213E-01
 7.801820040E-01 3.315465897E-02 8.499833908E-01
 7.673222423E-01 3.455473110E-02 8.519631460E-01
 7.538127899E-01 3.598951548E-02 8.546922041E-01
 7.395484447E-01 3.751005605E-02 8.657922744E-01
 7.281683087E-01 3.865843639E-02 8.671838144E-01
 7.167221308E-01 3.982115164E-02 8.766615347E-01
 7.046574950E-01 4.099101946E-02 8.805264519E-01
 6.905292869E-01 4.232970625E-02 8.880980685E-01
 6.769464612E-01 4.357056692E-02 8.964576294E-01
 6.664387584E-01 4.449734837E-02 9.025589977E-01
 6.543923020E-01 4.550762475E-02 9.065625944E-01
 6.433476806E-01 4.641570523E-02 9.155532545E-01
 6.309862733E-01 4.736816883E-02 9.194306748E-01
 6.197437644E-01 4.819998145E-02 9.260141256E-01
 6.086549759E-01 4.898857698E-02 9.346755178E-01
 5.958029032E-01 4.983734712E-02 9.427025302E-01
 5.834303498E-01 5.058674887E-02 9.467347095E-01
 5.694299936E-01 5.135503039E-02 9.491968034E-01
 5.563952327E-01 5.201714858E-02 9.575521619E-01
 5.435787439E-01 5.260665342E-02 9.663552875E-01
 5.324403644E-01 5.304188654E-02 9.654390266E-01
 5.200989842E-01 5.346810073E-02 9.679359124E-01
 5.067971945E-01 5.386281386E-02 9.719034025E-01
 4.956371188E-01 5.411979929E-02 9.675028495E-01
 4.823087454E-01 5.437465012E-02 9.706329758E-01
 4.693675637E-01 5.455991998E-02 9.735233492E-01
 4.548271298E-01 5.466055498E-02 9.681377663E-01
 4.406936467E-01 5.466844141E-02 9.637049604E-01
 4.275055528E-01 5.461911485E-02 9.624155510E-01
 4.142535925E-01 5.448331311E-02 9.570491984E-01
 4.021838903E-01 5.431219190E-02 9.553997297E-01
 3.897287846E-01 5.406972393E-02 9.507361840E-01
 3.776509762E-01 5.377217755E-02 9.461281002E-01
 3.669364154E-01 5.347042531E-02 9.432335142E-01
 3.538427353E-01 5.303755775E-02 9.392630461E-01
 3.421487808E-01 5.258817971E-02 9.323447355E-01
 3.300292194E-01 5.207837746E-02 9.297185326E-01
 3.199222684E-01 5.161686614E-02 9.278553146E-01
 3.081044555E-01 5.101672560E-02 9.220704563E-01
 2.951402366E-01 5.029283836E-02 9.151227674E-01
 2.814145982E-01 4.946638271E-02 9.101520054E-01
 2.687275112E-01 4.864067584E-02 9.051153377E-01
 2.567972243E-01 4.781339690E-02 9.009707341E-01
 2.442249805E-01 4.688708112E-02 8.970674598E-01
 2.314306200E-01 4.586820677E-02 8.901933966E-01
 2.192597538E-01 4.485000670E-02 8.861040735E-01
 2.077163607E-01 4.382586852E-02 8.811677560E-01
 1.967341155E-01 4.280803353E-02 8.774563800E-01
 1.846798807E-01 4.162972793E-02 8.730953991E-01
 1.728227288E-01 4.040705785E-02 8.686169127E-01
 1.612545401E-01 3.914777189E-02 8.631976605E-01
 1.492858231E-01 3.777910396E-02 8.586718620E-01
 1.386775523E-01 3.650493547E-02 8.542075921E-01
 1.275220364E-01 3.510253131E-02 8.506712794E-01
 1.160865724E-01 3.358231112E-02 8.468981561E-01
 1.052311659E-01 3.205248713E-02 8.407153767E-01
 9.555908293E-02 3.061550111E-02 8.375763813E-01
 8.436065912E-02 2.885202691E-02 8.332951958E-01
 7.218692452E-02 2.678916790E-02 8.272367310E-01
 6.240224093E-02 2.499677241E-02 8.230900008E-01
 5.274710804E-02 2.309137769E-02 8.192775033E-01
 4.361880943E-02 2.111622877E-02 8.142461807E-01
 3.585964069E-02 1.926638559E-02 8.083828109E-01
 2.929220162E-02 1.753963344E-02 8.018605883E-01
 2.355825901E-02 1.587056555E-02 7.958819263E-01
 1.947511174E-02 1.455555856E-02 7.886940019E-01
 1.569520496E-02 1.321587246E-02 7.818471822E-01
 1.309377886E-02 1.219291426E-02 7.718048627E-01
 1.079588477E-02 1.120710280E-02 7.595072394E-01
 9.101769887E-03 1.041527558E-02 7.481035081E-01
 7.548239548E-03 9.630831890E-03 7.367849561E-01
 6.088100374E-03 8.824164048E-03 7.145977384E-01
 4.143440630E-03 7.606951054E-03 6.832745831E-01
 2.443607431E-03 6.348339375E-03 6.437172386E-01
 9.484404000E-04 4.989560694E-03 5.764191323E-01
 -5.139299319E-04 3.180224448E-03 4.718916845E-01
 -1.300340053E-03 1.703128568E-03 3.596895477E-01
 -1.675882959E-03 5.163561436E-04 2.398788666E-01
 -1.854457310E-03 -9.784790454E-04 1.022637008E-01
 -1.658478286E-03 -2.828507451E-03 4.159792433E-02
 -9.215229074E-04 -4.912141245E-03 1.791117027E-01
 4.746389168E-04 -7.225551177E-03 3.033296454E-01
 2.565124072E-03 -9.661375545E-03 4.023159517E-01
 4.435430747E-03 -1.140125655E-02 4.715546791E-01
 6.666884292E-03 -1.318828948E-02 5.224372360E-01
 8.275662549E-03 -1.433468610E-02 5.612339168E-01
 1.029886305E-02 -1.565835439E-02 5.901447939E-01
 1.274457108E-02 -1.711827517E-02 6.206906075E-01
 1.603691839E-02 -1.890166663E-02 6.519604817E-01
 1.926431432E-02 -2.048428915E-02 6.812115742E-01
 2.337000147E-02 -2.232560702E-02 7.065461409E-01
 2.893047221E-02 -2.457613684E-02 7.331352829E-01
 3.479608148E-02 -2.670356631E-02 7.574165693E-01
 4.247668013E-02 -2.922385000E-02 7.784929877E-01
 5.006781965E-02 -3.147292510E-02 7.970469949E-01
 5.901059508E-02 -3.387868404E-02 8.113009899E-01
 6.779231876E-02 -3.602941334E-02 8.226340102E-01
 7.837514579E-02 -3.842112049E-02 8.359926768E-01
 8.829472959E-02 -4.047863930E-02 8.469254213E-01
 9.904235601E-02 -4.254633561E-02 8.551492211E-01
 1.099468991E-01 -4.449832812E-02 8.646012287E-01
 1.217464283E-01 -4.646839201E-02 8.737396365E-01
 1.331864893E-01 -4.824332893E-02 8.814407881E-01
 1.435832381E-01 -4.976136982E-02 8.891785653E-01
 1.546300799E-01 -5.128140748E-02 8.969262857E-01
 1.664237082E-01 -5.280312151E-02 9.042135232E-01
 1.780182719E-01 -5.420831963E-02 9.135801483E-01
 1.897739619E-01 -5.553689972E-02 9.224670887E-01
 2.001398653E-01 -5.662234500E-02 9.279080534E-01
 2.111595124E-01 -5.771650374E-02 9.362375777E-01
 2.233434916E-01 -5.883285403E-02 9.451918594E-01
 2.356515080E-01 -5.986651406E-02 9.550546670E-01
 2.477607578E-01 -6.079421937E-02 9.655582441E-01
 2.605251372E-01 -6.166129932E-02 9.730474328E-01
 2.717904150E-01 -6.235276163E-02 9.862477944E-01
 2.846089005E-01 -6.302153319E-02 9.923822491E-01
 2.975020111E-01 -6.360448897E-02 1.005507752E+00
 3.103257120E-01 -6.406353414E-02 1.025363629E+00
 3.216972053E-01 -6.434472650E-02 1.033151352E+00
 3.339676261E-01 -6.456354260E-02 1.037658377E+00
 3.444591463E-01 -6.465364993E-02 1.049247177E+00
 3.558264375E-01 -6.465255469E-02 1.054236083E+00
 3.667848706E-01 -6.455805153E-02 1.061915348E+00
 3.774529696E-01 -6.436628848E-02 1.076980353E+00
 3.887598813E-01 -6.403715163E-02 1.093263359E+00
 4.012297690E-01 -6.354713440E-02 1.082940750E+00
 4.131775796E-01 -6.295993179E-02 1.011985524E+00
 4.266118109E-01 -6.216106936E-02 9.773010461E-01
 4.394208193E-01 -6.125591323E-02 9.835375502E-01
 4.527383447E-01 -6.015551090E-02 9.678537413E-01
 4.653929174E-01 -5.897571519E-02 9.445872018E-01
 4.778080881E-01 -5.771042407E-02 9.271938214E-01
 4.896319509E-01 -5.640535802E-02 9.100917367E-01
 5.017743111E-01 -5.498145893E-02 8.919683879E-01
 5.155884027E-01 -5.329148844E-02 8.786966281E-01
 5.295956731E-01 -5.144365504E-02 8.584810182E-01
 5.426258445E-01 -4.965361580E-02 8.399746390E-01
 5.568645597E-01 -4.767022654E-02 8.276762984E-01
 5.693364739E-01 -4.586337507E-02 8.128475121E-01
 5.829808116E-01 -4.385568947E-02 7.996569717E-01
 5.953012705E-01 -4.199656099E-02 7.848626193E-01
 6.075653434E-01 -4.017095640E-02 7.776940267E-01
 6.205971241E-01 -3.817241266E-02 7.628393962E-01
 6.347649693E-01 -3.604158387E-02 7.556552549E-01
 6.483337283E-01 -3.394838050E-02 7.418842302E-01
 6.618571877E-01 -3.189871833E-02 7.338061407E-01
 6.757240295E-01 -2.979684062E-02 7.247858489E-01
 6.884539723E-01 -2.786545828E-02 7.154625522E-01
 7.011109591E-01 -2.595466375E-02 7.065889625E-01
 7.158781886E-01 -2.374722064E-02 6.965442446E-01
 7.291065454E-01 -2.181768045E-02 6.901124550E-01
 7.406252623E-01 -2.014621906E-02 6.830886217E-01
 7.527778745E-01 -1.838790439E-02 6.734455473E-01
 7.658056617E-01 -1.657950692E-02 6.688365552E-01
 7.784538269E-01 -1.483102608E-02 6.608181027E-01
 7.903274298E-01 -1.320006326E-02 6.508863877E-01
 8.030101061E-01 -1.155560464E-02 6.466953265E-01
 8.138737082E-01 -1.014008280E-02 6.361688691E-01
 8.254151940E-01 -8.752874099E-03 6.343612050E-01
 8.370983601E-01 -7.330509368E-03 6.223444635E-01
 8.493186235E-01 -5.989951547E-03 6.188769879E-01
 8.612148166E-01 -4.743403755E-03 6.119636324E-01
 8.729104400E-01 -3.606768325E-03 6.056927100E-01
 8.848578334E-01 -2.557510743E-03 6.006089504E-01
 8.974491358E-01 -1.570866327E-03 5.940445210E-01
 9.076670408E-01 -9.178738692E-04 5.931038582E-01
 9.174469113E-01 -3.639644128E-04 5.909885084E-01
 9.265145063E-01 6.330412725E-05 5.891083059E-01
 9.355803132E-01 4.010953417E-04 5.886543974E-01
 9.479631782E-01 7.342348108E-04 5.882483716E-01
 9.615325928E-01 9.292058530E-04 5.882927892E-01
 9.768931270E-01 9.412431973E-04 5.870398608E-01
 9.897132516E-01 7.764953771E-04 5.804604361E-01
 -5.000000000E-01 -1.000000000E+00 7.244018507E-01
 3.500000000E+00 -1.000000000E+00 7.272047851E-01
 3.500000000E+00 1.000000000E+00 7.171907766E-01
 -5.000000000E-01 1.000000000E+00 7.247109977E-01
 9.939757586E-01 1.664563781E-03 6.350321346E-01
 9.821819961E-01 3.800413338E-03 6.684854541E-01
 9.703308940E-01 5.975772860E-03 6.968169953E-01
 9.578974843E-01 8.238485083E-03 7.207416320E-01
 9.459041357E-01 1.033985941E-02 7.347169047E-01
 9.350126386E-01 1.223278325E-02 7.516065716E-01
 9.239096045E-01 1.412932435E-02 7.674415311E-01
 9.123505652E-01 1.604177710E-02 7.852903998E-01
 9.006148279E-01 1.788696088E-02 7.982748739E-01
 8.881050050E-01 1.973251812E-02 8.032291679E-01
 8.759339154E-01 2.146835998E-02 8.165239095E-01
 8.634067774E-01 2.315104380E-02 8.188565080E-01
 8.506453335E-01 2.477771230E-02 8.188070977E-01
 8.385259807E-01 2.630682569E-02 8.264503562E-01
 8.256349266E-01 2.788412757E-02 8.306117528E-01
 8.119136393E-01 2.950851619E-02 8.351567768E-01
 7.988815010E-01 3.101156559E-02 8.363403947E-01
 7.864433527E-01 3.243327141E-02 8.447310355E-01
 7.737521231E-01 3.385469504E-02 8.514921672E-01
 7.605675161E-01 3.527212329E-02 8.521625042E-01
 7.466806173E-01 3.674978577E-02 8.610458816E-01
 7.338583767E-01 3.808424622E-02 8.658488594E-01
 7.224452198E-01 3.923979402E-02 8.724317392E-01
 7.106898129E-01 4.040608555E-02 8.784401972E-01
 6.975933909E-01 4.166036285E-02 8.841504674E-01
 6.837378740E-01 4.295013659E-02 8.919438406E-01
 6.716926098E-01 4.403395765E-02 9.005761007E-01
 6.604155302E-01 4.500248656E-02 9.034794183E-01
 6.488699913E-01 4.596166499E-02 9.118710327E-01
 6.371669769E-01 4.689193703E-02 9.173073498E-01
 6.253650188E-01 4.778407514E-02 9.222729581E-01
 6.141993701E-01 4.859427921E-02 9.306996246E-01
 6.022289395E-01 4.941296205E-02 9.386972445E-01
 5.896166265E-01 5.021204799E-02 9.455784666E-01
 5.764301717E-01 5.097088963E-02 9.473170558E-01
 5.629126132E-01 5.168608949E-02 9.526970871E-01
 5.499869883E-01 5.231190100E-02 9.630193746E-01
 5.380095541E-01 5.282426998E-02 9.662248507E-01
 5.262696743E-01 5.325499363E-02 9.660754824E-01
 5.134480894E-01 5.366545729E-02 9.706959774E-01
 5.012171566E-01 5.399130657E-02 9.697335846E-01
 4.889729321E-01 5.424722470E-02 9.680804333E-01
 4.758381546E-01 5.446728505E-02 9.733970636E-01
 4.620973468E-01 5.461023748E-02 9.712467930E-01
 4.477603883E-01 5.466449820E-02 9.649062775E-01
 4.340995997E-01 5.464377813E-02 9.639570199E-01
 4.208795726E-01 5.455121398E-02 9.590173343E-01
 4.082187414E-01 5.439775251E-02 9.565123634E-01
 3.959563375E-01 5.419095792E-02 9.533783802E-01
 3.836898804E-01 5.392095074E-02 9.478160503E-01
 3.722936958E-01 5.362130143E-02 9.451467009E-01
 3.603895754E-01 5.325399153E-02 9.413472400E-01
 3.479957581E-01 5.281286873E-02 9.357655914E-01
 3.360890001E-01 5.233327858E-02 9.302851164E-01
 3.249757439E-01 5.184762180E-02 9.295110497E-01
 3.140133619E-01 5.131679587E-02 9.252735062E-01
 3.016223460E-01 5.065478198E-02 9.184172044E-01
 2.882774174E-01 4.987961054E-02 9.125417558E-01
 2.750710547E-01 4.905352928E-02 9.075168126E-01
 2.627623677E-01 4.822703637E-02 9.029343287E-01
 2.505111024E-01 4.735023901E-02 8.995010394E-01
 2.378278002E-01 4.637764394E-02 8.932862890E-01
 2.253451869E-01 4.535910673E-02 8.882651576E-01
 2.134880573E-01 4.433793761E-02 8.834275913E-01
 2.022252381E-01 4.331695102E-02 8.795859753E-01
 1.907069981E-01 4.221888073E-02 8.752078228E-01
 1.787513047E-01 4.101839289E-02 8.709021600E-01
 1.670386344E-01 3.977741487E-02 8.659903013E-01
 1.552701816E-01 3.846343793E-02 8.606699408E-01
 1.439816877E-01 3.714201972E-02 8.565538252E-01
 1.330997944E-01 3.580373339E-02 8.525078398E-01
 1.218043044E-01 3.434242122E-02 8.487229283E-01
 1.106588691E-01 3.281739913E-02 8.443260665E-01
 8.995987102E-02 2.973376401E-02 8.360003481E-01
 7.827379182E-02 2.782059740E-02 8.305125821E-01
 7.308373228E-02 -3.722526692E-02 8.296378103E-01
 8.333493769E-02 -3.944987990E-02 8.423254945E-01
 9.366854280E-02 -4.151248746E-02 8.508241400E-01
 1.044946276E-01 -4.352233186E-02 8.599789446E-01
 1.158466637E-01 -4.548336007E-02 8.689705776E-01
 1.274664588E-01 -4.735586047E-02 8.779423473E-01
 1.383848637E-01 -4.900234938E-02 8.854527995E-01
 1.491066590E-01 -5.052138865E-02 8.930973251E-01
 1.605268940E-01 -5.204226449E-02 9.003376739E-01
 1.722209901E-01 -5.350572057E-02 9.088879594E-01
 1.838961169E-01 -5.487260967E-02 9.179677129E-01
 1.949569136E-01 -5.607962236E-02 9.260550036E-01
 2.056496888E-01 -5.716942437E-02 9.311856437E-01
 2.172515020E-01 -5.827467889E-02 9.407634722E-01
 2.294974998E-01 -5.934968404E-02 9.499539678E-01
 2.417061329E-01 -6.033036672E-02 9.605035011E-01
 2.541429475E-01 -6.122775935E-02 9.691957796E-01
 2.661577761E-01 -6.200703047E-02 9.794445226E-01
 2.781996578E-01 -6.268714741E-02 9.899856717E-01
 2.910554558E-01 -6.331301108E-02 9.972604230E-01
 3.039138615E-01 -6.383401155E-02 1.015223137E+00
 3.160114586E-01 -6.420413032E-02 1.032144555E+00
 3.278324157E-01 -6.445413455E-02 1.033547484E+00
 3.392133862E-01 -6.460859627E-02 1.044126671E+00
 3.501427919E-01 -6.465310231E-02 1.051912033E+00
 3.613056540E-01 -6.460530311E-02 1.057389546E+00
 3.721189201E-01 -6.446217000E-02 1.068481578E+00
 3.831064254E-01 -6.420172006E-02 1.085528864E+00
 3.949948251E-01 -6.379214302E-02 1.095119312E+00
 4.072036743E-01 -6.325353310E-02 1.051940854E+00
 4.198946953E-01 -6.256050058E-02 9.844833087E-01
 4.330163151E-01 -6.170849130E-02 9.811073133E-01
 4.460795820E-01 -6.070571207E-02 9.784685961E-01
 4.590656310E-01 -5.956561305E-02 9.557895677E-01
 4.716005027E-01 -5.834306963E-02 9.354577879E-01
 4.837200195E-01 -5.705789104E-02 9.189711869E-01
 4.957031310E-01 -5.569340847E-02 9.008997775E-01
 5.086813569E-01 -5.413647369E-02 8.849680266E-01
 5.225920379E-01 -5.236757174E-02 8.693288039E-01
 5.361107588E-01 -5.054863542E-02 8.488494382E-01
 5.497452021E-01 -4.866192117E-02 8.331420726E-01
 5.631005168E-01 -4.676680081E-02 8.209220224E-01
 5.761586428E-01 -4.485953227E-02 8.058517053E-01
 5.891410410E-01 -4.292612523E-02 7.923422440E-01
 6.014333069E-01 -4.108375870E-02 7.808303314E-01
 6.140812337E-01 -3.917168453E-02 7.707948134E-01
 6.276810467E-01 -3.710699826E-02 7.587382833E-01
 6.415493488E-01 -3.499498218E-02 7.492378439E-01
 6.550954580E-01 -3.292354941E-02 7.373573308E-01
 6.687906086E-01 -3.084777948E-02 7.293705999E-01
 6.820890009E-01 -2.883114945E-02 7.201576823E-01
 6.947824657E-01 -2.691006102E-02 7.110655235E-01
 7.084945738E-01 -2.485094219E-02 7.016606485E-01
 7.224923670E-01 -2.278245054E-02 6.929409135E-01
 7.348659039E-01 -2.098194975E-02 6.867200394E-01
 7.467015684E-01 -1.926706173E-02 6.782716797E-01
 7.592917681E-01 -1.748370565E-02 6.710189477E-01
 7.721297443E-01 -1.570526650E-02 6.649957738E-01
 7.843906283E-01 -1.401554467E-02 6.558312369E-01
 7.966687679E-01 -1.237783395E-02 6.486646040E-01
 8.084419072E-01 -1.084784372E-02 6.414521564E-01
 8.196444511E-01 -9.446478449E-03 6.350387310E-01
 8.312567770E-01 -8.041691734E-03 6.287228919E-01
 8.432084918E-01 -6.660230458E-03 6.202227792E-01
 8.552667201E-01 -5.366677651E-03 6.155978438E-01
 8.670626283E-01 -4.175086040E-03 6.088043595E-01
 8.788841367E-01 -3.082139534E-03 6.030670513E-01
 8.911534846E-01 -2.064188535E-03 5.975133984E-01
 9.025580883E-01 -1.244370098E-03 5.930005170E-01
 9.417717457E-01 5.676650762E-04 5.885033167E-01
 9.547478855E-01 8.317203319E-04 5.882849220E-01
 9.692128599E-01 9.352245252E-04 5.884562608E-01
 9.833031893E-01 8.588692872E-04 5.835890234E-01
 9.949410856E-01 6.581899070E-04 5.756926034E-01
 -5.000000000E-01 9.500000000E-01 7.226256288E-01
 -5.000000000E-01 9.000000000E-01 7.194186005E-01
 -5.000000000E-01 8.500000000E-01 7.169500659E-01
 -5.000000000E-01 8.000000000E-01 7.147490844E-01
 -5.000000000E-01 7.500000000E-01 7.126562629E-01
 -5.000000000E-01 7.000000000E-01 7.105875146E-01
 -5.000000000E-01 6.500000000E-01 7.085369806E-01
 -5.000000000E-01 6.000000000E-01 7.063926756E-01
 -5.000000000E-01 5.500000000E-01 7.041935146E-01
 -5.000000000E-01 5.000000000E-01 7.019713296E-01
 -5.000000000E-01 4.500000000E-01 6.996793063E-01
 -5.000000000E-01 4.000000000E-01 6.974066326E-01
 -5.000000000E-01 3.500000000E-01 6.951403382E-01
 -5.000000000E-01 3.000000000E-01 6.929670266E-01
 -5.000000000E-01 2.500000000E-01 6.909048855E-01
 -5.000000000E-01 2.000000000E-01 6.890797500E-01
 -5.000000000E-01 1.500000000E-01 6.875400787E-01
 -5.000000000E-01 1.000000000E-01 6.863321721E-01
 -5.000000000E-01 5.000000000E-02 6.855240818E-01
 -5.000000000E-01 2.752242878E-12 6.851464871E-01
 -5.000000000E-01 -5.000000000E-02 6.852655529E-01
 -5.000000000E-01 -1.000000000E-01 6.858363474E-01
 -5.000000000E-01 -1.500000000E-01 6.867758622E-01
 -5.000000000E-01 -2.000000000E-01 6.881204538E-01
 -5.000000000E-01 -2.500000000E-01 6.898154158E-01
 -5.000000000E-01 -3.000000000E-01 6.917333106E-01
 -5.000000000E-01 -3.500000000E-01 6.938245772E-01
 -5.000000000E-01 -4.000000000E-01 6.960249763E-01
 -5.000000000E-01 -4.500000000E-01 6.982825625E-01
 -5.000000000E-01 -5.000000000E-01 7.005791131E-01
 -5.000000000E-01 -5.500000000E-01 7.028562890E-01
 -5.000000000E-01 -6.000000000E-01 7.050940112E-01
 -5.000000000E-01 -6.500000000E-01 7.072742851E-01
 -5.000000000E-01 -7.000000000E-01 7.094376110E-01
 -5.000000000E-01 -7.500000000E-01 7.116070848E-01
 -5.000000000E-01 -8.000000000E-01 7.137741712E-01
 -5.000000000E-01 -8.500000000E-01 7.160860152E-01
 -5.000000000E-01 -9.000000000E-01 7.187383203E-01
 -5.000000000E-01 -9.500000000E-01 7.221910137E-01
 -4.500000000E-01 -1.000000000E+00 7.220687270E-01
 -4.000000000E-01 -1.000000000E+00 7.186867313E-01
 -3.500000000E-01 -1.000000000E+00 7.166198664E-01
 -3.000000000E-01 -1.000000000E+00 7.152432546E-01
 -2.500000000E-01 -1.000000000E+00 7.145281835E-01
 -2.000000000E-01 -1.000000000E+00 7.143376774E-01
 -1.500000000E-01 -1.000000000E+00 7.147794973E-01
 -1.000000000E-01 -1.000000000E+00 7.159437765E-01
 -5.000000000E-02 -1.000000000E+00 7.177513876E-01
 -9.424683256E-13 -1.000000000E+00 7.199905075E-01
 5.000000000E-02 -1.000000000E+00 7.228562836E-01
 1.000000000E-01 -1.000000000E+00 7.262559302E-01
 1.500000000E-01 -1.000000000E+00 7.299736148E-01
 2.000000000E-01 -1.000000000E+00 7.338337522E-01
 2.500000000E-01 -1.000000000E+00 7.376785853E-01
 3.000000000E-01 -1.000000000E+00 7.412443924E-01
 3.500000000E-01 -1.000000000E+00 7.443085649E-01
 4.000000000E-01 -1.000000000E+00 7.467342438E-01
 4.500000000E-01 -1.000000000E+00 7.483274754E-01
 5.000000000E-01 -1.000000000E+00 7.493116151E-01
 5.500000000E-01 -1.000000000E+00 7.490733264E-01
 6.000000000E-01 -1.000000000E+00 7.483830031E-01
 6.500000000E-01 -1.000000000E+00 7.470228271E-01
 7.000000000E-01 -1.000000000E+00 7.450838043E-01
 7.500000000E-01 -1.000000000E+00 7.426301795E-01
 8.000000000E-01 -1.000000000E+00 7.400444259E-01
 8.500000000E-01 -1.000000000E+00 7.373463825E-01
 9.000000000E-01 -1.000000000E+00 7.344690009E-01
 9.500000000E-01 -1.000000000E+00 7.316644648E-01
 1.000000000E+00 -1.000000000E+00 7.290658642E-01
 1.050000000E+00 -1.000000000E+00 7.266557286E-01
 1.100000000E+00 -1.000000000E+00 7.244402724E-01
 1.150000000E+00 -1.000000000E+00 7.224869013E-01
 1.200000000E+00 -1.000000000E+00 7.207823506E-01
 1.250000000E+00 -1.000000000E+00 7.194240514E-01
 1.300000000E+00 -1.000000000E+00 7.183406920E-01
 1.350000000E+00 -1.000000000E+00 7.174260222E-01
 1.400000000E+00 -1.000000000E+00 7.167490192E-01
 1.450000000E+00 -1.000000000E+00 7.162824649E-01
 1.500000000E+00 -1.000000000E+00 7.159958127E-01
 1.550000000E+00 -1.000000000E+00 7.158962572E-01
 1.600000000E+00 -1.000000000E+00 7.158541190E-01
 1.650000000E+00 -1.000000000E+00 7.159194617E-01
 1.700000000E+00 -1.000000000E+00 7.160406166E-01
 1.750000000E+00 -1.000000000E+00 7.162308405E-01
 1.800000000E+00 -1.000000000E+00 7.164640458E-01
 1.850000000E+00 -1.000000000E+00 7.167377913E-01
 1.900000000E+00 -1.000000000E+00 7.169989060E-01
 1.950000000E+00 -1.000000000E+00 7.172928006E-01
 2.000000000E+00 -1.000000000E+00 7.176053963E-01
 2.050000000E+00 -1.000000000E+00 7.179114238E-01
 2.100000000E+00 -1.000000000E+00 7.182733783E-01
 2.150000000E+00 -1.000000000E+00 7.185776916E-01
 2.200000000E+00 -1.000000000E+00 7.188203889E-01
 2.250000000E+00 -1.000000000E+00 7.190790214E-01
 2.300000000E+00 -1.000000000E+00 7.194146327E-01
 2.350000000E+00 -1.000000000E+00 7.196753220E-01
 2.400000000E+00 -1.000000000E+00 7.200083988E-01
 2.450000000E+00 -1.000000000E+00 7.201687624E-01
 2.500000000E+00 -1.000000000E+00 7.202550634E-01
 2.550000000E+00 -1.000000000E+00 7.205727708E-01
 2.600000000E+00 -1.000000000E+00 7.207353478E-01
 2.650000000E+00 -1.000000000E+00 7.209472909E-01
 2.700000000E+00 -1.000000000E+00 7.211808139E-01
 2.750000000E+00 -1.000000000E+00 7.213660006E-01
 2.800000000E+00 -1.000000000E+00 7.215281190E-01
 2.850000000E+00 -1.000000000E+00 7.216697403E-01
 2.900000000E+00 -1.000000000E+00 7.217517625E-01
 2.950000000E+00 -1.000000000E+00 7.218703197E-01
 3.000000000E+00 -1.000000000E+00 7.219687923E-01
 3.050000000E+00 -1.000000000E+00 7.220823430E-01
 3.100000000E+00 -1.000000000E+00 7.221297709E-01
 3.150000000E+00 -1.000000000E+00 7.222440756E-01
 3.200000000E+00 -1.000000000E+00 7.222129203E-01
 3.250000000E+00 -1.000000000E+00 7.223731990E-01
 3.300000000E+00 -1.000000000E+00 7.226286930E-01
 3.350000000E+00 -1.000000000E+00 7.229606214E-01
 3.400000000E+00 -1.000000000E+00 7.233817859E-01
 3.450000000E+00 -1.000000000E+00 7.245683195E-01
 3.500000000E+00 -9.500000000E-01 7.289378742E-01
 3.500000000E+00 -9.000000000E-01 7.299732424E-01
 3.500000000E+00 -8.500000000E-01 7.306769536E-01
 3.500000000E+00 -8.000000000E-01 7.310942932E-01
 3.500000000E+00 -7.500000000E-01 7.313158482E-01
 3.500000000E+00 -7.000000000E-01 7.315029388E-01
 3.500000000E+00 -6.500000000E-01 7.317197435E-01
 3.500000000E+00 -6.000000000E-01 7.319958622E-01
 3.500000000E+00 -5.500000000E-01 7.323180668E-01
 3.500000000E+00 -5.000000000E-01 7.326334582E-01
 3.500000000E+00 -4.500000000E-01 7.329368495E-01
 3.500000000E+00 -4.000000000E-01 7.332392348E-01
 3.500000000E+00 -3.500000000E-01 7.335547727E-01
 3.500000000E+00 -3.000000000E-01 7.338621729E-01
 3.500000000E+00 -2.500000000E-01 7.341410877E-01
 3.500000000E+00 -2.000000000E-01 7.343855383E-01
 3.500000000E+00 -1.500000000E-01 7.345226070E-01
 3.500000000E+00 -1.000000000E-01 7.345420874E-01
 3.500000000E+00 -5.000000000E-02 7.345397195E-01
 3.500000000E+00 -2.752242878E-12 7.345322015E-01
 3.500000000E+00 5.000000000E-02 7.344935172E-01
 3.500000000E+00 1.000000000E-01 7.343892829E-01
 3.500000000E+00 1.500000000E-01 7.341774571E-01
 3.500000000E+00 2.000000000E-01 7.339326642E-01
 3.500000000E+00 2.500000000E-01 7.336109355E-01
 3.500000000E+00 3.000000000E-01 7.333094535E-01
 3.500000000E+00 3.500000000E-01 7.329974594E-01
 3.500000000E+00 4.000000000E-01 7.326961297E-01
 3.500000000E+00 4.500000000E-01 7.323892855E-01
 3.500000000E+00 5.000000000E-01 7.320417539E-01
 3.500000000E+00 5.500000000E-01 7.316800593E-01
 3.500000000E+00 6.000000000E-01 7.314074836E-01
 3.500000000E+00 6.500000000E-01 7.313636381E-01
 3.500000000E+00 7.000000000E-01 7.315815008E-01
 3.500000000E+00 7.500000000E-01 7.317239777E-01
 3.500000000E+00 8.000000000E-01 7.313147489E-01
 3.500000000E+00 8.500000000E-01 7.299976051E-01
 3.500000000E+00 9.000000000E-01 7.271644615E-01
 3.500000000E+00 9.500000000E-01 7.229088232E-01
 3.450000000E+00 1.000000000E+00 7.094188357E-01
 3.400000000E+00 1.000000000E+00 7.063583573E-01
 3.350000000E+00 1.000000000E+00 7.058340307E-01
 3.300000000E+00 1.000000000E+00 7.055217151E-01
 3.250000000E+00 1.000000000E+00 7.054422604E-01
 3.200000000E+00 1.000000000E+00 7.055664798E-01
 3.150000000E+00 1.000000000E+00 7.057619862E-01
 3.100000000E+00 1.000000000E+00 7.063028991E-01
 3.050000000E+00 1.000000000E+00 7.064556384E-01
 3.000000000E+00 1.000000000E+00 7.067736573E-01
 2.950000000E+00 1.000000000E+00 7.070024537E-01
 2.900000000E+00 1.000000000E+00 7.072191915E-01
 2.850000000E+00 1.000000000E+00 7.073783779E-01
 2.800000000E+00 1.000000000E+00 7.077161780E-01
 2.750000000E+00 1.000000000E+00 7.079265167E-01
 2.700000000E+00 1.000000000E+00 7.082056483E-01
 2.650000000E+00 1.000000000E+00 7.085707905E-01
 2.600000000E+00 1.000000000E+00 7.091613276E-01
 2.550000000E+00 1.000000000E+00 7.092661696E-01
 2.500000000E+00 1.000000000E+00 7.095129665E-01
 2.450000000E+00 1.000000000E+00 7.099684455E-01
 2.400000000E+00 1.000000000E+00 7.102175428E-01
 2.350000000E+00 1.000000000E+00 7.107190675E-01
 2.300000000E+00 1.000000000E+00 7.110763250E-01
 2.250000000E+00 1.000000000E+00 7.114269563E-01
 2.200000000E+00 1.000000000E+00 7.118171805E-01
 2.150000000E+00 1.000000000E+00 7.122399658E-01
 2.100000000E+00 1.000000000E+00 7.126304675E-01
 2.050000000E+00 1.000000000E+00 7.129887815E-01
 2.000000000E+00 1.000000000E+00 7.132673156E-01
 1.950000000E+00 1.000000000E+00 7.139653319E-01
 1.900000000E+00 1.000000000E+00 7.149575530E-01
 1.850000000E+00 1.000000000E+00 7.154989642E-01
 1.800000000E+00 1.000000000E+00 7.162860046E-01
 1.750000000E+00 1.000000000E+00 7.170729698E-01
 1.700000000E+00 1.000000000E+00 7.180194270E-01
 1.650000000E+00 1.000000000E+00 7.193085944E-01
 1.600000000E+00 1.000000000E+00 7.205374468E-01
 1.550000000E+00 1.000000000E+00 7.218647004E-01
 1.500000000E+00 1.000000000E+00 7.229680994E-01
 1.450000000E+00 1.000000000E+00 7.247323708E-01
 1.400000000E+00 1.000000000E+00 7.267661940E-01
 1.350000000E+00 1.000000000E+00 7.288774227E-01
 1.300000000E+00 1.000000000E+00 7.311172796E-01
 1.250000000E+00 1.000000000E+00 7.336484521E-01
 1.200000000E+00 1.000000000E+00 7.360259568E-01
 1.150000000E+00 1.000000000E+00 7.388751376E-01
 1.100000000E+00 1.000000000E+00 7.416816800E-01
 1.050000000E+00 1.000000000E+00 7.448251025E-01
 1.000000000E+00 1.000000000E+00 7.473226055E-01
 9.500000000E-01 1.000000000E+00 7.499551409E-01
 9.000000000E-01 1.000000000E+00 7.533251222E-01
 8.500000000E-01 1.000000000E+00 7.563613626E-01
 8.000000000E-01 1.000000000E+00 7.577566899E-01
 7.500000000E-01 1.000000000E+00 7.602400977E-01
 7.000000000E-01 1.000000000E+00 7.611673513E-01
 6.500000000E-01 1.000000000E+00 7.620416897E-01
 6.000000000E-01 1.000000000E+00 7.617617432E-01
 5.500000000E-01 1.000000000E+00 7.604546363E-01
 5.000000000E-01 1.000000000E+00 7.588462049E-01
 4.500000000E-01 1.000000000E+00 7.562628719E-01
 4.000000000E-01 1.000000000E+00 7.529986152E-01
 3.500000000E-01 1.000000000E+00 7.490992674E-01
 3.000000000E-01 1.000000000E+00 7.448715376E-01
 2.500000000E-01 1.000000000E+00 7.405235239E-01
 2.000000000E-01 1.000000000E+00 7.361743492E-01
 1.500000000E-01 1.000000000E+00 7.318381816E-01
 1.000000000E-01 1.000000000E+00 7.278301294E-01
 5.000000000E-02 1.000000000E+00 7.243317681E-01
 1.733724275E-12 1.000000000E+00 7.213979354E-01
 -5.000000000E-02 1.000000000E+00 7.190557382E-01
 -1.000000000E-01 1.000000000E+00 7.172763758E-01
 -1.500000000E-01 1.000000000E+00 7.161112211E-01
 -2.000000000E-01 1.000000000E+00 7.155707736E-01
 -2.500000000E-01 1.000000000E+00 7.155964067E-01
 -3.000000000E-01 1.000000000E+00 7.162499535E-01
 -3.500000000E-01 1.000000000E+00 7.174850181E-01
 -4.000000000E-01 1.000000000E+00 7.194229458E-01
 -4.500000000E-01 1.000000000E+00 7.225344311E-01
 9.005442147E-01 -5.902950826E-03 5.963262506E-01
 9.864434560E-01 -4.222067214E-03 5.880655235E-01
 8.291466197E-01 -1.348612592E-02 6.325486621E-01
 7.558871822E-01 -2.302298101E-02 6.736421702E-01
 6.858450052E-01 -3.392588439E-02 7.187515728E-01
 6.182045737E-01 -4.431497518E-02 7.668982432E-01
 5.541107221E-01 -5.395119334E-02 8.288778267E-01
 4.932757886E-01 -6.123624120E-02 9.029321838E-01
 4.366105113E-01 -6.702866558E-02 9.769902261E-01
 3.798645757E-01 -6.865522239E-02 1.075410469E+00
 3.245593955E-01 -6.893503670E-02 1.030036156E+00
 2.686746836E-01 -6.705790445E-02 9.795287637E-01
 2.130268548E-01 -6.284971179E-02 9.349554644E-01
 1.568107777E-01 -5.678134427E-02 8.949625089E-01
 1.012472878E-01 -4.712601313E-02 8.538093860E-01
 6.150362193E-02 -4.064683822E-02 8.062280772E-01
 2.366133872E-02 -2.701801783E-02 6.988818955E-01
 1.974736621E+00 -9.570979203E-01 7.200271245E-01
 1.975224841E+00 9.556190487E-01 7.234108279E-01
 9.383239927E-01 1.618807195E-02 7.460052512E-01