TITLE     = "Visualization of the solution"
VARIABLES = "x"
"y"
"Mach"
ZONE T="Zone"
 STRANDID=0, SOLUTIONTIME=0
 Nodes=12223, Elements=23863, ZONETYPE=FEQuadrilateral
 DATAPACKING=POINT
 DT=(DOUBLE DOUBLE DOUBLE )
 9.997818470E-01 5.041297409E-04 5.714049042E-01
 9.894806743E-01 2.514845459E-03 6.295601505E-01
 9.767495990E-01 4.988456145E-03 6.645713182E-01
 9.588404298E-01 8.467865176E-03 6.936488687E-01
 9.421476126E-01 1.163466368E-02 7.078287843E-01
 9.249733090E-01 1.501607057E-02 7.338092946E-01
 9.122546315E-01 1.739903726E-02 7.391289372E-01
 9.003621936E-01 1.971491985E-02 7.570671745E-01
 8.884531856E-01 2.198134176E-02 7.687311695E-01
 8.767682314E-01 2.419621684E-02 7.833117097E-01
 8.643181324E-01 2.650466189E-02 7.978363786E-01
 8.509930372E-01 2.884438634E-02 7.999943838E-01
 8.382108212E-01 3.110734373E-02 8.117645775E-01
 8.282521367E-01 3.286607936E-02 8.260912268E-01
 8.163366914E-01 3.486294672E-02 8.275225654E-01
 8.040834069E-01 3.694962710E-02 8.449589778E-01
 7.917829156E-01 3.893971816E-02 8.492436482E-01
 7.788380384E-01 4.099248722E-02 8.555380063E-01
 7.670383453E-01 4.287309572E-02 8.719704790E-01
 7.551608682E-01 4.466081038E-02 8.739252489E-01
 7.421557903E-01 4.661831632E-02 8.872387936E-01
 7.285385728E-01 4.858697206E-02 8.947301353E-01
 7.181654572E-01 5.007064715E-02 9.075459034E-01
 7.074619532E-01 5.153620988E-02 9.135191712E-01
 6.961602569E-01 5.305304378E-02 9.224253785E-01
 6.827765703E-01 5.477147177E-02 9.278868752E-01
 6.704285145E-01 5.632793531E-02 9.486337180E-01
 6.612727046E-01 5.744050071E-02 9.533249171E-01
 6.497710943E-01 5.873051658E-02 9.496094331E-01
 6.379605532E-01 6.006187201E-02 9.657941174E-01
 6.264123917E-01 6.128061935E-02 9.514355506E-01
 6.149805784E-01 6.240523607E-02 9.334098985E-01
 6.043853760E-01 6.339764595E-02 1.063910274E+00
 5.919970274E-01 6.450232118E-02 1.139860284E+00
 5.808084607E-01 6.539666653E-02 1.115906094E+00
 5.678287148E-01 6.638380885E-02 1.114279371E+00
 5.559450984E-01 6.718956679E-02 1.108777068E+00
 5.446565151E-01 6.789717823E-02 1.101786441E+00
 5.342663527E-01 6.846264005E-02 1.096925265E+00
 5.236435533E-01 6.902614236E-02 1.092964898E+00
 5.117818117E-01 6.952898949E-02 1.080091920E+00
 5.005673170E-01 6.995798647E-02 1.077891651E+00
 4.875963032E-01 7.037613541E-02 1.068848392E+00
 4.739755392E-01 7.070662826E-02 1.059387991E+00
 4.603774548E-01 7.095900923E-02 1.053463928E+00
 4.476315677E-01 7.110862434E-02 1.043593933E+00
 4.350699484E-01 7.117601484E-02 1.035495172E+00
 4.228795171E-01 7.117246091E-02 1.031054996E+00
 4.108177125E-01 7.111158967E-02 1.027188022E+00
 3.993277848E-01 7.098568231E-02 1.018574403E+00
 3.869210482E-01 7.078149170E-02 1.014820702E+00
 3.756745160E-01 7.054899633E-02 1.011137958E+00
 3.631144464E-01 7.020713389E-02 1.002420310E+00
 3.503369093E-01 6.979225576E-02 9.945552910E-01
 3.370428085E-01 6.927486509E-02 9.900940128E-01
 3.256448507E-01 6.878832728E-02 9.878490221E-01
 3.127883077E-01 6.814067811E-02 9.754114490E-01
 2.994694114E-01 6.740020961E-02 9.699564471E-01
 2.855464816E-01 6.655557454E-02 9.695818629E-01
 2.733381391E-01 6.572083384E-02 9.617678592E-01
 2.612327635E-01 6.481591612E-02 9.541399164E-01
 2.486999929E-01 6.380990893E-02 9.497687878E-01
 2.362297326E-01 6.271972507E-02 9.431687484E-01
 2.236779481E-01 6.153185293E-02 9.357407638E-01
 2.117229104E-01 6.031578034E-02 9.287034473E-01
 1.995137483E-01 5.899457261E-02 9.233249192E-01
 1.868558675E-01 5.751581118E-02 9.154078145E-01
 1.748635173E-01 5.601594970E-02 9.085385706E-01
 1.635486335E-01 5.450469628E-02 9.003891457E-01
 1.513734907E-01 5.277149007E-02 8.931504061E-01
 1.405112892E-01 5.110747367E-02 8.823323949E-01
 1.285785884E-01 4.918265715E-02 8.764879605E-01
 1.172536686E-01 4.719287157E-02 8.634126776E-01
 1.067292169E-01 4.523527250E-02 8.543397137E-01
 9.648296237E-02 4.319222271E-02 8.427842221E-01
 8.542016149E-02 4.082420468E-02 8.287982150E-01
 7.381036878E-02 3.812505677E-02 8.132370598E-01
 6.401693076E-02 3.564140573E-02 7.959051540E-01
 5.394229665E-02 3.286025301E-02 7.724507629E-01
 4.574754089E-02 3.038796037E-02 7.545241465E-01
 3.887983412E-02 2.812815271E-02 7.366996642E-01
 3.256340697E-02 2.586972900E-02 7.145276084E-01
 2.701673843E-02 2.370195836E-02 6.928159882E-01
 2.300615236E-02 2.200131491E-02 6.703530824E-01
 1.911558770E-02 2.021077462E-02 6.452990788E-01
 1.584196836E-02 1.857732609E-02 6.185248636E-01
 1.280288398E-02 1.691690274E-02 5.895009874E-01
 1.054262463E-02 1.556580514E-02 5.602477291E-01
 8.640614338E-03 1.433729101E-02 5.322961735E-01
 6.941432133E-03 1.313035004E-02 4.948257498E-01
 4.726324230E-03 1.137007214E-02 4.406247493E-01
 2.743466059E-03 9.488444775E-03 3.797791590E-01
 1.120094792E-03 7.553566247E-03 2.732120092E-01
 -4.703514569E-04 4.686590284E-03 1.150546211E-01
 -9.583905921E-04 2.662098967E-03 3.930037718E-02
 -9.621791542E-04 1.125227078E-03 1.734632723E-01
 -6.623772788E-04 -3.034307447E-04 3.012130893E-01
 -1.472119911E-04 -1.548557309E-03 4.175277536E-01
 8.251887048E-04 -3.070897190E-03 5.243273145E-01
 2.134863986E-03 -4.539230373E-03 6.119561212E-01
 3.928301390E-03 -6.069058087E-03 6.844225038E-01
 5.598688498E-03 -7.228126749E-03 7.320776655E-01
 7.409712300E-03 -8.309698664E-03 7.614774736E-01
 8.995164186E-03 -9.145554155E-03 7.808264740E-01
 1.106553152E-02 -1.012831740E-02 7.963204957E-01
 1.336095575E-02 -1.110702660E-02 8.090423630E-01
 1.660892367E-02 -1.233975496E-02 8.208506172E-01
 1.934515499E-02 -1.327369735E-02 8.305376520E-01
 2.292616479E-02 -1.438486390E-02 8.316583355E-01
 2.823070809E-02 -1.585775241E-02 8.331872905E-01
 3.399629891E-02 -1.728641614E-02 8.362643278E-01
 4.104956985E-02 -1.884672977E-02 8.363524636E-01
 4.876478389E-02 -2.038904093E-02 8.355288720E-01
 5.808746442E-02 -2.207725123E-02 8.353091359E-01
 6.700763106E-02 -2.355270088E-02 8.369027524E-01
 7.712132484E-02 -2.509406395E-02 8.371787279E-01
 8.755625039E-02 -2.656924725E-02 8.379114642E-01
 9.774202853E-02 -2.792102657E-02 8.406089070E-01
 1.091116369E-01 -2.933039702E-02 8.416085326E-01
 1.206983328E-01 -3.068555519E-02 8.450280148E-01
 1.327683777E-01 -3.201179579E-02 8.481956412E-01
 1.440137327E-01 -3.317611292E-02 8.513795809E-01
 1.554951668E-01 -3.430163115E-02 8.546386866E-01
 1.680801362E-01 -3.547041118E-02 8.592547402E-01
 1.800622493E-01 -3.651744127E-02 8.638185305E-01
 1.923701018E-01 -3.752733767E-02 8.684774333E-01
 2.034975886E-01 -3.838359565E-02 8.727334920E-01
 2.150752097E-01 -3.922267631E-02 8.776686757E-01
 2.276363075E-01 -4.006917402E-02 8.834806643E-01
 2.409542799E-01 -4.088821262E-02 8.888575406E-01
 2.535405755E-01 -4.159567133E-02 8.957824352E-01
 2.658405304E-01 -4.220855236E-02 9.010179760E-01
 2.770671546E-01 -4.270084575E-02 9.048733511E-01
 2.898196876E-01 -4.319931939E-02 9.125572581E-01
 3.020216525E-01 -4.357609153E-02 9.150778739E-01
 3.147596121E-01 -4.390768707E-02 9.232554354E-01
 3.267912865E-01 -4.411762208E-02 9.277752503E-01
 3.392798603E-01 -4.424097389E-02 9.297196186E-01
 3.503656983E-01 -4.427200556E-02 9.341609611E-01
 3.612956107E-01 -4.421353713E-02 9.347427829E-01
 3.716096580E-01 -4.408331215E-02 9.351433286E-01
 3.821244538E-01 -4.386701062E-02 9.335418931E-01
 3.935703933E-01 -4.353095219E-02 9.270274487E-01
 4.066352546E-01 -4.303618148E-02 9.208672631E-01
 4.190497696E-01 -4.245208576E-02 9.159988302E-01
 4.310122132E-01 -4.175724834E-02 9.030957648E-01
 4.428301454E-01 -4.098689929E-02 8.936998159E-01
 4.534968734E-01 -4.019545019E-02 8.816423125E-01
 4.645230472E-01 -3.931492195E-02 8.711943761E-01
 4.761016369E-01 -3.831415996E-02 8.615969114E-01
 4.866137207E-01 -3.730973229E-02 8.450076219E-01
 4.991744459E-01 -3.607015684E-02 8.327186051E-01
 5.124635100E-01 -3.467556834E-02 8.175667834E-01
 5.255134106E-01 -3.327487782E-02 8.081214316E-01
 5.389447212E-01 -3.174143285E-02 7.923109616E-01
 5.505231619E-01 -3.039864823E-02 7.805531290E-01
 5.636554360E-01 -2.885441668E-02 7.687523428E-01
 5.760485530E-01 -2.739941888E-02 7.611803045E-01
 5.872023702E-01 -2.605901286E-02 7.510207777E-01
 5.996123552E-01 -2.456808835E-02 7.420897740E-01
 6.145529151E-01 -2.276142687E-02 7.307986313E-01
 6.293453574E-01 -2.099562250E-02 7.220872374E-01
 6.453118920E-01 -1.908096671E-02 7.109749647E-01
 6.581795216E-01 -1.756955869E-02 7.040552405E-01
 6.714546680E-01 -1.602782682E-02 6.972985150E-01
 6.835477948E-01 -1.461918373E-02 6.881135250E-01
 6.962404847E-01 -1.319998689E-02 6.832695140E-01
 7.105585933E-01 -1.162362378E-02 6.770904746E-01
 7.235162854E-01 -1.020459086E-02 6.691988945E-01
 7.359688282E-01 -8.861471899E-03 6.609787119E-01
 7.497247458E-01 -7.458287757E-03 6.561939546E-01
 7.612354159E-01 -6.300942972E-03 6.487540559E-01
 7.745389342E-01 -5.056161899E-03 6.463776222E-01
 7.857144475E-01 -4.000129178E-03 6.374815309E-01
 7.986012101E-01 -2.865107497E-03 6.318191051E-01
 8.099242449E-01 -1.947239973E-03 6.287876515E-01
 8.218191266E-01 -1.010761247E-03 6.219550418E-01
 8.351172805E-01 -5.597257768E-05 6.166035535E-01
 8.477532864E-01 7.609918248E-04 6.109320093E-01
 8.600614071E-01 1.442301786E-03 6.075518336E-01
 8.722913265E-01 2.018488944E-03 6.038255335E-01
 8.845442533E-01 2.489084844E-03 6.000799605E-01
 8.982329965E-01 2.852558624E-03 5.983971898E-01
 9.085023403E-01 3.020626027E-03 5.973087125E-01
 9.195716977E-01 3.094399348E-03 5.975923192E-01
 9.286585450E-01 3.073073458E-03 5.980639476E-01
 9.367472529E-01 2.992725000E-03 5.991913515E-01
 9.479907751E-01 2.793237334E-03 6.010758906E-01
 9.597036839E-01 2.475972287E-03 6.034715413E-01
 9.745098948E-01 1.915703644E-03 6.069947019E-01
 9.870332479E-01 1.307229162E-03 6.085698307E-01
 -5.000000000E-01 -1.000000000E+00 7.242881806E-01
 3.500000000E+00 -1.000000000E+00 7.287157377E-01
 3.500000000E+00 1.000000000E+00 7.093924165E-01
 -5.000000000E-01 1.000000000E+00 7.246213985E-01
 9.946312606E-01 1.509487600E-03 6.078136577E-01
 9.831151366E-01 3.751650802E-03 6.483439025E-01
 9.677950144E-01 6.728160661E-03 6.801604145E-01
 9.504940212E-01 1.005126443E-02 7.003536015E-01
 9.335604608E-01 1.332536712E-02 7.214277658E-01
 9.186139703E-01 1.620755391E-02 7.367902321E-01
 9.063084126E-01 1.855697855E-02 7.478494344E-01
 8.944076896E-01 2.084813081E-02 7.629511889E-01
 8.826107085E-01 2.308877930E-02 7.756953118E-01
 8.705431819E-01 2.535043936E-02 7.918977107E-01
 8.576555848E-01 2.767452411E-02 7.984902930E-01
 8.446019292E-01 2.997586504E-02 8.048943519E-01
 8.332314789E-01 3.198671155E-02 8.208660160E-01
 8.222944140E-01 3.386451304E-02 8.251417700E-01
 8.102100492E-01 3.590628691E-02 8.370421975E-01
 7.979331613E-01 3.794467263E-02 8.476507461E-01
 7.853104770E-01 3.996610269E-02 8.506720297E-01
 7.729381919E-01 4.193279147E-02 8.655478599E-01
 7.610996068E-01 4.376695305E-02 8.718460622E-01
 7.486583292E-01 4.563956335E-02 8.810933779E-01
 7.353471816E-01 4.760264419E-02 8.900032668E-01
 7.233520150E-01 4.932880960E-02 9.021015785E-01
 7.128137052E-01 5.080342852E-02 9.100583107E-01
 7.018111050E-01 5.229462683E-02 9.189484179E-01
 6.894684136E-01 5.391225778E-02 9.238544624E-01
 6.766025424E-01 5.554970354E-02 9.372657460E-01
 6.555218995E-01 5.808550864E-02 9.487100231E-01
 6.438658237E-01 5.939619429E-02 9.590693529E-01
 6.321864724E-01 6.067124568E-02 9.639015271E-01
 6.206964850E-01 6.184292771E-02 9.342672936E-01
 6.096829772E-01 6.290144101E-02 9.760334512E-01
 5.981912017E-01 6.394998357E-02 1.128094081E+00
 5.864027441E-01 6.494949386E-02 1.126003095E+00
 5.743185878E-01 6.589023769E-02 1.115326069E+00
 5.618869066E-01 6.678668782E-02 1.110779429E+00
 5.503008068E-01 6.754337251E-02 1.106933781E+00
 5.394614339E-01 6.817990914E-02 1.096184080E+00
 5.289549530E-01 6.874439120E-02 1.099315859E+00
 5.177126825E-01 6.927756593E-02 1.083540594E+00
 5.061745644E-01 6.974348798E-02 1.079887455E+00
 4.940818101E-01 7.016706094E-02 1.074391718E+00
 4.807859212E-01 7.054138184E-02 1.063013298E+00
 4.671764970E-01 7.083281875E-02 1.056920740E+00
 4.540045112E-01 7.103381678E-02 1.048592126E+00
 4.413507581E-01 7.114231959E-02 1.039091415E+00
 4.289747328E-01 7.117423788E-02 1.032696141E+00
 4.168486148E-01 7.114202529E-02 1.029813629E+00
 4.050727487E-01 7.104863599E-02 1.022965368E+00
 3.931244165E-01 7.088358700E-02 1.015552554E+00
 3.812977821E-01 7.066524401E-02 1.014340567E+00
 3.693944812E-01 7.037806511E-02 1.006376257E+00
 3.567256778E-01 6.999969482E-02 9.989521953E-01
 3.436898589E-01 6.953356043E-02 9.905458360E-01
 3.313438296E-01 6.903159618E-02 9.911080897E-01
 3.192165792E-01 6.846450269E-02 9.812620532E-01
 3.061288595E-01 6.777044386E-02 9.715030228E-01
 2.925079465E-01 6.697789207E-02 9.702248546E-01
 2.794423103E-01 6.613820419E-02 9.662313904E-01
 2.672854513E-01 6.526837498E-02 9.574084630E-01
 2.549663782E-01 6.431291252E-02 9.521402350E-01
 2.424648628E-01 6.326481700E-02 9.466750135E-01
 2.299538404E-01 6.212578900E-02 9.394040821E-01
 2.177004293E-01 6.092381664E-02 9.319217826E-01
 2.056183293E-01 5.965517648E-02 9.264605363E-01
 1.931848079E-01 5.825519189E-02 9.192443621E-01
 1.808596924E-01 5.676588044E-02 9.118956584E-01
 1.692060754E-01 5.526032299E-02 9.046823475E-01
 1.574610621E-01 5.363809317E-02 8.969487714E-01
 1.459423900E-01 5.193948187E-02 8.873548491E-01
 1.345449388E-01 5.014506541E-02 8.801929014E-01
 1.229161285E-01 4.818776436E-02 8.693847682E-01
 1.119914427E-01 4.621407203E-02 8.591620886E-01
 1.016060896E-01 4.421374761E-02 8.489191256E-01
 9.095156193E-02 4.200821370E-02 8.365006982E-01
 7.961526513E-02 3.947463073E-02 8.204971046E-01
 6.891364977E-02 3.688323125E-02 8.050780165E-01
 5.897961371E-02 3.425082937E-02 7.866365335E-01
 7.206447795E-02 -2.432338241E-02 8.374761232E-01
 8.233878762E-02 -2.583165560E-02 8.373460203E-01
 9.264913946E-02 -2.724513691E-02 8.394623320E-01
 1.034268327E-01 -2.862571180E-02 8.409427590E-01
 1.149049848E-01 -3.000797611E-02 8.431806866E-01
 1.267333552E-01 -3.134867549E-02 8.465730452E-01
 1.383910552E-01 -3.259395435E-02 8.500281927E-01
 1.497544497E-01 -3.373887204E-02 8.528974613E-01
 1.617876515E-01 -3.488602117E-02 8.566819186E-01
 1.740711927E-01 -3.599392623E-02 8.616778987E-01
 1.862161756E-01 -3.702238947E-02 8.660249753E-01
 1.979338452E-01 -3.795546666E-02 8.708035553E-01
 2.092863992E-01 -3.880313598E-02 8.749708192E-01
 2.213557586E-01 -3.964592516E-02 8.805188760E-01
 2.342952937E-01 -4.047869332E-02 8.860658208E-01
 2.472474277E-01 -4.124194197E-02 8.922252340E-01
 2.596905529E-01 -4.190211184E-02 8.986496476E-01
 2.714538425E-01 -4.245469905E-02 9.031619683E-01
 2.834434211E-01 -4.295008257E-02 9.080028611E-01
 2.959206700E-01 -4.338770546E-02 9.147352749E-01
 3.083906323E-01 -4.374188930E-02 9.180366662E-01
 3.207754493E-01 -4.401265457E-02 9.266722703E-01
 3.330355734E-01 -4.417929798E-02 9.283427473E-01
 3.448227793E-01 -4.425648972E-02 9.321210505E-01
 3.558306545E-01 -4.424277134E-02 9.348693513E-01
 3.664526343E-01 -4.414842464E-02 9.350072031E-01
 3.768670559E-01 -4.397516139E-02 9.347198001E-01
 3.878474236E-01 -4.369898140E-02 9.307673982E-01
 4.001028240E-01 -4.328356683E-02 9.232801970E-01
 4.128425121E-01 -4.274413362E-02 9.188641658E-01
 4.250309914E-01 -4.210466705E-02 9.104212933E-01
 4.369211793E-01 -4.137207381E-02 8.976682522E-01
 4.481635094E-01 -4.059117474E-02 8.885436741E-01
 4.590099603E-01 -3.975518607E-02 8.759225596E-01
 4.703123420E-01 -3.881454095E-02 8.664862794E-01
 4.813576788E-01 -3.781194612E-02 8.542849937E-01
 4.928940833E-01 -3.668994457E-02 8.381153961E-01
 5.058189780E-01 -3.537286259E-02 8.254136140E-01
 5.189884603E-01 -3.397522308E-02 8.125273387E-01
 5.322290659E-01 -3.250815533E-02 8.006758327E-01
 5.447339416E-01 -3.107004054E-02 7.862311373E-01
 5.570892990E-01 -2.962653246E-02 7.744401114E-01
 5.698519945E-01 -2.812691778E-02 7.646752281E-01
 5.816254616E-01 -2.672921587E-02 7.563598037E-01
 5.934073627E-01 -2.531355061E-02 7.465374048E-01
 6.070826352E-01 -2.366475761E-02 7.365673723E-01
 6.219491363E-01 -2.187852468E-02 7.263030405E-01
 6.373286247E-01 -2.003829461E-02 7.166635101E-01
 6.517457068E-01 -1.832526270E-02 7.070560113E-01
 6.648170948E-01 -1.679869276E-02 7.007626298E-01
 6.775012314E-01 -1.532350527E-02 6.927551411E-01
 6.898941398E-01 -1.390958531E-02 6.854304368E-01
 7.033995390E-01 -1.241180534E-02 6.803662385E-01
 7.170374393E-01 -1.091410732E-02 6.732174474E-01
 7.297425568E-01 -9.533031378E-03 6.650172629E-01
 7.428467870E-01 -8.159879828E-03 6.586581676E-01
 7.554800808E-01 -6.879615365E-03 6.522114310E-01
 7.678871751E-01 -5.678552436E-03 6.475269856E-01
 7.801266909E-01 -4.528145539E-03 6.420885619E-01
 7.921578288E-01 -3.432618338E-03 6.346487117E-01
 8.042627275E-01 -2.406173735E-03 6.300628255E-01
 8.158716857E-01 -1.479000610E-03 6.255069590E-01
 8.284682035E-01 -5.333669124E-04 6.194487095E-01
 8.414352834E-01 3.525096236E-04 6.136095734E-01
 8.539073467E-01 1.101646805E-03 6.090860766E-01
 8.661763668E-01 1.730395365E-03 6.057404614E-01
 8.784177899E-01 2.253786894E-03 6.017662660E-01
 8.913886249E-01 2.670821734E-03 5.995937248E-01
 9.033676684E-01 2.936592326E-03 5.970057470E-01
 9.140370190E-01 3.057512688E-03 5.975380544E-01
 9.423690140E-01 2.892981167E-03 6.003893096E-01
 9.538472295E-01 2.634604811E-03 6.019039622E-01
 9.671067894E-01 2.195837966E-03 6.057799726E-01
 9.807715714E-01 1.611466403E-03 6.072679248E-01
 9.934075475E-01 9.056794515E-04 6.146552373E-01
 -5.000000000E-01 9.500000000E-01 7.225127252E-01
 -5.000000000E-01 9.000000000E-01 7.192109772E-01
 -5.000000000E-01 8.500000000E-01 7.166680933E-01
 -5.000000000E-01 8.000000000E-01 7.143947884E-01
 -5.000000000E-01 7.500000000E-01 7.122427509E-01
 -5.000000000E-01 7.000000000E-01 7.101076245E-01
 -5.000000000E-01 6.500000000E-01 7.079595059E-01
 -5.000000000E-01 6.000000000E-01 7.057444694E-01
 -5.000000000E-01 5.500000000E-01 7.034871562E-01
 -5.000000000E-01 5.000000000E-01 7.011930331E-01
 -5.000000000E-01 4.500000000E-01 6.988539158E-01
 -5.000000000E-01 4.000000000E-01 6.965659762E-01
 -5.000000000E-01 3.500000000E-01 6.942881778E-01
 -5.000000000E-01 3.000000000E-01 6.921270206E-01
 -5.000000000E-01 2.500000000E-01 6.901614042E-01
 -5.000000000E-01 2.000000000E-01 6.884664528E-01
 -5.000000000E-01 1.500000000E-01 6.870279285E-01
 -5.000000000E-01 1.000000000E-01 6.859956096E-01
 -5.000000000E-01 5.000000000E-02 6.853838448E-01
 -5.000000000E-01 2.752242878E-12 6.851787678E-01
 -5.000000000E-01 -5.000000000E-02 6.854450190E-01
 -5.000000000E-01 -1.000000000E-01 6.861488695E-01
 -5.000000000E-01 -1.500000000E-01 6.872418925E-01
 -5.000000000E-01 -2.000000000E-01 6.886791761E-01
 -5.000000000E-01 -2.500000000E-01 6.903339754E-01
 -5.000000000E-01 -3.000000000E-01 6.922391234E-01
 -5.000000000E-01 -3.500000000E-01 6.942678057E-01
 -5.000000000E-01 -4.000000000E-01 6.964128232E-01
 -5.000000000E-01 -4.500000000E-01 6.985635662E-01
 -5.000000000E-01 -5.000000000E-01 7.007297782E-01
 -5.000000000E-01 -5.500000000E-01 7.028990348E-01
 -5.000000000E-01 -6.000000000E-01 7.050042148E-01
 -5.000000000E-01 -6.500000000E-01 7.070973384E-01
 -5.000000000E-01 -7.000000000E-01 7.092004002E-01
 -5.000000000E-01 -7.500000000E-01 7.112905322E-01
 -5.000000000E-01 -8.000000000E-01 7.134444435E-01
 -5.000000000E-01 -8.500000000E-01 7.157896183E-01
 -5.000000000E-01 -9.000000000E-01 7.184903032E-01
 -5.000000000E-01 -9.500000000E-01 7.219968449E-01
 -4.500000000E-01 -1.000000000E+00 7.218450609E-01
 -4.000000000E-01 -1.000000000E+00 7.183944861E-01
 -3.500000000E-01 -1.000000000E+00 7.160963767E-01
 -3.000000000E-01 -1.000000000E+00 7.144938225E-01
 -2.500000000E-01 -1.000000000E+00 7.134476014E-01
 -2.000000000E-01 -1.000000000E+00 7.129575180E-01
 -1.500000000E-01 -1.000000000E+00 7.129570253E-01
 -1.000000000E-01 -1.000000000E+00 7.134216995E-01
 -5.000000000E-02 -1.000000000E+00 7.143429259E-01
 -9.424683256E-13 -1.000000000E+00 7.156847990E-01
 5.000000000E-02 -1.000000000E+00 7.173563500E-01
 1.000000000E-01 -1.000000000E+00 7.193538442E-01
 1.500000000E-01 -1.000000000E+00 7.215826433E-01
 2.000000000E-01 -1.000000000E+00 7.238505015E-01
 2.500000000E-01 -1.000000000E+00 7.260479528E-01
 3.000000000E-01 -1.000000000E+00 7.280881314E-01
 3.500000000E-01 -1.000000000E+00 7.298064699E-01
 4.000000000E-01 -1.000000000E+00 7.311230509E-01
 4.500000000E-01 -1.000000000E+00 7.319471968E-01
 5.000000000E-01 -1.000000000E+00 7.322084739E-01
 5.500000000E-01 -1.000000000E+00 7.319176735E-01
 6.000000000E-01 -1.000000000E+00 7.311375452E-01
 6.500000000E-01 -1.000000000E+00 7.299459317E-01
 7.000000000E-01 -1.000000000E+00 7.284115359E-01
 7.500000000E-01 -1.000000000E+00 7.265755147E-01
 8.000000000E-01 -1.000000000E+00 7.245236058E-01
 8.500000000E-01 -1.000000000E+00 7.224505548E-01
 9.000000000E-01 -1.000000000E+00 7.203726977E-01
 9.500000000E-01 -1.000000000E+00 7.183627910E-01
 1.000000000E+00 -1.000000000E+00 7.165493554E-01
 1.050000000E+00 -1.000000000E+00 7.149627704E-01
 1.100000000E+00 -1.000000000E+00 7.135977627E-01
 1.150000000E+00 -1.000000000E+00 7.124835527E-01
 1.200000000E+00 -1.000000000E+00 7.116147566E-01
 1.250000000E+00 -1.000000000E+00 7.109811295E-01
 1.300000000E+00 -1.000000000E+00 7.105859361E-01
 1.350000000E+00 -1.000000000E+00 7.103696792E-01
 1.400000000E+00 -1.000000000E+00 7.103176266E-01
 1.450000000E+00 -1.000000000E+00 7.104214075E-01
 1.500000000E+00 -1.000000000E+00 7.106584884E-01
 1.550000000E+00 -1.000000000E+00 7.109945181E-01
 1.600000000E+00 -1.000000000E+00 7.114128159E-01
 1.650000000E+00 -1.000000000E+00 7.118460671E-01
 1.700000000E+00 -1.000000000E+00 7.123585345E-01
 1.750000000E+00 -1.000000000E+00 7.128963506E-01
 1.800000000E+00 -1.000000000E+00 7.135017048E-01
 1.850000000E+00 -1.000000000E+00 7.140971165E-01
 1.900000000E+00 -1.000000000E+00 7.146903442E-01
 1.950000000E+00 -1.000000000E+00 7.152852580E-01
 2.000000000E+00 -1.000000000E+00 7.158766445E-01
 2.050000000E+00 -1.000000000E+00 7.164868669E-01
 2.100000000E+00 -1.000000000E+00 7.170641431E-01
 2.150000000E+00 -1.000000000E+00 7.175820695E-01
 2.200000000E+00 -1.000000000E+00 7.180537077E-01
 2.250000000E+00 -1.000000000E+00 7.185706043E-01
 2.300000000E+00 -1.000000000E+00 7.190919985E-01
 2.350000000E+00 -1.000000000E+00 7.195513369E-01
 2.400000000E+00 -1.000000000E+00 7.199975169E-01
 2.450000000E+00 -1.000000000E+00 7.204114509E-01
 2.500000000E+00 -1.000000000E+00 7.208178034E-01
 2.550000000E+00 -1.000000000E+00 7.211978618E-01
 2.600000000E+00 -1.000000000E+00 7.215570769E-01
 2.650000000E+00 -1.000000000E+00 7.218448535E-01
 2.700000000E+00 -1.000000000E+00 7.221399042E-01
 2.750000000E+00 -1.000000000E+00 7.224690247E-01
 2.800000000E+00 -1.000000000E+00 7.227784750E-01
 2.850000000E+00 -1.000000000E+00 7.230217868E-01
 2.900000000E+00 -1.000000000E+00 7.232302088E-01
 2.950000000E+00 -1.000000000E+00 7.234331410E-01
 3.000000000E+00 -1.000000000E+00 7.236092855E-01
 3.050000000E+00 -1.000000000E+00 7.237975210E-01
 3.100000000E+00 -1.000000000E+00 7.239709629E-01
 3.150000000E+00 -1.000000000E+00 7.241318824E-01
 3.200000000E+00 -1.000000000E+00 7.242830018E-01
 3.250000000E+00 -1.000000000E+00 7.245128381E-01
 3.300000000E+00 -1.000000000E+00 7.247629815E-01
 3.350000000E+00 -1.000000000E+00 7.251368634E-01
 3.400000000E+00 -1.000000000E+00 7.256485854E-01
 3.450000000E+00 -1.000000000E+00 7.267382528E-01
 3.500000000E+00 -9.500000000E-01 7.298675045E-01
 3.500000000E+00 -9.000000000E-01 7.304115381E-01
 3.500000000E+00 -8.500000000E-01 7.308068834E-01
 3.500000000E+00 -8.000000000E-01 7.311211886E-01
 3.500000000E+00 -7.500000000E-01 7.314191858E-01
 3.500000000E+00 -7.000000000E-01 7.316782825E-01
 3.500000000E+00 -6.500000000E-01 7.319266732E-01
 3.500000000E+00 -6.000000000E-01 7.321970581E-01
 3.500000000E+00 -5.500000000E-01 7.324820103E-01
 3.500000000E+00 -5.000000000E-01 7.327730777E-01
 3.500000000E+00 -4.500000000E-01 7.330723007E-01
 3.500000000E+00 -4.000000000E-01 7.333534730E-01
 3.500000000E+00 -3.500000000E-01 7.336444909E-01
 3.500000000E+00 -3.000000000E-01 7.339259595E-01
 3.500000000E+00 -2.500000000E-01 7.341978404E-01
 3.500000000E+00 -2.000000000E-01 7.343956407E-01
 3.500000000E+00 -1.500000000E-01 7.345141890E-01
 3.500000000E+00 -1.000000000E-01 7.345383535E-01
 3.500000000E+00 -5.000000000E-02 7.345219080E-01
 3.500000000E+00 -2.752242878E-12 7.344992521E-01
 3.500000000E+00 5.000000000E-02 7.344582565E-01
 3.500000000E+00 1.000000000E-01 7.343694996E-01
 3.500000000E+00 1.500000000E-01 7.341730527E-01
 3.500000000E+00 2.000000000E-01 7.338775880E-01
 3.500000000E+00 2.500000000E-01 7.335531135E-01
 3.500000000E+00 3.000000000E-01 7.332497426E-01
 3.500000000E+00 3.500000000E-01 7.329373673E-01
 3.500000000E+00 4.000000000E-01 7.326207800E-01
 3.500000000E+00 4.500000000E-01 7.322882241E-01
 3.500000000E+00 5.000000000E-01 7.318550670E-01
 3.500000000E+00 5.500000000E-01 7.314985704E-01
 3.500000000E+00 6.000000000E-01 7.314270662E-01
 3.500000000E+00 6.500000000E-01 7.317633907E-01
 3.500000000E+00 7.000000000E-01 7.322281339E-01
 3.500000000E+00 7.500000000E-01 7.320848091E-01
 3.500000000E+00 8.000000000E-01 7.305927406E-01
 3.500000000E+00 8.500000000E-01 7.271682290E-01
 3.500000000E+00 9.000000000E-01 7.224415039E-01
 3.500000000E+00 9.500000000E-01 7.168535469E-01
 3.450000000E+00 1.000000000E+00 6.980526830E-01
 3.400000000E+00 1.000000000E+00 6.926267061E-01
 3.350000000E+00 1.000000000E+00 6.911875825E-01
 3.300000000E+00 1.000000000E+00 6.907007241E-01
 3.250000000E+00 1.000000000E+00 6.909992905E-01
 3.200000000E+00 1.000000000E+00 6.912246045E-01
 3.150000000E+00 1.000000000E+00 6.912582158E-01
 3.100000000E+00 1.000000000E+00 6.916832944E-01
 3.050000000E+00 1.000000000E+00 6.920009067E-01
 3.000000000E+00 1.000000000E+00 6.924030553E-01
 2.950000000E+00 1.000000000E+00 6.926624245E-01
 2.900000000E+00 1.000000000E+00 6.929233148E-01
 2.850000000E+00 1.000000000E+00 6.931983695E-01
 2.800000000E+00 1.000000000E+00 6.936344026E-01
 2.750000000E+00 1.000000000E+00 6.940861882E-01
 2.700000000E+00 1.000000000E+00 6.946589978E-01
 2.650000000E+00 1.000000000E+00 6.952271721E-01
 2.600000000E+00 1.000000000E+00 6.960354957E-01
 2.550000000E+00 1.000000000E+00 6.967301075E-01
 2.500000000E+00 1.000000000E+00 6.966532972E-01
 2.450000000E+00 1.000000000E+00 6.970145127E-01
 2.400000000E+00 1.000000000E+00 6.974816511E-01
 2.350000000E+00 1.000000000E+00 6.980073201E-01
 2.300000000E+00 1.000000000E+00 6.981661005E-01
 2.250000000E+00 1.000000000E+00 6.982726754E-01
 2.200000000E+00 1.000000000E+00 6.993703954E-01
 2.150000000E+00 1.000000000E+00 7.003254537E-01
 2.100000000E+00 1.000000000E+00 7.005922218E-01
 2.050000000E+00 1.000000000E+00 7.010491332E-01
 2.000000000E+00 1.000000000E+00 7.017024250E-01
 1.950000000E+00 1.000000000E+00 7.028354671E-01
 1.900000000E+00 1.000000000E+00 7.038524992E-01
 1.850000000E+00 1.000000000E+00 7.043167649E-01
 1.800000000E+00 1.000000000E+00 7.057988407E-01
 1.750000000E+00 1.000000000E+00 7.061875360E-01
 1.700000000E+00 1.000000000E+00 7.070524052E-01
 1.650000000E+00 1.000000000E+00 7.083871912E-01
 1.600000000E+00 1.000000000E+00 7.103254693E-01
 1.550000000E+00 1.000000000E+00 7.116507167E-01
 1.500000000E+00 1.000000000E+00 7.136162232E-01
 1.450000000E+00 1.000000000E+00 7.156326551E-01
 1.400000000E+00 1.000000000E+00 7.177811019E-01
 1.350000000E+00 1.000000000E+00 7.201846334E-01
 1.300000000E+00 1.000000000E+00 7.221516855E-01
 1.250000000E+00 1.000000000E+00 7.255982331E-01
 1.200000000E+00 1.000000000E+00 7.294125059E-01
 1.150000000E+00 1.000000000E+00 7.329774390E-01
 1.100000000E+00 1.000000000E+00 7.364548637E-01
 1.050000000E+00 1.000000000E+00 7.405931476E-01
 1.000000000E+00 1.000000000E+00 7.443240550E-01
 9.500000000E-01 1.000000000E+00 7.488376821E-01
 9.000000000E-01 1.000000000E+00 7.537798779E-01
 8.500000000E-01 1.000000000E+00 7.583687959E-01
 8.000000000E-01 1.000000000E+00 7.627689061E-01
 7.500000000E-01 1.000000000E+00 7.657143920E-01
 7.000000000E-01 1.000000000E+00 7.686625658E-01
 6.500000000E-01 1.000000000E+00 7.706977010E-01
 6.000000000E-01 1.000000000E+00 7.706078194E-01
 5.500000000E-01 1.000000000E+00 7.693651843E-01
 5.000000000E-01 1.000000000E+00 7.690255420E-01
 4.500000000E-01 1.000000000E+00 7.652603268E-01
 4.000000000E-01 1.000000000E+00 7.620587227E-01
 3.500000000E-01 1.000000000E+00 7.578730363E-01
 3.000000000E-01 1.000000000E+00 7.520798587E-01
 2.500000000E-01 1.000000000E+00 7.469321231E-01
 2.000000000E-01 1.000000000E+00 7.413629702E-01
 1.500000000E-01 1.000000000E+00 7.361884792E-01
 1.000000000E-01 1.000000000E+00 7.312095868E-01
 5.000000000E-02 1.000000000E+00 7.267961599E-01
 1.733724275E-12 1.000000000E+00 7.230834052E-01
 -5.000000000E-02 1.000000000E+00 7.200954164E-01
 -1.000000000E-01 1.000000000E+00 7.179059431E-01
 -1.500000000E-01 1.000000000E+00 7.164225870E-01
 -2.000000000E-01 1.000000000E+00 7.156440103E-01
 -2.500000000E-01 1.000000000E+00 7.155305076E-01
 -3.000000000E-01 1.000000000E+00 7.160743665E-01
 -3.500000000E-01 1.000000000E+00 7.172693249E-01
 -4.000000000E-01 1.000000000E+00 7.192463966E-01
 -4.500000000E-01 1.000000000E+00 7.223978375E-01
 9.836389325E-01 -3.963423180E-03 6.125382365E-01
 9.008731077E-01 -1.552180854E-03 6.007183213E-01
 8.192509134E-01 -6.395515803E-03 6.259483702E-01
 7.468437396E-01 -1.327909566E-02 6.586069438E-01
 6.759908483E-01 -2.030166625E-02 6.950566382E-01
 6.040653201E-01 -3.000275244E-02 7.398945373E-01
 5.362966889E-01 -3.740154783E-02 7.950227661E-01
 4.744764175E-01 -4.284345331E-02 8.604183056E-01
 4.217277006E-01 -4.763412847E-02 9.095463995E-01
 3.640480861E-01 -4.907024230E-02 9.313021184E-01
 3.114388204E-01 -4.862478604E-02 9.179402972E-01
 2.504653533E-01 -4.673925922E-02 8.919939714E-01
 1.878948185E-01 -4.296502335E-02 8.651806644E-01
 1.291963852E-01 -3.672653948E-02 8.457063529E-01
 7.395785683E-02 -2.904618309E-02 8.339947103E-01
 3.629173920E-02 -2.363209067E-02 8.216726183E-01
 1.140023225E-02 -1.252447542E-02 7.812417557E-01