TITLE     = "Visualization of the solution"
VARIABLES = "x"
"y"
"Mach"
ZONE T="Zone"
 STRANDID=0, SOLUTIONTIME=0
 Nodes=12099, Elements=23618, ZONETYPE=FEQuadrilateral
 DATAPACKING=POINT
 DT=(DOUBLE DOUBLE DOUBLE )
 9.999719262E-01 5.186204216E-04 5.680053980E-01
 9.858454466E-01 2.944326028E-03 6.651829044E-01
 9.731317163E-01 5.125924479E-03 6.888738199E-01
 9.587501884E-01 7.615455426E-03 7.095739736E-01
 9.451159835E-01 9.985523298E-03 7.296327165E-01
 9.324330091E-01 1.215726323E-02 7.477400870E-01
 9.206890464E-01 1.407465898E-02 7.542171752E-01
 9.080440402E-01 1.617893949E-02 7.731836355E-01
 8.960214853E-01 1.807875559E-02 7.820176856E-01
 8.836184740E-01 2.001889609E-02 7.984044324E-01
 8.710123897E-01 2.185321227E-02 8.018735703E-01
 8.589602709E-01 2.358136885E-02 8.102755334E-01
 8.464272618E-01 2.532385103E-02 8.178746874E-01
 8.345961571E-01 2.690623328E-02 8.220726867E-01
 8.226923943E-01 2.845830284E-02 8.258563252E-01
 8.097543716E-01 3.010574915E-02 8.295500799E-01
 7.967794538E-01 3.174367547E-02 8.366870174E-01
 7.849417329E-01 3.320830315E-02 8.428211437E-01
 7.723603845E-01 3.472661600E-02 8.482091034E-01
 7.601118684E-01 3.616983443E-02 8.525407696E-01
 7.472271323E-01 3.768031672E-02 8.620701691E-01
 7.332446575E-01 3.924851865E-02 8.656784549E-01
 7.223162651E-01 4.045889527E-02 8.711869287E-01
 7.111967206E-01 4.167739674E-02 8.794338722E-01
 6.995439529E-01 4.291625693E-02 8.862349982E-01
 6.860473156E-01 4.431029409E-02 8.935872680E-01
 6.731062531E-01 4.559303448E-02 8.998473595E-01
 6.629241705E-01 4.659708962E-02 9.117756539E-01
 6.513244510E-01 4.766679555E-02 9.151249402E-01
 6.405066848E-01 4.863983020E-02 9.229153018E-01
 6.286194324E-01 4.966206476E-02 9.315451701E-01
 6.175534129E-01 5.056705698E-02 9.371200450E-01
 6.066559553E-01 5.140100420E-02 9.388907004E-01
 5.945063233E-01 5.231941491E-02 9.551698958E-01
 5.827375054E-01 5.314017460E-02 9.636553832E-01
 5.692190528E-01 5.398499966E-02 9.664913577E-01
 5.564459562E-01 5.472594872E-02 9.750506682E-01
 5.438526869E-01 5.538384244E-02 9.803826645E-01
 5.326306224E-01 5.590263754E-02 9.839260670E-01
 5.208627582E-01 5.640326068E-02 9.925559172E-01
 5.080293417E-01 5.686378852E-02 9.946131622E-01
 4.970742762E-01 5.718357489E-02 9.945547120E-01
 4.840399921E-01 5.752025172E-02 9.971789007E-01
 4.710195959E-01 5.774245039E-02 9.895314053E-01
 4.568124712E-01 5.793257803E-02 9.908505383E-01
 4.428829849E-01 5.801551417E-02 9.880639083E-01
 4.298026562E-01 5.803176761E-02 9.881654273E-01
 4.166399240E-01 5.795732513E-02 9.813841685E-01
 4.041890800E-01 5.781115964E-02 9.742111430E-01
 3.916140497E-01 5.761285871E-02 9.720697642E-01
 3.795126677E-01 5.735742301E-02 9.689232500E-01
 3.683675528E-01 5.706463382E-02 9.618943325E-01
 3.553880155E-01 5.665592477E-02 9.558758010E-01
 3.435029685E-01 5.623798445E-02 9.539034804E-01
 3.313457370E-01 5.573947355E-02 9.488417990E-01
 3.211274743E-01 5.527559295E-02 9.435118953E-01
 3.089369833E-01 5.466852710E-02 9.385277691E-01
 2.960815430E-01 5.396731570E-02 9.339073729E-01
 2.822738290E-01 5.313318595E-02 9.281225863E-01
 2.694591582E-01 5.228826776E-02 9.221501734E-01
 2.574266195E-01 5.143465474E-02 9.167479287E-01
 2.447094768E-01 5.047179386E-02 9.119904875E-01
 2.314757854E-01 4.938799888E-02 9.050642572E-01
 2.190657109E-01 4.830829799E-02 8.999369502E-01
 2.071471065E-01 4.721319303E-02 8.958890283E-01
 1.955710948E-01 4.607865587E-02 8.896553952E-01
 1.829676181E-01 4.477888718E-02 8.852300048E-01
 1.709217876E-01 4.345132411E-02 8.776403243E-01
 1.589817256E-01 4.207691178E-02 8.739049016E-01
 1.468893141E-01 4.060030356E-02 8.690950450E-01
 1.358627975E-01 3.916932642E-02 8.624792927E-01
 1.245932505E-01 3.763378784E-02 8.571535448E-01
 1.129835695E-01 3.595698625E-02 8.520361292E-01
 1.023569778E-01 3.433586285E-02 8.462378564E-01
 9.247151017E-02 3.273130581E-02 8.415113979E-01
 8.136340231E-02 3.081239574E-02 8.340536674E-01
 6.970416754E-02 2.864880487E-02 8.273733605E-01
 6.007542834E-02 2.671207860E-02 8.209838036E-01
 5.064151809E-02 2.465933189E-02 8.128524879E-01
 4.189985245E-02 2.256979421E-02 8.057279315E-01
 3.445850685E-02 2.062393911E-02 7.974289747E-01
 2.804516442E-02 1.876319572E-02 7.872220425E-01
 2.266341448E-02 1.703749970E-02 7.778541328E-01
 1.879871264E-02 1.567383856E-02 7.665834233E-01
 1.520807389E-02 1.427911315E-02 7.549821344E-01
 1.261688489E-02 1.317012031E-02 7.437516385E-01
 1.037048176E-02 1.211646013E-02 7.301091472E-01
 8.703127503E-03 1.125976071E-02 7.129452377E-01
 7.157275919E-03 1.040328294E-02 6.965109815E-01
 5.721113645E-03 9.528002702E-03 6.677845573E-01
 3.832197050E-03 8.221096359E-03 6.310103616E-01
 2.223727060E-03 6.896001752E-03 5.851339898E-01
 8.225394995E-04 5.461069755E-03 5.074947992E-01
 -5.060557160E-04 3.576057265E-03 3.867869898E-01
 -1.182418433E-03 2.043739660E-03 2.821670583E-01
 -1.481784857E-03 8.169036009E-04 1.776262798E-01
 -1.558228745E-03 -6.957516889E-04 4.905500447E-02
 -1.265089377E-03 -2.528490499E-03 9.801468967E-02
 -4.604773421E-04 -4.585904535E-03 2.192627691E-01
 9.290038724E-04 -6.788875442E-03 3.334279624E-01
 2.969899215E-03 -9.133220650E-03 4.320170925E-01
 4.819369409E-03 -1.084404811E-02 4.966488651E-01
 7.030595094E-03 -1.259879954E-02 5.441444589E-01
 8.626397699E-03 -1.372793317E-02 5.796113749E-01
 1.063019596E-02 -1.502648648E-02 6.081281002E-01
 1.301354636E-02 -1.644362137E-02 6.386673791E-01
 1.620925590E-02 -1.815786958E-02 6.702033878E-01
 1.934523880E-02 -1.968955249E-02 6.972099284E-01
 2.334934101E-02 -2.146439254E-02 7.207332715E-01
 2.873709053E-02 -2.363113686E-02 7.466059339E-01
 3.436519206E-02 -2.565908991E-02 7.689792719E-01
 4.155367985E-02 -2.799900435E-02 7.864815991E-01
 4.901845008E-02 -3.019304387E-02 8.024561004E-01
 5.766848847E-02 -3.249461576E-02 8.165763385E-01
 6.631042063E-02 -3.459465876E-02 8.284287453E-01
 7.662350684E-02 -3.689787909E-02 8.416263611E-01
 8.646570891E-02 -3.891244531E-02 8.489229515E-01
 9.700693190E-02 -4.091523960E-02 8.600909905E-01
 1.078963056E-01 -4.282774404E-02 8.666888361E-01
 1.195185259E-01 -4.473264515E-02 8.750068281E-01
 1.308899075E-01 -4.646695405E-02 8.826421713E-01
 1.415040642E-01 -4.798750952E-02 8.907471901E-01
 1.525302678E-01 -4.946324229E-02 8.960643099E-01
 1.643691212E-01 -5.095651746E-02 9.041946985E-01
 1.761045158E-01 -5.233639479E-02 9.116433174E-01
 1.879628599E-01 -5.364198610E-02 9.200909765E-01
 1.983873397E-01 -5.471403524E-02 9.284596712E-01
 2.096733898E-01 -5.579261109E-02 9.356783603E-01
 2.219486684E-01 -5.687035248E-02 9.411961117E-01
 2.343334407E-01 -5.788613483E-02 9.545765686E-01
 2.464234084E-01 -5.875426903E-02 9.594474016E-01
 2.590836585E-01 -5.959032848E-02 9.675225786E-01
 2.704549432E-01 -6.026319042E-02 9.828228983E-01
 2.831541598E-01 -6.089977175E-02 9.923007535E-01
 2.956243753E-01 -6.141316518E-02 9.993909151E-01
 3.085305393E-01 -6.184341758E-02 1.010741180E+00
 3.202288151E-01 -6.212466955E-02 1.024426668E+00
 3.326615095E-01 -6.230488047E-02 1.030214510E+00
 3.431104124E-01 -6.236786023E-02 1.034646053E+00
 3.544082940E-01 -6.235375255E-02 1.043415262E+00
 3.655149341E-01 -6.222186610E-02 1.048315695E+00
 3.762198091E-01 -6.201779470E-02 1.055794759E+00
 3.876627684E-01 -6.166359782E-02 1.043116151E+00
 4.000572264E-01 -6.117041409E-02 1.013971180E+00
 4.121110737E-01 -6.056003645E-02 9.948566749E-01
 4.252193272E-01 -5.976946279E-02 9.843780424E-01
 4.378834963E-01 -5.886839330E-02 9.725864554E-01
 4.507010877E-01 -5.780545622E-02 9.486411402E-01
 4.631857872E-01 -5.669288710E-02 9.384279303E-01
 4.756493568E-01 -5.542388558E-02 9.165712737E-01
 4.874280989E-01 -5.415782705E-02 9.004976114E-01
 4.998087287E-01 -5.275723711E-02 8.902809974E-01
 5.130616426E-01 -5.111644417E-02 8.673897561E-01
 5.266693234E-01 -4.936451465E-02 8.493787925E-01
 5.398998260E-01 -4.761959612E-02 8.375367396E-01
 5.536814332E-01 -4.571073875E-02 8.197913628E-01
 5.664286613E-01 -4.390685633E-02 8.054286737E-01
 5.797510147E-01 -4.201021791E-02 7.943191253E-01
 5.922100544E-01 -4.020272195E-02 7.830588335E-01
 6.047332287E-01 -3.836885840E-02 7.728530526E-01
 6.178142428E-01 -3.641441837E-02 7.589619909E-01
 6.321251988E-01 -3.430977464E-02 7.512080458E-01
 6.456208229E-01 -3.228332847E-02 7.387240479E-01
 6.590727568E-01 -3.027007170E-02 7.278499120E-01
 6.727598906E-01 -2.825517394E-02 7.198546162E-01
 6.854778528E-01 -2.638993040E-02 7.119728320E-01
 6.978643537E-01 -2.457457408E-02 7.026442287E-01
 7.127106786E-01 -2.244683169E-02 6.957728253E-01
 7.256194949E-01 -2.059298381E-02 6.865638952E-01
 7.370856404E-01 -1.896286011E-02 6.777050831E-01
 7.497049570E-01 -1.723408140E-02 6.724119450E-01
 7.626703978E-01 -1.548128016E-02 6.656956782E-01
 7.753289342E-01 -1.376915257E-02 6.547820950E-01
 7.876772285E-01 -1.220927760E-02 6.522079882E-01
 8.001439571E-01 -1.062333584E-02 6.425500366E-01
 8.113044500E-01 -9.267256595E-03 6.361943088E-01
 8.228930831E-01 -7.927496918E-03 6.312073650E-01
 8.350995183E-01 -6.558746565E-03 6.241515418E-01
 8.472577929E-01 -5.266134162E-03 6.169045450E-01
 8.592380881E-01 -4.084763117E-03 6.109170659E-01
 8.708544970E-01 -3.027995816E-03 6.048912109E-01
 8.829486370E-01 -2.048710827E-03 6.004110250E-01
 8.960287571E-01 -1.117447973E-03 5.950871945E-01
 9.065617323E-01 -5.028591841E-04 5.936236728E-01
 9.165094495E-01 1.319774401E-05 5.905748575E-01
 9.266086817E-01 4.094215110E-04 5.902946017E-01
 9.359276891E-01 7.026509265E-04 5.896630743E-01
 9.486153722E-01 9.634558810E-04 5.895392969E-01
 9.626612663E-01 1.079409849E-03 5.895480326E-01
 9.773434401E-01 1.016665250E-03 5.881739056E-01
 9.898471832E-01 8.058113744E-04 5.790179967E-01
 -5.000000000E-01 -1.000000000E+00 7.243415265E-01
 3.500000000E+00 -1.000000000E+00 7.275956785E-01
 3.500000000E+00 1.000000000E+00 7.157709374E-01
 -5.000000000E-01 1.000000000E+00 7.246751322E-01
 9.929086864E-01 1.731473225E-03 6.448781615E-01
 9.794885814E-01 4.035125254E-03 6.789492689E-01
 9.659409523E-01 6.370689953E-03 6.997882566E-01
 9.519330859E-01 8.800489362E-03 7.194207733E-01
 9.387744963E-01 1.107139327E-02 7.398372006E-01
 9.265610278E-01 1.311596110E-02 7.501580054E-01
 9.143665433E-01 1.512679923E-02 7.643652370E-01
 9.020327628E-01 1.712884754E-02 7.772012513E-01
 8.898199797E-01 1.904882584E-02 7.912303800E-01
 8.773154318E-01 2.093605418E-02 8.000635291E-01
 8.649863303E-01 2.271729056E-02 8.059896701E-01
 8.526937664E-01 2.445260994E-02 8.143471234E-01
 8.405117095E-01 2.611504216E-02 8.201112996E-01
 8.286442757E-01 2.768226806E-02 8.241008365E-01
 8.162233829E-01 2.928202599E-02 8.272816570E-01
 8.032669127E-01 3.092471231E-02 8.330455820E-01
 7.908605933E-01 3.247598931E-02 8.398783289E-01
 7.786510587E-01 3.396745957E-02 8.457534188E-01
 7.662361264E-01 3.544822522E-02 8.496952706E-01
 7.536695004E-01 3.692507558E-02 8.579264423E-01
 7.402358949E-01 3.846441768E-02 8.637306145E-01
 7.277804613E-01 3.985370696E-02 8.681405569E-01
 7.167564929E-01 4.106814601E-02 8.754848479E-01
 7.053703368E-01 4.229682684E-02 8.827295868E-01
 6.927956343E-01 4.361327551E-02 8.903606052E-01
 6.795767844E-01 4.495166428E-02 8.954922775E-01
 6.680152118E-01 4.609506205E-02 9.072163113E-01
 6.571243107E-01 4.713194259E-02 9.129526379E-01
 6.459155679E-01 4.815331288E-02 9.190795925E-01
 6.345630586E-01 4.915094748E-02 9.269529153E-01
 6.230864227E-01 5.011456087E-02 9.355678908E-01
 6.121046841E-01 5.098403059E-02 9.364973735E-01
 6.005811393E-01 5.186020955E-02 9.465650567E-01
 5.886219144E-01 5.272979476E-02 9.613857712E-01
 5.759782791E-01 5.356258713E-02 9.640975882E-01
 5.628325045E-01 5.435547419E-02 9.708396410E-01
 5.501493216E-01 5.505489558E-02 9.783255957E-01
 5.382416546E-01 5.564323999E-02 9.812861420E-01
 5.267466903E-01 5.615294911E-02 9.888977418E-01
 5.144460499E-01 5.663352460E-02 9.943466235E-01
 5.025518090E-01 5.702368170E-02 9.933618127E-01
 4.905571342E-01 5.735191330E-02 9.981725899E-01
 4.775297940E-01 5.763135105E-02 9.918150542E-01
 4.639160335E-01 5.783751421E-02 9.910528121E-01
 4.498477280E-01 5.797404610E-02 9.884596628E-01
 4.363428205E-01 5.802364089E-02 9.890710710E-01
 4.232212901E-01 5.799454637E-02 9.851500780E-01
 4.104145020E-01 5.788424239E-02 9.771798661E-01
 3.979015648E-01 5.771200918E-02 9.730030946E-01
 3.855633587E-01 5.748514086E-02 9.706045639E-01
 3.739401102E-01 5.721102841E-02 9.661934902E-01
 3.618777841E-01 5.686027929E-02 9.577497592E-01
 3.494454920E-01 5.644695461E-02 9.554730742E-01
 3.374243528E-01 5.598872900E-02 9.510989646E-01
 3.262366056E-01 5.550753325E-02 9.465237069E-01
 3.150322288E-01 5.497206002E-02 9.408382089E-01
 3.025092632E-01 5.431792140E-02 9.364676731E-01
 2.891776860E-01 5.355025083E-02 9.309519818E-01
 2.758664936E-01 5.271072686E-02 9.250814316E-01
 2.634428889E-01 5.186146125E-02 9.193389475E-01
 2.510680482E-01 5.095322430E-02 9.147526086E-01
 2.380926311E-01 4.992989637E-02 9.083502390E-01
 2.252707481E-01 4.884814844E-02 9.022072407E-01
 2.131064087E-01 4.776074551E-02 8.982137905E-01
 2.013591006E-01 4.664592445E-02 8.926132770E-01
 1.892693564E-01 4.542877153E-02 8.877712681E-01
 1.769447029E-01 4.411510564E-02 8.810603532E-01
 1.649517566E-01 4.276411794E-02 8.758350493E-01
 1.529355198E-01 4.133860767E-02 8.715818717E-01
 1.413760558E-01 3.988481499E-02 8.657419112E-01
 1.302280240E-01 3.840155713E-02 8.600296041E-01
 1.187884100E-01 3.679538704E-02 8.541598152E-01
 1.076702736E-01 3.514642455E-02 8.502262363E-01
 8.691745624E-02 3.177185077E-02 8.379193676E-01
 7.553378493E-02 2.973060030E-02 8.310691917E-01
 7.146696374E-02 -3.574626893E-02 8.362310447E-01
 9.173632041E-02 -3.991384245E-02 8.557928950E-01
 1.024516188E-01 -4.187149182E-02 8.634812371E-01
 1.137074158E-01 -4.378019460E-02 8.705332457E-01
 1.252042167E-01 -4.559979960E-02 8.789726557E-01
 1.361969858E-01 -4.722723179E-02 8.869442664E-01
 1.470171660E-01 -4.872537591E-02 8.935467832E-01
 1.584496945E-01 -5.020987988E-02 8.996791441E-01
 1.702368185E-01 -5.164645612E-02 9.081939829E-01
 1.820336878E-01 -5.298919044E-02 9.154692171E-01
 1.931750998E-01 -5.417801067E-02 9.248643834E-01
 2.040303648E-01 -5.525332317E-02 9.318926404E-01
 2.158110291E-01 -5.633148178E-02 9.383920561E-01
 2.281410545E-01 -5.737824365E-02 9.468776295E-01
 2.403784245E-01 -5.832020193E-02 9.587485635E-01
 2.527535334E-01 -5.917229876E-02 9.618152033E-01
 2.647693008E-01 -5.992675945E-02 9.754528926E-01
 2.768045515E-01 -6.058148108E-02 9.879737355E-01
 2.893892676E-01 -6.115646847E-02 9.960585849E-01
 3.020774573E-01 -6.162829138E-02 1.003892777E+00
 3.143796772E-01 -6.198404357E-02 1.018423188E+00
 3.264451623E-01 -6.221477501E-02 1.027717172E+00
 3.378859609E-01 -6.233637035E-02 1.032958847E+00
 3.487593532E-01 -6.236080639E-02 1.037874343E+00
 3.599616140E-01 -6.228780933E-02 1.047244621E+00
 3.708673716E-01 -6.211983040E-02 1.051374304E+00
 3.819412887E-01 -6.184069626E-02 1.053997498E+00
 3.938599974E-01 -6.141700596E-02 1.027754814E+00
 4.060841501E-01 -6.086522527E-02 1.003324596E+00
 4.186652005E-01 -6.016474962E-02 9.886302640E-01
 4.315514117E-01 -5.931892805E-02 9.798351033E-01
 4.442922920E-01 -5.833692476E-02 9.610687890E-01
 4.569434375E-01 -5.724917166E-02 9.419321922E-01
 4.694175720E-01 -5.605838634E-02 9.295036797E-01
 4.815387279E-01 -5.479085632E-02 9.069350326E-01
 4.936184138E-01 -5.345753208E-02 8.958291738E-01
 5.064351857E-01 -5.193684064E-02 8.799148281E-01
 5.198654830E-01 -5.024047941E-02 8.573572122E-01
 5.332845747E-01 -4.849205539E-02 8.433505562E-01
 5.467906296E-01 -4.666516744E-02 8.290010239E-01
 5.600550473E-01 -4.480879754E-02 8.122967671E-01
 5.730898380E-01 -4.295853712E-02 7.995386583E-01
 5.859805346E-01 -4.110646993E-02 7.887718757E-01
 5.984716415E-01 -3.928579018E-02 7.780002706E-01
 6.112737358E-01 -3.739163838E-02 7.660362466E-01
 6.249697208E-01 -3.536209650E-02 7.548509142E-01
 6.388730109E-01 -3.329655156E-02 7.453458796E-01
 6.523467898E-01 -3.127670009E-02 7.330303423E-01
 6.659163237E-01 -2.926262282E-02 7.236127417E-01
 6.791188717E-01 -2.732255217E-02 7.159565715E-01
 6.916711032E-01 -2.548225224E-02 7.073169036E-01
 7.052875161E-01 -2.351070289E-02 6.992016416E-01
 7.191650867E-01 -2.151990775E-02 6.912981278E-01
 7.313525677E-01 -1.977792196E-02 6.819081190E-01
 7.433952987E-01 -1.809847075E-02 6.749386045E-01
 7.561876774E-01 -1.635768078E-02 6.692489392E-01
 7.689996660E-01 -1.462521637E-02 6.603829742E-01
 7.815030813E-01 -1.298921509E-02 6.531098059E-01
 7.939105928E-01 -1.141630672E-02 6.478315233E-01
 8.057242036E-01 -9.945296217E-03 6.389641919E-01
 8.170987666E-01 -8.597376756E-03 6.337419375E-01
 8.289963007E-01 -7.243121741E-03 6.278736501E-01
 8.411786556E-01 -5.912440363E-03 6.205046047E-01
 8.532479405E-01 -4.675448639E-03 6.138559757E-01
 8.650462925E-01 -3.556379466E-03 6.077822358E-01
 8.769015670E-01 -2.538353321E-03 6.025105023E-01
 8.894886971E-01 -1.583079400E-03 5.980061883E-01
 9.012952447E-01 -8.101535786E-04 5.939856144E-01
 9.215590656E-01 2.113096275E-04 5.895045943E-01
 9.422715306E-01 8.330534038E-04 5.893042897E-01
 9.556383193E-01 1.021432865E-03 5.896485315E-01
 9.700023532E-01 1.048037549E-03 5.889037782E-01
 9.835953116E-01 9.112383123E-04 5.840185042E-01
 9.949095547E-01 6.622158980E-04 5.770401491E-01
 -5.000000000E-01 9.500000000E-01 7.225866620E-01
 -5.000000000E-01 9.000000000E-01 7.193062527E-01
 -5.000000000E-01 8.500000000E-01 7.167918651E-01
 -5.000000000E-01 8.000000000E-01 7.145565153E-01
 -5.000000000E-01 7.500000000E-01 7.124402145E-01
 -5.000000000E-01 7.000000000E-01 7.103487273E-01
 -5.000000000E-01 6.500000000E-01 7.082270123E-01
 -5.000000000E-01 6.000000000E-01 7.060614995E-01
 -5.000000000E-01 5.500000000E-01 7.038063160E-01
 -5.000000000E-01 5.000000000E-01 7.015218724E-01
 -5.000000000E-01 4.500000000E-01 6.991918795E-01
 -5.000000000E-01 4.000000000E-01 6.968733296E-01
 -5.000000000E-01 3.500000000E-01 6.945729466E-01
 -5.000000000E-01 3.000000000E-01 6.923429110E-01
 -5.000000000E-01 2.500000000E-01 6.902380573E-01
 -5.000000000E-01 2.000000000E-01 6.884331062E-01
 -5.000000000E-01 1.500000000E-01 6.868663485E-01
 -5.000000000E-01 1.000000000E-01 6.856489480E-01
 -5.000000000E-01 5.000000000E-02 6.848562915E-01
 -5.000000000E-01 2.752242878E-12 6.845265330E-01
 -5.000000000E-01 -5.000000000E-02 6.846897039E-01
 -5.000000000E-01 -1.000000000E-01 6.852043830E-01
 -5.000000000E-01 -1.500000000E-01 6.862321949E-01
 -5.000000000E-01 -2.000000000E-01 6.876337909E-01
 -5.000000000E-01 -2.500000000E-01 6.893424429E-01
 -5.000000000E-01 -3.000000000E-01 6.913040197E-01
 -5.000000000E-01 -3.500000000E-01 6.934103489E-01
 -5.000000000E-01 -4.000000000E-01 6.956581847E-01
 -5.000000000E-01 -4.500000000E-01 6.979343500E-01
 -5.000000000E-01 -5.000000000E-01 7.002712081E-01
 -5.000000000E-01 -5.500000000E-01 7.025559794E-01
 -5.000000000E-01 -6.000000000E-01 7.048188937E-01
 -5.000000000E-01 -6.500000000E-01 7.070167787E-01
 -5.000000000E-01 -7.000000000E-01 7.092072160E-01
 -5.000000000E-01 -7.500000000E-01 7.113648301E-01
 -5.000000000E-01 -8.000000000E-01 7.135706323E-01
 -5.000000000E-01 -8.500000000E-01 7.159215491E-01
 -5.000000000E-01 -9.000000000E-01 7.186058691E-01
 -5.000000000E-01 -9.500000000E-01 7.220931941E-01
 -4.500000000E-01 -1.000000000E+00 7.219194141E-01
 -4.000000000E-01 -1.000000000E+00 7.186058934E-01
 -3.500000000E-01 -1.000000000E+00 7.164529516E-01
 -3.000000000E-01 -1.000000000E+00 7.150573208E-01
 -2.500000000E-01 -1.000000000E+00 7.142795659E-01
 -2.000000000E-01 -1.000000000E+00 7.140818741E-01
 -1.500000000E-01 -1.000000000E+00 7.145065189E-01
 -1.000000000E-01 -1.000000000E+00 7.153957858E-01
 -5.000000000E-02 -1.000000000E+00 7.170069940E-01
 -9.424683256E-13 -1.000000000E+00 7.193028468E-01
 5.000000000E-02 -1.000000000E+00 7.220906725E-01
 1.000000000E-01 -1.000000000E+00 7.252938362E-01
 1.500000000E-01 -1.000000000E+00 7.288257317E-01
 2.000000000E-01 -1.000000000E+00 7.325783705E-01
 2.500000000E-01 -1.000000000E+00 7.361781151E-01
 3.000000000E-01 -1.000000000E+00 7.396355236E-01
 3.500000000E-01 -1.000000000E+00 7.425792414E-01
 4.000000000E-01 -1.000000000E+00 7.448526017E-01
 4.500000000E-01 -1.000000000E+00 7.463543419E-01
 5.000000000E-01 -1.000000000E+00 7.472743171E-01
 5.500000000E-01 -1.000000000E+00 7.468642297E-01
 6.000000000E-01 -1.000000000E+00 7.461017548E-01
 6.500000000E-01 -1.000000000E+00 7.447417695E-01
 7.000000000E-01 -1.000000000E+00 7.428449110E-01
 7.500000000E-01 -1.000000000E+00 7.404811339E-01
 8.000000000E-01 -1.000000000E+00 7.378902132E-01
 8.500000000E-01 -1.000000000E+00 7.353209941E-01
 9.000000000E-01 -1.000000000E+00 7.327415846E-01
 9.500000000E-01 -1.000000000E+00 7.301018770E-01
 1.000000000E+00 -1.000000000E+00 7.275684622E-01
 1.050000000E+00 -1.000000000E+00 7.252706754E-01
 1.100000000E+00 -1.000000000E+00 7.231700110E-01
 1.150000000E+00 -1.000000000E+00 7.213848209E-01
 1.200000000E+00 -1.000000000E+00 7.198544229E-01
 1.250000000E+00 -1.000000000E+00 7.186872127E-01
 1.300000000E+00 -1.000000000E+00 7.176890002E-01
 1.350000000E+00 -1.000000000E+00 7.167566402E-01
 1.400000000E+00 -1.000000000E+00 7.162027242E-01
 1.450000000E+00 -1.000000000E+00 7.158105267E-01
 1.500000000E+00 -1.000000000E+00 7.156895887E-01
 1.550000000E+00 -1.000000000E+00 7.155476898E-01
 1.600000000E+00 -1.000000000E+00 7.155783134E-01
 1.650000000E+00 -1.000000000E+00 7.156101424E-01
 1.700000000E+00 -1.000000000E+00 7.157867380E-01
 1.750000000E+00 -1.000000000E+00 7.160465927E-01
 1.800000000E+00 -1.000000000E+00 7.163539821E-01
 1.850000000E+00 -1.000000000E+00 7.166903572E-01
 1.900000000E+00 -1.000000000E+00 7.170602442E-01
 1.950000000E+00 -1.000000000E+00 7.174555432E-01
 2.000000000E+00 -1.000000000E+00 7.177575836E-01
 2.050000000E+00 -1.000000000E+00 7.181067270E-01
 2.100000000E+00 -1.000000000E+00 7.185261930E-01
 2.150000000E+00 -1.000000000E+00 7.187680501E-01
 2.200000000E+00 -1.000000000E+00 7.190189713E-01
 2.250000000E+00 -1.000000000E+00 7.193916340E-01
 2.300000000E+00 -1.000000000E+00 7.198169902E-01
 2.350000000E+00 -1.000000000E+00 7.200772462E-01
 2.400000000E+00 -1.000000000E+00 7.203691257E-01
 2.450000000E+00 -1.000000000E+00 7.206520231E-01
 2.500000000E+00 -1.000000000E+00 7.209156912E-01
 2.550000000E+00 -1.000000000E+00 7.211627267E-01
 2.600000000E+00 -1.000000000E+00 7.213888212E-01
 2.650000000E+00 -1.000000000E+00 7.215657762E-01
 2.700000000E+00 -1.000000000E+00 7.217303724E-01
 2.750000000E+00 -1.000000000E+00 7.218929539E-01
 2.800000000E+00 -1.000000000E+00 7.220584708E-01
 2.850000000E+00 -1.000000000E+00 7.222371064E-01
 2.900000000E+00 -1.000000000E+00 7.223578964E-01
 2.950000000E+00 -1.000000000E+00 7.224628403E-01
 3.000000000E+00 -1.000000000E+00 7.225551824E-01
 3.050000000E+00 -1.000000000E+00 7.226557802E-01
 3.100000000E+00 -1.000000000E+00 7.227587840E-01
 3.150000000E+00 -1.000000000E+00 7.228593452E-01
 3.200000000E+00 -1.000000000E+00 7.229829764E-01
 3.250000000E+00 -1.000000000E+00 7.231330468E-01
 3.300000000E+00 -1.000000000E+00 7.233237026E-01
 3.350000000E+00 -1.000000000E+00 7.236002893E-01
 3.400000000E+00 -1.000000000E+00 7.240040368E-01
 3.450000000E+00 -1.000000000E+00 7.251320462E-01
 3.500000000E+00 -9.500000000E-01 7.292053148E-01
 3.500000000E+00 -9.000000000E-01 7.301252524E-01
 3.500000000E+00 -8.500000000E-01 7.307310636E-01
 3.500000000E+00 -8.000000000E-01 7.311026497E-01
 3.500000000E+00 -7.500000000E-01 7.313272271E-01
 3.500000000E+00 -7.000000000E-01 7.315368943E-01
 3.500000000E+00 -6.500000000E-01 7.317827234E-01
 3.500000000E+00 -6.000000000E-01 7.320710725E-01
 3.500000000E+00 -5.500000000E-01 7.323845144E-01
 3.500000000E+00 -5.000000000E-01 7.327005240E-01
 3.500000000E+00 -4.500000000E-01 7.330118556E-01
 3.500000000E+00 -4.000000000E-01 7.333198779E-01
 3.500000000E+00 -3.500000000E-01 7.336264788E-01
 3.500000000E+00 -3.000000000E-01 7.339332811E-01
 3.500000000E+00 -2.500000000E-01 7.342238737E-01
 3.500000000E+00 -2.000000000E-01 7.344517018E-01
 3.500000000E+00 -1.500000000E-01 7.345755864E-01
 3.500000000E+00 -1.000000000E-01 7.346337821E-01
 3.500000000E+00 -5.000000000E-02 7.346566626E-01
 3.500000000E+00 -2.752242878E-12 7.346435883E-01
 3.500000000E+00 5.000000000E-02 7.345960374E-01
 3.500000000E+00 1.000000000E-01 7.344762482E-01
 3.500000000E+00 1.500000000E-01 7.342646223E-01
 3.500000000E+00 2.000000000E-01 7.339741642E-01
 3.500000000E+00 2.500000000E-01 7.336572127E-01
 3.500000000E+00 3.000000000E-01 7.333342739E-01
 3.500000000E+00 3.500000000E-01 7.330111327E-01
 3.500000000E+00 4.000000000E-01 7.327313412E-01
 3.500000000E+00 4.500000000E-01 7.324337393E-01
 3.500000000E+00 5.000000000E-01 7.320650812E-01
 3.500000000E+00 5.500000000E-01 7.316686189E-01
 3.500000000E+00 6.000000000E-01 7.314017802E-01
 3.500000000E+00 6.500000000E-01 7.314246068E-01
 3.500000000E+00 7.000000000E-01 7.316660124E-01
 3.500000000E+00 7.500000000E-01 7.318163893E-01
 3.500000000E+00 8.000000000E-01 7.312688433E-01
 3.500000000E+00 8.500000000E-01 7.293819247E-01
 3.500000000E+00 9.000000000E-01 7.262734582E-01
 3.500000000E+00 9.500000000E-01 7.220774634E-01
 3.450000000E+00 1.000000000E+00 7.068350426E-01
 3.400000000E+00 1.000000000E+00 7.037351457E-01
 3.350000000E+00 1.000000000E+00 7.029978504E-01
 3.300000000E+00 1.000000000E+00 7.027376082E-01
 3.250000000E+00 1.000000000E+00 7.025188767E-01
 3.200000000E+00 1.000000000E+00 7.029715931E-01
 3.150000000E+00 1.000000000E+00 7.028564005E-01
 3.100000000E+00 1.000000000E+00 7.031362151E-01
 3.050000000E+00 1.000000000E+00 7.032819695E-01
 3.000000000E+00 1.000000000E+00 7.036450560E-01
 2.950000000E+00 1.000000000E+00 7.038201121E-01
 2.900000000E+00 1.000000000E+00 7.039650222E-01
 2.850000000E+00 1.000000000E+00 7.044279515E-01
 2.800000000E+00 1.000000000E+00 7.048357956E-01
 2.750000000E+00 1.000000000E+00 7.050179646E-01
 2.700000000E+00 1.000000000E+00 7.052773549E-01
 2.650000000E+00 1.000000000E+00 7.055228537E-01
 2.600000000E+00 1.000000000E+00 7.058750959E-01
 2.550000000E+00 1.000000000E+00 7.062877409E-01
 2.500000000E+00 1.000000000E+00 7.067599392E-01
 2.450000000E+00 1.000000000E+00 7.072645532E-01
 2.400000000E+00 1.000000000E+00 7.075280515E-01
 2.350000000E+00 1.000000000E+00 7.078788216E-01
 2.300000000E+00 1.000000000E+00 7.082488177E-01
 2.250000000E+00 1.000000000E+00 7.085444888E-01
 2.200000000E+00 1.000000000E+00 7.089613387E-01
 2.150000000E+00 1.000000000E+00 7.098580130E-01
 2.100000000E+00 1.000000000E+00 7.103661549E-01
 2.050000000E+00 1.000000000E+00 7.108123232E-01
 2.000000000E+00 1.000000000E+00 7.114332048E-01
 1.950000000E+00 1.000000000E+00 7.119625038E-01
 1.900000000E+00 1.000000000E+00 7.126792436E-01
 1.850000000E+00 1.000000000E+00 7.133954293E-01
 1.800000000E+00 1.000000000E+00 7.142401785E-01
 1.750000000E+00 1.000000000E+00 7.154356370E-01
 1.700000000E+00 1.000000000E+00 7.164176571E-01
 1.650000000E+00 1.000000000E+00 7.175109123E-01
 1.600000000E+00 1.000000000E+00 7.187329274E-01
 1.550000000E+00 1.000000000E+00 7.198090430E-01
 1.500000000E+00 1.000000000E+00 7.212788627E-01
 1.450000000E+00 1.000000000E+00 7.227819631E-01
 1.400000000E+00 1.000000000E+00 7.246596536E-01
 1.350000000E+00 1.000000000E+00 7.268853398E-01
 1.300000000E+00 1.000000000E+00 7.294164124E-01
 1.250000000E+00 1.000000000E+00 7.318014051E-01
 1.200000000E+00 1.000000000E+00 7.348501149E-01
 1.150000000E+00 1.000000000E+00 7.371883034E-01
 1.100000000E+00 1.000000000E+00 7.405273132E-01
 1.050000000E+00 1.000000000E+00 7.422785807E-01
 1.000000000E+00 1.000000000E+00 7.470782254E-01
 9.500000000E-01 1.000000000E+00 7.497702408E-01
 9.000000000E-01 1.000000000E+00 7.527083531E-01
 8.500000000E-01 1.000000000E+00 7.558523757E-01
 8.000000000E-01 1.000000000E+00 7.600190141E-01
 7.500000000E-01 1.000000000E+00 7.613014928E-01
 7.000000000E-01 1.000000000E+00 7.628513656E-01
 6.500000000E-01 1.000000000E+00 7.634160304E-01
 6.000000000E-01 1.000000000E+00 7.636067427E-01
 5.500000000E-01 1.000000000E+00 7.625741179E-01
 5.000000000E-01 1.000000000E+00 7.607781326E-01
 4.500000000E-01 1.000000000E+00 7.585981935E-01
 4.000000000E-01 1.000000000E+00 7.553652509E-01
 3.500000000E-01 1.000000000E+00 7.507602926E-01
 3.000000000E-01 1.000000000E+00 7.465243467E-01
 2.500000000E-01 1.000000000E+00 7.422187031E-01
 2.000000000E-01 1.000000000E+00 7.376345590E-01
 1.500000000E-01 1.000000000E+00 7.329450635E-01
 1.000000000E-01 1.000000000E+00 7.287034527E-01
 5.000000000E-02 1.000000000E+00 7.249464011E-01
 1.733724275E-12 1.000000000E+00 7.217783273E-01
 -5.000000000E-02 1.000000000E+00 7.191970634E-01
 -1.000000000E-01 1.000000000E+00 7.173525347E-01
 -1.500000000E-01 1.000000000E+00 7.161342897E-01
 -2.000000000E-01 1.000000000E+00 7.154942720E-01
 -2.500000000E-01 1.000000000E+00 7.154805985E-01
 -3.000000000E-01 1.000000000E+00 7.161047524E-01
 -3.500000000E-01 1.000000000E+00 7.173564622E-01
 -4.000000000E-01 1.000000000E+00 7.193392812E-01
 -4.500000000E-01 1.000000000E+00 7.224746734E-01
 9.858887022E-01 -3.568657521E-03 5.887483783E-01
 8.996387325E-01 -5.782860114E-03 5.976637842E-01
 8.204680784E-01 -1.362990479E-02 6.343705695E-01
 7.470175951E-01 -2.329989485E-02 6.752351487E-01
 6.770159022E-01 -3.395958858E-02 7.187084529E-01
 6.088315601E-01 -4.342255126E-02 7.695117489E-01
 5.447710712E-01 -5.331909299E-02 8.311611971E-01
 4.791725098E-01 -6.052989660E-02 9.092192695E-01
 4.222660609E-01 -6.554102968E-02 9.819551693E-01
 3.622775127E-01 -6.732230957E-02 1.043037256E+00
 3.105795009E-01 -6.690740198E-02 1.009263441E+00
 2.555873553E-01 -6.486225700E-02 9.616460875E-01
 1.955259865E-01 -5.897546743E-02 9.240079844E-01
 1.438017081E-01 -5.298641239E-02 8.889774501E-01
 9.853372254E-02 -4.633526485E-02 8.562994178E-01
 6.033190260E-02 -4.091115787E-02 8.098736372E-01
 2.436042011E-02 -2.672181413E-02 7.127939449E-01
 1.972234877E+00 -9.549943356E-01 7.199072935E-01
 1.974568941E+00 9.623655811E-01 7.196153376E-01
 9.303657632E-01 1.763896659E-02 7.484855461E-01