TITLE     = "Visualization of the solution"
VARIABLES = "x"
"y"
"Mach"
ZONE T="Zone"
 STRANDID=0, SOLUTIONTIME=0
 Nodes=11984, Elements=23384, ZONETYPE=FEQuadrilateral
 DATAPACKING=POINT
 DT=(DOUBLE DOUBLE DOUBLE )
 1.000179887E+00 5.128030316E-04 5.295863460E-01
 9.861674905E-01 3.350082086E-03 6.423057647E-01
 9.730953574E-01 6.053636316E-03 6.732617938E-01
 9.566082358E-01 9.438610636E-03 6.981144849E-01
 9.421416521E-01 1.240558363E-02 7.190619915E-01
 9.285511374E-01 1.511927694E-02 7.283910426E-01
 9.173241854E-01 1.742962934E-02 7.479154747E-01
 9.058490992E-01 1.971761137E-02 7.578105202E-01
 8.944459558E-01 2.201880328E-02 7.786063156E-01
 8.825892210E-01 2.427314408E-02 7.810838775E-01
 8.710824847E-01 2.652590163E-02 8.038343762E-01
 8.589507341E-01 2.876633592E-02 8.134264068E-01
 8.469251990E-01 3.090105578E-02 8.180914572E-01
 8.359477520E-01 3.282374889E-02 8.252345957E-01
 8.246828914E-01 3.478755057E-02 8.375801206E-01
 8.123021126E-01 3.686063737E-02 8.416381704E-01
 7.999746799E-01 3.893607482E-02 8.585139753E-01
 7.875703573E-01 4.092036560E-02 8.645160267E-01
 7.751343846E-01 4.286163673E-02 8.717860947E-01
 7.634488344E-01 4.462695494E-02 8.745578166E-01
 7.504624128E-01 4.659108073E-02 8.880718050E-01
 7.371367812E-01 4.853797331E-02 8.975944266E-01
 7.263742685E-01 5.006147176E-02 9.036694022E-01
 7.151243091E-01 5.164092034E-02 9.174447554E-01
 7.033410072E-01 5.322248489E-02 9.237489157E-01
 6.903607845E-01 5.490640551E-02 9.323055859E-01
 6.775594354E-01 5.651545525E-02 9.435184017E-01
 6.666089892E-01 5.782666802E-02 9.477563352E-01
 6.548311710E-01 5.919491500E-02 9.550949196E-01
 6.433470249E-01 6.047016755E-02 9.636636351E-01
 6.315066814E-01 6.172949448E-02 9.549403811E-01
 6.196619272E-01 6.289787591E-02 9.217828238E-01
 6.091688275E-01 6.389803439E-02 1.012800455E+00
 5.972745419E-01 6.495974213E-02 1.146697691E+00
 5.858302712E-01 6.593675911E-02 1.129207543E+00
 5.723612905E-01 6.696491688E-02 1.116628988E+00
 5.598273277E-01 6.784090400E-02 1.113360848E+00
 5.471460819E-01 6.863405555E-02 1.109119503E+00
 5.359134674E-01 6.928098202E-02 1.106044377E+00
 5.239136219E-01 6.990233809E-02 1.101152398E+00
 5.116536617E-01 7.046091557E-02 1.090355589E+00
 5.005186796E-01 7.086391747E-02 1.081734464E+00
 4.875291288E-01 7.129891217E-02 1.082291320E+00
 4.743708074E-01 7.163818181E-02 1.071064970E+00
 4.609554410E-01 7.188556343E-02 1.063957911E+00
 4.476127028E-01 7.205460966E-02 1.060829746E+00
 4.350523055E-01 7.214709371E-02 1.055558314E+00
 4.221109748E-01 7.216440141E-02 1.044683101E+00
 4.095969498E-01 7.208725065E-02 1.034125246E+00
 3.968260586E-01 7.195147872E-02 1.030649419E+00
 3.846469223E-01 7.174327224E-02 1.022404560E+00
 3.725492060E-01 7.146741450E-02 1.019966011E+00
 3.594068289E-01 7.111717016E-02 1.020072457E+00
 3.466688991E-01 7.067840546E-02 1.009654553E+00
 3.335563242E-01 7.015039027E-02 1.005204021E+00
 3.228015900E-01 6.966259331E-02 9.981281174E-01
 3.102120757E-01 6.900690496E-02 9.902674307E-01
 2.974043787E-01 6.828556955E-02 9.877339742E-01
 2.836323082E-01 6.740348041E-02 9.809234873E-01
 2.715512514E-01 6.655392051E-02 9.760894250E-01
 2.597856820E-01 6.565538049E-02 9.706496707E-01
 2.473297715E-01 6.461696327E-02 9.637805028E-01
 2.350227386E-01 6.350743771E-02 9.568767785E-01
 2.227841318E-01 6.231573969E-02 9.502430815E-01
 2.108468264E-01 6.107678264E-02 9.455488462E-01
 1.988659799E-01 5.973172560E-02 9.370594434E-01
 1.865815222E-01 5.826016888E-02 9.303681247E-01
 1.748149097E-01 5.675053596E-02 9.230931612E-01
 1.630885750E-01 5.514716730E-02 9.152394471E-01
 1.513801217E-01 5.343655497E-02 9.079463069E-01
 1.405403316E-01 5.175666511E-02 9.011316778E-01
 1.289606690E-01 4.982490838E-02 8.894335057E-01
 1.178373173E-01 4.785989970E-02 8.819469266E-01
 1.070598140E-01 4.582111165E-02 8.725651313E-01
 9.715516120E-02 4.382095858E-02 8.615458934E-01
 8.637402952E-02 4.149810970E-02 8.504054126E-01
 7.509861141E-02 3.886494786E-02 8.364781145E-01
 6.517877430E-02 3.636000305E-02 8.209558942E-01
 5.556117371E-02 3.373085707E-02 8.066532334E-01
 4.669981822E-02 3.108315729E-02 7.899888134E-01
 3.896863759E-02 2.856967784E-02 7.716978189E-01
 3.211896867E-02 2.613104694E-02 7.525822886E-01
 2.626933344E-02 2.384267189E-02 7.347500226E-01
 2.195928246E-02 2.201143280E-02 7.156494030E-01
 1.784376055E-02 2.011081949E-02 6.929995319E-01
 1.457524952E-02 1.845509000E-02 6.707831710E-01
 1.163663249E-02 1.683331281E-02 6.507474033E-01
 9.487707168E-03 1.552498247E-02 6.306916083E-01
 7.570530754E-03 1.426769979E-02 6.071634587E-01
 5.791139323E-03 1.297063380E-02 5.720951899E-01
 3.515369724E-03 1.108368021E-02 5.230151360E-01
 1.651419327E-03 9.208335541E-03 4.669214871E-01
 1.865296654E-04 7.336929906E-03 3.739083504E-01
 -1.202634186E-03 4.714174662E-03 2.505673923E-01
 -1.747280825E-03 2.712977584E-03 1.331728876E-01
 -1.875254442E-03 1.079290640E-03 1.725200592E-02
 -1.691050711E-03 -7.451750571E-04 9.726564938E-02
 -1.146859257E-03 -2.652063034E-03 2.044781943E-01
 -4.320978769E-05 -4.939754028E-03 3.069803402E-01
 1.565992599E-03 -7.267985493E-03 4.032258540E-01
 3.696330125E-03 -9.642735124E-03 4.769928513E-01
 5.636628252E-03 -1.144217793E-02 5.315581860E-01
 7.861998864E-03 -1.324365009E-02 5.775340060E-01
 9.661970660E-03 -1.455674414E-02 6.106325770E-01
 1.186573599E-02 -1.602845825E-02 6.377736683E-01
 1.433633827E-02 -1.753674075E-02 6.654855613E-01
 1.769089885E-02 -1.940688491E-02 6.946145381E-01
 2.079752088E-02 -2.098984085E-02 7.207298319E-01
 2.474513091E-02 -2.282831445E-02 7.415277669E-01
 3.001652472E-02 -2.506103180E-02 7.653675243E-01
 3.565662727E-02 -2.721853927E-02 7.873989923E-01
 4.232326522E-02 -2.954096720E-02 8.049028294E-01
 4.980513826E-02 -3.190593794E-02 8.206676927E-01
 5.852663144E-02 -3.439879045E-02 8.352792205E-01
 6.718207151E-02 -3.666198626E-02 8.477022781E-01
 7.729597390E-02 -3.907774389E-02 8.590611583E-01
 8.717747033E-02 -4.125165939E-02 8.685265808E-01
 9.754479676E-02 -4.335630313E-02 8.760685354E-01
 1.088879481E-01 -4.550464451E-02 8.861211431E-01
 1.201476380E-01 -4.747874662E-02 8.954569906E-01
 1.319673657E-01 -4.939873517E-02 9.022166336E-01
 1.425044090E-01 -5.100199208E-02 9.101849641E-01
 1.539125592E-01 -5.262903869E-02 9.175732192E-01
 1.660605520E-01 -5.425005406E-02 9.270403945E-01
 1.776528209E-01 -5.567535385E-02 9.323120415E-01
 1.894918382E-01 -5.705129355E-02 9.431671853E-01
 2.002695054E-01 -5.820258707E-02 9.508858940E-01
 2.117503434E-01 -5.934759974E-02 9.576811724E-01
 2.239347845E-01 -6.047234312E-02 9.710518915E-01
 2.358911037E-01 -6.145469472E-02 9.774128177E-01
 2.477671206E-01 -6.234638020E-02 9.848180203E-01
 2.598408759E-01 -6.315499544E-02 9.944421226E-01
 2.710178494E-01 -6.382052600E-02 1.007188627E+00
 2.832009494E-01 -6.443965435E-02 1.019691613E+00
 2.951554656E-01 -6.493804604E-02 1.030170778E+00
 3.078229725E-01 -6.534484029E-02 1.034719321E+00
 3.195170164E-01 -6.563257426E-02 1.051358961E+00
 3.320025504E-01 -6.578688323E-02 1.059761291E+00
 3.426696360E-01 -6.583987921E-02 1.066738673E+00
 3.541554511E-01 -6.579147279E-02 1.074486109E+00
 3.650961518E-01 -6.563589722E-02 1.086249466E+00
 3.761280477E-01 -6.536688656E-02 1.094536515E+00
 3.879894614E-01 -6.498840451E-02 1.087596053E+00
 4.011164010E-01 -6.440460682E-02 1.015879292E+00
 4.133714139E-01 -6.372988224E-02 9.790119323E-01
 4.258411229E-01 -6.290006638E-02 9.745219473E-01
 4.382973611E-01 -6.199275330E-02 9.746447060E-01
 4.504922628E-01 -6.093277410E-02 9.510229238E-01
 4.624172449E-01 -5.981939286E-02 9.323533804E-01
 4.747085869E-01 -5.856585875E-02 9.168347903E-01
 4.867665470E-01 -5.725774914E-02 9.027114128E-01
 4.992907643E-01 -5.581197515E-02 8.884904575E-01
 5.128315091E-01 -5.413158238E-02 8.683676350E-01
 5.258157253E-01 -5.245480686E-02 8.527741670E-01
 5.384240150E-01 -5.077560991E-02 8.406082602E-01
 5.511405468E-01 -4.900388792E-02 8.236910581E-01
 5.645400286E-01 -4.710500315E-02 8.097400602E-01
 5.776796341E-01 -4.522165656E-02 7.990704782E-01
 5.905744433E-01 -4.333664849E-02 7.881866293E-01
 6.035668850E-01 -4.138261452E-02 7.725272861E-01
 6.177338958E-01 -3.928519785E-02 7.646892010E-01
 6.314468384E-01 -3.718829900E-02 7.493776368E-01
 6.459915042E-01 -3.503498808E-02 7.446326414E-01
 6.587527990E-01 -3.308662400E-02 7.326613338E-01
 6.720403433E-01 -3.106576763E-02 7.227802336E-01
 6.844990253E-01 -2.917886712E-02 7.134992742E-01
 6.969533563E-01 -2.731996216E-02 7.062313007E-01
 7.115463018E-01 -2.514752932E-02 6.963950262E-01
 7.249961495E-01 -2.319936641E-02 6.918282746E-01
 7.367115021E-01 -2.146908082E-02 6.822943433E-01
 7.503619194E-01 -1.945265755E-02 6.694751309E-01
 7.634479403E-01 -1.765023544E-02 6.681749703E-01
 7.768628597E-01 -1.573589444E-02 6.547333756E-01
 7.893797159E-01 -1.404790673E-02 6.493722442E-01
 8.024338484E-01 -1.232023537E-02 6.415638919E-01
 8.137136698E-01 -1.088360138E-02 6.371723756E-01
 8.247877359E-01 -9.454224259E-03 6.256621572E-01
 8.378068805E-01 -7.909165695E-03 6.214999504E-01
 8.501242399E-01 -6.481937133E-03 6.123904275E-01
 8.624446988E-01 -5.149933044E-03 6.052918606E-01
 8.733159304E-01 -4.062777851E-03 5.993942611E-01
 8.844634891E-01 -3.036553739E-03 5.936436284E-01
 8.971185088E-01 -2.001656219E-03 5.884036084E-01
 9.073035121E-01 -1.270427019E-03 5.836932773E-01
 9.184529185E-01 -6.029172800E-04 5.815897209E-01
 9.285821915E-01 -8.963964501E-05 5.785794449E-01
 9.385335445E-01 2.940413542E-04 5.779354056E-01
 9.500436187E-01 6.317104562E-04 5.753070802E-01
 9.635097384E-01 8.378701168E-04 5.742745801E-01
 9.773042202E-01 8.724338841E-04 5.704735522E-01
 9.895254970E-01 7.439473993E-04 5.597544044E-01
 -5.000000000E-01 -1.000000000E+00 7.233055885E-01
 3.500000000E+00 -1.000000000E+00 7.278820667E-01
 3.500000000E+00 1.000000000E+00 7.090550071E-01
 -5.000000000E-01 1.000000000E+00 7.235497700E-01
 9.931736887E-01 1.931442559E-03 6.238219739E-01
 9.796314240E-01 4.701859201E-03 6.587273104E-01
 9.648517966E-01 7.746123476E-03 6.864277296E-01
 9.493749440E-01 1.092209714E-02 7.094146786E-01
 9.353463948E-01 1.376243029E-02 7.235308859E-01
 9.229376614E-01 1.627445314E-02 7.386065676E-01
 9.115866423E-01 1.857362036E-02 7.520666601E-01
 9.001475275E-01 2.086820733E-02 7.696668812E-01
 8.885175884E-01 2.314597368E-02 7.785878451E-01
 8.768358529E-01 2.539952286E-02 7.930152667E-01
 8.650166094E-01 2.764611878E-02 8.094750021E-01
 8.529379666E-01 2.983369585E-02 8.157341039E-01
 8.414364755E-01 3.186240233E-02 8.208049363E-01
 8.303153217E-01 3.380564973E-02 8.326101901E-01
 8.184925020E-01 3.582409397E-02 8.381910470E-01
 8.061383963E-01 3.789835609E-02 8.509770977E-01
 7.937725186E-01 3.992822021E-02 8.615138438E-01
 7.813523710E-01 4.189100116E-02 8.689751080E-01
 7.692916095E-01 4.374429584E-02 8.720811535E-01
 7.569556236E-01 4.560901783E-02 8.812515204E-01
 7.437995970E-01 4.756452702E-02 8.934488718E-01
 7.317555249E-01 4.929972254E-02 8.997521637E-01
 7.207492888E-01 5.085119605E-02 9.111885663E-01
 7.092326581E-01 5.243170261E-02 9.209437101E-01
 6.968508959E-01 5.406444520E-02 9.272902728E-01
 6.839601099E-01 5.571093038E-02 9.385574731E-01
 6.720842123E-01 5.717106164E-02 9.456808433E-01
 6.607200801E-01 5.851079151E-02 9.513342907E-01
 6.490890980E-01 5.983254127E-02 9.590558910E-01
 6.374268532E-01 6.109983101E-02 9.648147867E-01
 6.255843043E-01 6.231368519E-02 9.347591487E-01
 6.144153774E-01 6.339795515E-02 9.404537535E-01
 6.032216847E-01 6.442888826E-02 1.105901272E+00
 5.915524065E-01 6.544825062E-02 1.145299908E+00
 5.790957808E-01 6.645083800E-02 1.118865997E+00
 5.660943091E-01 6.740291044E-02 1.115967932E+00
 5.534867048E-01 6.823747978E-02 1.110324089E+00
 5.415297747E-01 6.895751879E-02 1.108180340E+00
 5.299135447E-01 6.959166005E-02 1.103719446E+00
 5.177836418E-01 7.018162683E-02 1.097255253E+00
 5.060861707E-01 7.066241652E-02 1.082817750E+00
 4.940239042E-01 7.108141482E-02 1.084308588E+00
 4.809499681E-01 7.146854699E-02 1.076651330E+00
 4.676631242E-01 7.176187262E-02 1.066598566E+00
 4.542840719E-01 7.197008654E-02 1.062283277E+00
 4.413325042E-01 7.210085168E-02 1.058814536E+00
 4.285816401E-01 7.215574756E-02 1.051070329E+00
 4.158539623E-01 7.212582603E-02 1.037820484E+00
 4.032115042E-01 7.201936468E-02 1.032967702E+00
 3.907364905E-01 7.184737548E-02 1.026551879E+00
 3.785980642E-01 7.160534337E-02 1.019686914E+00
 3.659780174E-01 7.129229233E-02 1.021793349E+00
 3.530378640E-01 7.089778781E-02 1.014726664E+00
 3.401126117E-01 7.041439787E-02 1.006578055E+00
 3.281789571E-01 6.990649179E-02 1.003154799E+00
 3.165068328E-01 6.933474913E-02 9.926566404E-01
 3.038082272E-01 6.864623725E-02 9.900087620E-01
 2.905183434E-01 6.784452498E-02 9.838171204E-01
 2.775917798E-01 6.697870046E-02 9.784180229E-01
 2.656684667E-01 6.610465050E-02 9.738005856E-01
 2.535577267E-01 6.513617188E-02 9.671225147E-01
 2.411762550E-01 6.406220049E-02 9.605769623E-01
 2.289034352E-01 6.291158870E-02 9.529164232E-01
 2.168154791E-01 6.169626117E-02 9.485312121E-01
 2.048564032E-01 6.040425412E-02 9.412286831E-01
 1.927237511E-01 5.899594724E-02 9.337237486E-01
 1.806982160E-01 5.750535242E-02 9.266650600E-01
 1.689517424E-01 5.594885163E-02 9.195087465E-01
 1.572343484E-01 5.429186113E-02 9.109609128E-01
 1.459602267E-01 5.259661004E-02 9.058219707E-01
 1.347505003E-01 5.079078674E-02 8.947538881E-01
 1.233989932E-01 4.884240404E-02 8.859110906E-01
 1.124485657E-01 4.684050567E-02 8.771627113E-01
 1.021074876E-01 4.482103512E-02 8.675194683E-01
 9.176459536E-02 4.265953414E-02 8.565190130E-01
 8.073632047E-02 4.018152878E-02 8.427111525E-01
 7.013869286E-02 3.761247545E-02 8.305186120E-01
 7.223902270E-02 -3.786986507E-02 8.547902306E-01
 8.223672211E-02 -4.016470164E-02 8.638050897E-01
 9.236113355E-02 -4.230398126E-02 8.727153050E-01
 1.032163724E-01 -4.443047382E-02 8.804332585E-01
 1.145177931E-01 -4.649169557E-02 8.914284972E-01
 1.260575019E-01 -4.843874089E-02 8.986933941E-01
 1.372358873E-01 -5.020036362E-02 9.065851705E-01
 1.482084841E-01 -5.181551538E-02 9.137105751E-01
 1.599865556E-01 -5.343954638E-02 9.219834967E-01
 1.718566865E-01 -5.496270396E-02 9.304858542E-01
 1.835723296E-01 -5.636332370E-02 9.365395105E-01
 1.948806718E-01 -5.762694031E-02 9.483525559E-01
 2.060099244E-01 -5.877509341E-02 9.535340318E-01
 2.178425640E-01 -5.990997143E-02 9.637671973E-01
 2.299129441E-01 -6.096351892E-02 9.756211624E-01
 2.418291122E-01 -6.190053746E-02 9.802380375E-01
 2.538039982E-01 -6.275068782E-02 9.894962614E-01
 2.654293627E-01 -6.348776072E-02 1.000604391E+00
 2.771093994E-01 -6.413009018E-02 1.013431101E+00
 2.891782075E-01 -6.468885019E-02 1.025559547E+00
 3.014892191E-01 -6.514144316E-02 1.032588849E+00
 3.136699945E-01 -6.548870727E-02 1.041192437E+00
 3.257597834E-01 -6.570972875E-02 1.057782132E+00
 3.373360932E-01 -6.581338122E-02 1.062848297E+00
 3.484125435E-01 -6.581567600E-02 1.070105190E+00
 3.596258014E-01 -6.571368501E-02 1.080178424E+00
 3.706120998E-01 -6.550139189E-02 1.091360973E+00
 3.820587546E-01 -6.517764553E-02 1.095840974E+00
 3.945529312E-01 -6.469650567E-02 1.057476345E+00
 4.072439075E-01 -6.406724453E-02 9.883721583E-01
 4.196062684E-01 -6.331497431E-02 9.767820811E-01
 4.320692420E-01 -6.244640984E-02 9.743635226E-01
 4.443948120E-01 -6.146276370E-02 9.662211198E-01
 4.564547539E-01 -6.037608348E-02 9.395388954E-01
 4.685629159E-01 -5.919262581E-02 9.251097000E-01
 4.807375669E-01 -5.791180395E-02 9.094833780E-01
 4.930286556E-01 -5.653486215E-02 8.959572677E-01
 5.060611367E-01 -5.497177877E-02 8.787027498E-01
 5.193236172E-01 -5.329319462E-02 8.599913296E-01
 5.321198702E-01 -5.161520839E-02 8.467230198E-01
 5.447822809E-01 -4.988974892E-02 8.325254944E-01
 5.578402877E-01 -4.805444553E-02 8.161762376E-01
 5.711098313E-01 -4.616332985E-02 8.042857920E-01
 5.841270387E-01 -4.427915253E-02 7.938457088E-01
 5.970706642E-01 -4.235963151E-02 7.804799284E-01
 6.106503904E-01 -4.033390619E-02 7.680738943E-01
 6.245903671E-01 -3.823674843E-02 7.575468708E-01
 6.387191713E-01 -3.611164354E-02 7.461468721E-01
 6.523721516E-01 -3.406080604E-02 7.393133401E-01
 6.653965712E-01 -3.207619581E-02 7.275366738E-01
 6.782696843E-01 -3.012231737E-02 7.179153059E-01
 6.907261908E-01 -2.824941464E-02 7.098489934E-01
 7.042498291E-01 -2.623374574E-02 7.014293313E-01
 7.182712257E-01 -2.417344786E-02 6.937360946E-01
 7.308538258E-01 -2.233422361E-02 6.875511882E-01
 7.435367107E-01 -2.046086919E-02 6.758110781E-01
 7.569049299E-01 -1.855144650E-02 6.684488617E-01
 7.701554000E-01 -1.669306494E-02 6.621764295E-01
 7.831212878E-01 -1.489190059E-02 6.514292773E-01
 7.959067822E-01 -1.318407105E-02 6.456280474E-01
 8.080737591E-01 -1.160191838E-02 6.392516394E-01
 8.192507029E-01 -1.016891282E-02 6.313823730E-01
 8.312973082E-01 -8.681694977E-03 6.236143837E-01
 8.439655602E-01 -7.195551414E-03 6.169717298E-01
 8.562844694E-01 -5.815935088E-03 6.089378135E-01
 8.678803146E-01 -4.606355447E-03 6.020881732E-01
 8.788897097E-01 -3.549665795E-03 5.964210127E-01
 8.907909989E-01 -2.519104979E-03 5.914097858E-01
 9.022110105E-01 -1.636041619E-03 5.855275032E-01
 9.128782153E-01 -9.366721497E-04 5.828353032E-01
 9.235175550E-01 -3.462784625E-04 5.795525845E-01
 9.442885816E-01 4.628759052E-04 5.764084558E-01
 9.567766786E-01 7.347902865E-04 5.751066180E-01
 9.704069793E-01 8.551520004E-04 5.729554671E-01
 9.834148586E-01 8.081906417E-04 5.651761848E-01
 9.948526919E-01 6.283752155E-04 5.545687758E-01
 -5.000000000E-01 9.500000000E-01 7.209269604E-01
 -5.000000000E-01 9.000000000E-01 7.168724999E-01
 -5.000000000E-01 8.500000000E-01 7.137582903E-01
 -5.000000000E-01 8.000000000E-01 7.110102219E-01
 -5.000000000E-01 7.500000000E-01 7.083860110E-01
 -5.000000000E-01 7.000000000E-01 7.058168776E-01
 -5.000000000E-01 6.500000000E-01 7.032154740E-01
 -5.000000000E-01 6.000000000E-01 7.005652521E-01
 -5.000000000E-01 5.500000000E-01 6.978526548E-01
 -5.000000000E-01 5.000000000E-01 6.951154428E-01
 -5.000000000E-01 4.500000000E-01 6.922975868E-01
 -5.000000000E-01 4.000000000E-01 6.894925426E-01
 -5.000000000E-01 3.500000000E-01 6.867367204E-01
 -5.000000000E-01 3.000000000E-01 6.841305025E-01
 -5.000000000E-01 2.500000000E-01 6.816914888E-01
 -5.000000000E-01 2.000000000E-01 6.795236061E-01
 -5.000000000E-01 1.500000000E-01 6.777386840E-01
 -5.000000000E-01 1.000000000E-01 6.763779729E-01
 -5.000000000E-01 5.000000000E-02 6.755142406E-01
 -5.000000000E-01 2.752242878E-12 6.751825415E-01
 -5.000000000E-01 -5.000000000E-02 6.754313850E-01
 -5.000000000E-01 -1.000000000E-01 6.762120444E-01
 -5.000000000E-01 -1.500000000E-01 6.775263670E-01
 -5.000000000E-01 -2.000000000E-01 6.792336568E-01
 -5.000000000E-01 -2.500000000E-01 6.812940281E-01
 -5.000000000E-01 -3.000000000E-01 6.836827943E-01
 -5.000000000E-01 -3.500000000E-01 6.862263068E-01
 -5.000000000E-01 -4.000000000E-01 6.888773384E-01
 -5.000000000E-01 -4.500000000E-01 6.916145755E-01
 -5.000000000E-01 -5.000000000E-01 6.943632295E-01
 -5.000000000E-01 -5.500000000E-01 6.970958665E-01
 -5.000000000E-01 -6.000000000E-01 6.997700008E-01
 -5.000000000E-01 -6.500000000E-01 7.024008301E-01
 -5.000000000E-01 -7.000000000E-01 7.050017255E-01
 -5.000000000E-01 -7.500000000E-01 7.075938750E-01
 -5.000000000E-01 -8.000000000E-01 7.102389687E-01
 -5.000000000E-01 -8.500000000E-01 7.130619318E-01
 -5.000000000E-01 -9.000000000E-01 7.163186276E-01
 -5.000000000E-01 -9.500000000E-01 7.205810331E-01
 -4.500000000E-01 -1.000000000E+00 7.204116806E-01
 -4.000000000E-01 -1.000000000E+00 7.163037396E-01
 -3.500000000E-01 -1.000000000E+00 7.136099755E-01
 -3.000000000E-01 -1.000000000E+00 7.118542892E-01
 -2.500000000E-01 -1.000000000E+00 7.108434281E-01
 -2.000000000E-01 -1.000000000E+00 7.105088975E-01
 -1.500000000E-01 -1.000000000E+00 7.108081426E-01
 -1.000000000E-01 -1.000000000E+00 7.118468126E-01
 -5.000000000E-02 -1.000000000E+00 7.136015258E-01
 -9.424683256E-13 -1.000000000E+00 7.160189780E-01
 5.000000000E-02 -1.000000000E+00 7.190649603E-01
 1.000000000E-01 -1.000000000E+00 7.225681607E-01
 1.500000000E-01 -1.000000000E+00 7.264408927E-01
 2.000000000E-01 -1.000000000E+00 7.304713183E-01
 2.500000000E-01 -1.000000000E+00 7.343213372E-01
 3.000000000E-01 -1.000000000E+00 7.379267380E-01
 3.500000000E-01 -1.000000000E+00 7.411891532E-01
 4.000000000E-01 -1.000000000E+00 7.438517930E-01
 4.500000000E-01 -1.000000000E+00 7.454534290E-01
 5.000000000E-01 -1.000000000E+00 7.461614526E-01
 5.500000000E-01 -1.000000000E+00 7.462605339E-01
 6.000000000E-01 -1.000000000E+00 7.454067699E-01
 6.500000000E-01 -1.000000000E+00 7.440007148E-01
 7.000000000E-01 -1.000000000E+00 7.418813184E-01
 7.500000000E-01 -1.000000000E+00 7.394919926E-01
 8.000000000E-01 -1.000000000E+00 7.366876050E-01
 8.500000000E-01 -1.000000000E+00 7.341013656E-01
 9.000000000E-01 -1.000000000E+00 7.312593691E-01
 9.500000000E-01 -1.000000000E+00 7.283407312E-01
 1.000000000E+00 -1.000000000E+00 7.254451665E-01
 1.050000000E+00 -1.000000000E+00 7.228947823E-01
 1.100000000E+00 -1.000000000E+00 7.206325944E-01
 1.150000000E+00 -1.000000000E+00 7.186713011E-01
 1.200000000E+00 -1.000000000E+00 7.169911776E-01
 1.250000000E+00 -1.000000000E+00 7.156209410E-01
 1.300000000E+00 -1.000000000E+00 7.145813837E-01
 1.350000000E+00 -1.000000000E+00 7.137777335E-01
 1.400000000E+00 -1.000000000E+00 7.132037092E-01
 1.450000000E+00 -1.000000000E+00 7.129112033E-01
 1.500000000E+00 -1.000000000E+00 7.127259338E-01
 1.550000000E+00 -1.000000000E+00 7.126801847E-01
 1.600000000E+00 -1.000000000E+00 7.127788158E-01
 1.650000000E+00 -1.000000000E+00 7.129974956E-01
 1.700000000E+00 -1.000000000E+00 7.132798793E-01
 1.750000000E+00 -1.000000000E+00 7.134628888E-01
 1.800000000E+00 -1.000000000E+00 7.138596118E-01
 1.850000000E+00 -1.000000000E+00 7.143630634E-01
 1.900000000E+00 -1.000000000E+00 7.149430267E-01
 1.950000000E+00 -1.000000000E+00 7.154144972E-01
 2.000000000E+00 -1.000000000E+00 7.158775116E-01
 2.050000000E+00 -1.000000000E+00 7.163332512E-01
 2.100000000E+00 -1.000000000E+00 7.167639742E-01
 2.150000000E+00 -1.000000000E+00 7.171856429E-01
 2.200000000E+00 -1.000000000E+00 7.176092243E-01
 2.250000000E+00 -1.000000000E+00 7.180623557E-01
 2.300000000E+00 -1.000000000E+00 7.184477185E-01
 2.350000000E+00 -1.000000000E+00 7.189250771E-01
 2.400000000E+00 -1.000000000E+00 7.193850078E-01
 2.450000000E+00 -1.000000000E+00 7.197351579E-01
 2.500000000E+00 -1.000000000E+00 7.200221967E-01
 2.550000000E+00 -1.000000000E+00 7.203277849E-01
 2.600000000E+00 -1.000000000E+00 7.205644049E-01
 2.650000000E+00 -1.000000000E+00 7.208089783E-01
 2.700000000E+00 -1.000000000E+00 7.210941482E-01
 2.750000000E+00 -1.000000000E+00 7.213170437E-01
 2.800000000E+00 -1.000000000E+00 7.215428717E-01
 2.850000000E+00 -1.000000000E+00 7.217999529E-01
 2.900000000E+00 -1.000000000E+00 7.218926450E-01
 2.950000000E+00 -1.000000000E+00 7.221139665E-01
 3.000000000E+00 -1.000000000E+00 7.223177554E-01
 3.050000000E+00 -1.000000000E+00 7.224020578E-01
 3.100000000E+00 -1.000000000E+00 7.224392735E-01
 3.150000000E+00 -1.000000000E+00 7.225598987E-01
 3.200000000E+00 -1.000000000E+00 7.226864032E-01
 3.250000000E+00 -1.000000000E+00 7.227888944E-01
 3.300000000E+00 -1.000000000E+00 7.230365729E-01
 3.350000000E+00 -1.000000000E+00 7.234427379E-01
 3.400000000E+00 -1.000000000E+00 7.239027770E-01
 3.450000000E+00 -1.000000000E+00 7.252002738E-01
 3.500000000E+00 -9.500000000E-01 7.295990974E-01
 3.500000000E+00 -9.000000000E-01 7.305510789E-01
 3.500000000E+00 -8.500000000E-01 7.311455140E-01
 3.500000000E+00 -8.000000000E-01 7.315703408E-01
 3.500000000E+00 -7.500000000E-01 7.318846010E-01
 3.500000000E+00 -7.000000000E-01 7.321536496E-01
 3.500000000E+00 -6.500000000E-01 7.324839973E-01
 3.500000000E+00 -6.000000000E-01 7.328290589E-01
 3.500000000E+00 -5.500000000E-01 7.332161166E-01
 3.500000000E+00 -5.000000000E-01 7.336000301E-01
 3.500000000E+00 -4.500000000E-01 7.339749556E-01
 3.500000000E+00 -4.000000000E-01 7.343511003E-01
 3.500000000E+00 -3.500000000E-01 7.347472116E-01
 3.500000000E+00 -3.000000000E-01 7.351316355E-01
 3.500000000E+00 -2.500000000E-01 7.354768491E-01
 3.500000000E+00 -2.000000000E-01 7.357498397E-01
 3.500000000E+00 -1.500000000E-01 7.359029527E-01
 3.500000000E+00 -1.000000000E-01 7.359435566E-01
 3.500000000E+00 -5.000000000E-02 7.359342042E-01
 3.500000000E+00 -2.752242878E-12 7.358855811E-01
 3.500000000E+00 5.000000000E-02 7.358032948E-01
 3.500000000E+00 1.000000000E-01 7.356742815E-01
 3.500000000E+00 1.500000000E-01 7.354319091E-01
 3.500000000E+00 2.000000000E-01 7.350813912E-01
 3.500000000E+00 2.500000000E-01 7.346905329E-01
 3.500000000E+00 3.000000000E-01 7.342870962E-01
 3.500000000E+00 3.500000000E-01 7.338956971E-01
 3.500000000E+00 4.000000000E-01 7.335079965E-01
 3.500000000E+00 4.500000000E-01 7.331012951E-01
 3.500000000E+00 5.000000000E-01 7.326199512E-01
 3.500000000E+00 5.500000000E-01 7.321777814E-01
 3.500000000E+00 6.000000000E-01 7.320139421E-01
 3.500000000E+00 6.500000000E-01 7.322582983E-01
 3.500000000E+00 7.000000000E-01 7.326227014E-01
 3.500000000E+00 7.500000000E-01 7.324016171E-01
 3.500000000E+00 8.000000000E-01 7.310662643E-01
 3.500000000E+00 8.500000000E-01 7.279599759E-01
 3.500000000E+00 9.000000000E-01 7.232104998E-01
 3.500000000E+00 9.500000000E-01 7.171927127E-01
 3.450000000E+00 1.000000000E+00 6.967956983E-01
 3.400000000E+00 1.000000000E+00 6.913500764E-01
 3.350000000E+00 1.000000000E+00 6.900360609E-01
 3.300000000E+00 1.000000000E+00 6.892939068E-01
 3.250000000E+00 1.000000000E+00 6.892542126E-01
 3.200000000E+00 1.000000000E+00 6.895150808E-01
 3.150000000E+00 1.000000000E+00 6.895848955E-01
 3.100000000E+00 1.000000000E+00 6.898117159E-01
 3.050000000E+00 1.000000000E+00 6.904051856E-01
 3.000000000E+00 1.000000000E+00 6.911898868E-01
 2.950000000E+00 1.000000000E+00 6.920502260E-01
 2.900000000E+00 1.000000000E+00 6.925377112E-01
 2.850000000E+00 1.000000000E+00 6.928791026E-01
 2.800000000E+00 1.000000000E+00 6.930032029E-01
 2.750000000E+00 1.000000000E+00 6.934517561E-01
 2.700000000E+00 1.000000000E+00 6.936817569E-01
 2.650000000E+00 1.000000000E+00 6.941276364E-01
 2.600000000E+00 1.000000000E+00 6.946978233E-01
 2.550000000E+00 1.000000000E+00 6.952806864E-01
 2.500000000E+00 1.000000000E+00 6.954364488E-01
 2.450000000E+00 1.000000000E+00 6.957817457E-01
 2.400000000E+00 1.000000000E+00 6.962906301E-01
 2.350000000E+00 1.000000000E+00 6.970184544E-01
 2.300000000E+00 1.000000000E+00 6.977209447E-01
 2.250000000E+00 1.000000000E+00 6.980910310E-01
 2.200000000E+00 1.000000000E+00 6.983328671E-01
 2.150000000E+00 1.000000000E+00 6.991677425E-01
 2.100000000E+00 1.000000000E+00 6.998927069E-01
 2.050000000E+00 1.000000000E+00 7.005314698E-01
 2.000000000E+00 1.000000000E+00 7.012468567E-01
 1.950000000E+00 1.000000000E+00 7.020229892E-01
 1.900000000E+00 1.000000000E+00 7.026640710E-01
 1.850000000E+00 1.000000000E+00 7.034347020E-01
 1.800000000E+00 1.000000000E+00 7.043574354E-01
 1.750000000E+00 1.000000000E+00 7.051195882E-01
 1.700000000E+00 1.000000000E+00 7.060009382E-01
 1.650000000E+00 1.000000000E+00 7.069967330E-01
 1.600000000E+00 1.000000000E+00 7.086071230E-01
 1.550000000E+00 1.000000000E+00 7.107619255E-01
 1.500000000E+00 1.000000000E+00 7.128084567E-01
 1.450000000E+00 1.000000000E+00 7.144710930E-01
 1.400000000E+00 1.000000000E+00 7.171271215E-01
 1.350000000E+00 1.000000000E+00 7.194153971E-01
 1.300000000E+00 1.000000000E+00 7.213596991E-01
 1.250000000E+00 1.000000000E+00 7.238711346E-01
 1.200000000E+00 1.000000000E+00 7.283286655E-01
 1.150000000E+00 1.000000000E+00 7.332580938E-01
 1.100000000E+00 1.000000000E+00 7.371606765E-01
 1.050000000E+00 1.000000000E+00 7.403462867E-01
 1.000000000E+00 1.000000000E+00 7.457955648E-01
 9.500000000E-01 1.000000000E+00 7.500273746E-01
 9.000000000E-01 1.000000000E+00 7.548682927E-01
 8.500000000E-01 1.000000000E+00 7.587984234E-01
 8.000000000E-01 1.000000000E+00 7.618750635E-01
 7.500000000E-01 1.000000000E+00 7.653411813E-01
 7.000000000E-01 1.000000000E+00 7.690701623E-01
 6.500000000E-01 1.000000000E+00 7.700937788E-01
 6.000000000E-01 1.000000000E+00 7.714113848E-01
 5.500000000E-01 1.000000000E+00 7.701627362E-01
 5.000000000E-01 1.000000000E+00 7.683617060E-01
 4.500000000E-01 1.000000000E+00 7.662956513E-01
 4.000000000E-01 1.000000000E+00 7.622173446E-01
 3.500000000E-01 1.000000000E+00 7.567486128E-01
 3.000000000E-01 1.000000000E+00 7.511760206E-01
 2.500000000E-01 1.000000000E+00 7.451302276E-01
 2.000000000E-01 1.000000000E+00 7.393811884E-01
 1.500000000E-01 1.000000000E+00 7.336284824E-01
 1.000000000E-01 1.000000000E+00 7.283420772E-01
 5.000000000E-02 1.000000000E+00 7.237094160E-01
 1.733724275E-12 1.000000000E+00 7.197418701E-01
 -5.000000000E-02 1.000000000E+00 7.165598805E-01
 -1.000000000E-01 1.000000000E+00 7.143334019E-01
 -1.500000000E-01 1.000000000E+00 7.128092932E-01
 -2.000000000E-01 1.000000000E+00 7.120249350E-01
 -2.500000000E-01 1.000000000E+00 7.120211358E-01
 -3.000000000E-01 1.000000000E+00 7.128718038E-01
 -3.500000000E-01 1.000000000E+00 7.144103845E-01
 -4.000000000E-01 1.000000000E+00 7.168638041E-01
 -4.500000000E-01 1.000000000E+00 7.207832292E-01
 9.104072488E-01 -5.431418033E-03 5.861880975E-01
 8.351816769E-01 -1.360041816E-02 6.245226143E-01
 7.609569068E-01 -2.376725426E-02 6.690499965E-01
 6.887200937E-01 -3.392864031E-02 7.123209714E-01
 9.868326529E-01 -3.698228426E-03 5.694832817E-01
 6.206213311E-01 -4.448828344E-02 7.628511428E-01
 5.556472404E-01 -5.384554445E-02 8.193367774E-01
 4.913684668E-01 -6.214131751E-02 8.958633688E-01
 4.359122202E-01 -6.748373811E-02 9.699737225E-01
 3.796981127E-01 -7.049008752E-02 1.090056191E+00
 3.230534174E-01 -7.038732662E-02 1.050396526E+00
 2.617219440E-01 -6.787967255E-02 9.933738705E-01
 2.077733554E-01 -6.453945703E-02 9.516488022E-01
 1.504558454E-01 -5.730962693E-02 9.115229888E-01
 9.943638819E-02 -4.834406423E-02 8.730279607E-01
 6.120059334E-02 -4.184913570E-02 8.270560447E-01