TITLE     = "Visualization of the solution"
VARIABLES = "x"
"y"
"Mach"
ZONE T="Zone"
 STRANDID=0, SOLUTIONTIME=0
 Nodes=12132, Elements=23683, ZONETYPE=FEQuadrilateral
 DATAPACKING=POINT
 DT=(DOUBLE DOUBLE DOUBLE )
 9.999328852E-01 5.130845238E-04 5.424442830E-01
 9.880127311E-01 2.860339824E-03 6.494568114E-01
 9.757900238E-01 5.262825638E-03 6.816881049E-01
 9.599465132E-01 8.269774728E-03 6.980191419E-01
 9.457812905E-01 1.106294803E-02 7.220790366E-01
 9.318656325E-01 1.375629194E-02 7.398506436E-01
 9.202898145E-01 1.596286520E-02 7.527929565E-01
 9.083105326E-01 1.824473031E-02 7.716690153E-01
 8.965584040E-01 2.038749494E-02 7.805785079E-01
 8.846439719E-01 2.254388481E-02 7.956348405E-01
 8.723399043E-01 2.465940081E-02 7.997909116E-01
 8.603752851E-01 2.673146501E-02 8.160694689E-01
 8.477041125E-01 2.880262211E-02 8.173943384E-01
 8.366508484E-01 3.064929694E-02 8.369021858E-01
 8.247216940E-01 3.248622268E-02 8.346838089E-01
 8.119794130E-01 3.445597365E-02 8.428041262E-01
 7.991430163E-01 3.640707955E-02 8.531205931E-01
 7.868838906E-01 3.823778406E-02 8.648202427E-01
 7.741077542E-01 4.003886878E-02 8.640872346E-01
 7.621676922E-01 4.174956679E-02 8.781941281E-01
 7.488408089E-01 4.356889054E-02 8.837513643E-01
 7.349005938E-01 4.543744773E-02 8.946775640E-01
 7.241756320E-01 4.682501778E-02 9.002250241E-01
 7.130804658E-01 4.823515192E-02 9.086243722E-01
 7.014662623E-01 4.967217147E-02 9.181369593E-01
 6.878646612E-01 5.129447952E-02 9.264066242E-01
 6.747851372E-01 5.278284848E-02 9.345668683E-01
 6.648803353E-01 5.389333144E-02 9.444562480E-01
 6.536864042E-01 5.510199443E-02 9.559984344E-01
 6.422510743E-01 5.625204742E-02 9.587268775E-01
 6.305540800E-01 5.741374940E-02 9.754298884E-01
 6.193408966E-01 5.844487622E-02 9.788035642E-01
 6.085053086E-01 5.938974395E-02 9.835534792E-01
 5.959930420E-01 6.043839827E-02 9.959082679E-01
 5.845986009E-01 6.133678928E-02 9.971773369E-01
 5.711654425E-01 6.227669120E-02 1.011548370E+00
 5.589859486E-01 6.306638569E-02 1.053231641E+00
 5.469067693E-01 6.377547979E-02 1.070757800E+00
 5.360668898E-01 6.434820592E-02 1.064895697E+00
 5.244225860E-01 6.488467753E-02 1.063505274E+00
 5.117838383E-01 6.541881710E-02 1.063694317E+00
 5.004529953E-01 6.580096483E-02 1.055175100E+00
 4.872247577E-01 6.619346887E-02 1.055550467E+00
 4.738396704E-01 6.650099158E-02 1.049770015E+00
 4.598483443E-01 6.674696505E-02 1.040212682E+00
 4.461867511E-01 6.687350571E-02 1.023846514E+00
 4.331314564E-01 6.690344959E-02 1.017322182E+00
 4.204264283E-01 6.688377261E-02 1.023924104E+00
 4.083245695E-01 6.681122631E-02 1.020669567E+00
 3.959214091E-01 6.663762033E-02 1.005452437E+00
 3.835584521E-01 6.640046090E-02 1.000896810E+00
 3.720531464E-01 6.614030898E-02 9.980399130E-01
 3.587295115E-01 6.574367732E-02 9.879783719E-01
 3.462057710E-01 6.531193852E-02 9.843109018E-01
 3.335002959E-01 6.481086463E-02 9.816125968E-01
 3.225442469E-01 6.430912763E-02 9.728192332E-01
 3.097045720E-01 6.366668642E-02 9.700327158E-01
 2.963267863E-01 6.291902810E-02 9.640352417E-01
 2.823792994E-01 6.203595549E-02 9.552910201E-01
 2.695142925E-01 6.115636602E-02 9.516506859E-01
 2.575469315E-01 6.026142836E-02 9.451735913E-01
 2.449267954E-01 5.924466997E-02 9.398406441E-01
 2.323862463E-01 5.815429240E-02 9.339547153E-01
 2.197344452E-01 5.696681142E-02 9.272225249E-01
 2.079759240E-01 5.578516796E-02 9.207724713E-01
 1.962953061E-01 5.453756452E-02 9.148185029E-01
 1.839229316E-01 5.312700942E-02 9.078689906E-01
 1.721030474E-01 5.168892816E-02 9.011385008E-01
 1.608643383E-01 5.024548620E-02 8.957644427E-01
 1.488557160E-01 4.859271646E-02 8.882107638E-01
 1.382351816E-01 4.704407230E-02 8.814231351E-01
 1.266706735E-01 4.524230957E-02 8.715000907E-01
 1.153980494E-01 4.338266328E-02 8.651685060E-01
 1.047141179E-01 4.149615765E-02 8.541883642E-01
 9.481205046E-02 3.963691741E-02 8.469200795E-01
 8.376839012E-02 3.742034733E-02 8.357353278E-01
 7.190156728E-02 3.483986109E-02 8.201971944E-01
 6.207881495E-02 3.252119571E-02 8.105294809E-01
 5.221788585E-02 2.998952568E-02 7.928796742E-01
 4.351547360E-02 2.754745074E-02 7.783432416E-01
 3.616151214E-02 2.528659068E-02 7.616922202E-01
 2.971817553E-02 2.311507799E-02 7.432238012E-01
 2.421893366E-02 2.109057829E-02 7.275445175E-01
 2.027719282E-02 1.950246841E-02 7.081065593E-01
 1.648816653E-02 1.784149744E-02 6.887700730E-01
 1.361585781E-02 1.646864600E-02 6.703813138E-01
 1.100710128E-02 1.511601917E-02 6.485507266E-01
 9.045506828E-03 1.399954967E-02 6.258970853E-01
 7.370610256E-03 1.297821570E-02 6.051146091E-01
 5.820261315E-03 1.194093563E-02 5.761422395E-01
 3.748297226E-03 1.038920879E-02 5.319659694E-01
 1.928162179E-03 8.767595515E-03 4.758845582E-01
 3.959207388E-04 7.079963572E-03 3.901310119E-01
 -1.102788723E-03 4.731888883E-03 2.719946865E-01
 -1.748837298E-03 2.944227774E-03 1.451781760E-01
 -1.958606066E-03 1.530672773E-03 2.424583230E-02
 -1.884497819E-03 -4.768271901E-05 9.594828968E-02
 -1.469908631E-03 -1.679108711E-03 2.197937391E-01
 -5.515823723E-04 -3.590112086E-03 3.477351691E-01
 8.660993772E-04 -5.551426206E-03 4.476738243E-01
 2.875109902E-03 -7.604041137E-03 5.294835192E-01
 4.684895277E-03 -9.105416015E-03 5.853048913E-01
 6.780488417E-03 -1.060364675E-02 6.267376410E-01
 8.408329450E-03 -1.164102368E-02 6.584880683E-01
 1.048678998E-02 -1.284420490E-02 6.814429008E-01
 1.283763815E-02 -1.407985389E-02 7.031625493E-01
 1.617094316E-02 -1.566414721E-02 7.266231466E-01
 1.922597922E-02 -1.698089950E-02 7.507378742E-01
 2.312606573E-02 -1.851335727E-02 7.667393107E-01
 2.847936563E-02 -2.040094510E-02 7.798256005E-01
 3.424843401E-02 -2.223337814E-02 7.943680577E-01
 4.151980579E-02 -2.431445941E-02 8.076293494E-01
 4.917317629E-02 -2.629518323E-02 8.186098816E-01
 5.830779672E-02 -2.842902951E-02 8.265945317E-01
 6.724392623E-02 -3.034011275E-02 8.340489745E-01
 7.763937861E-02 -3.238493577E-02 8.419337453E-01
 8.760549128E-02 -3.419015929E-02 8.464694926E-01
 9.780095518E-02 -3.591633216E-02 8.519319449E-01
 1.087572351E-01 -3.765258193E-02 8.581410466E-01
 1.200849414E-01 -3.932481632E-02 8.624829161E-01
 1.317313164E-01 -4.094377533E-02 8.690605756E-01
 1.425319612E-01 -4.235706851E-02 8.752513479E-01
 1.537137479E-01 -4.373453930E-02 8.803839172E-01
 1.658683419E-01 -4.514085129E-02 8.857771837E-01
 1.778046787E-01 -4.644266888E-02 8.931473474E-01
 1.896863431E-01 -4.765568674E-02 8.993385574E-01
 2.005057633E-01 -4.869469628E-02 9.068129312E-01
 2.117598057E-01 -4.969730601E-02 9.116297726E-01
 2.241654545E-01 -5.073137209E-02 9.184424704E-01
 2.372178882E-01 -5.173476413E-02 9.282440900E-01
 2.496856153E-01 -5.259140953E-02 9.349074880E-01
 2.623091638E-01 -5.337702483E-02 9.422045335E-01
 2.735177279E-01 -5.400488153E-02 9.527898548E-01
 2.860364616E-01 -5.460151657E-02 9.577497652E-01
 2.988106012E-01 -5.512942746E-02 9.687128002E-01
 3.114616275E-01 -5.552455783E-02 9.738564595E-01
 3.230837882E-01 -5.580903962E-02 9.804807240E-01
 3.356951177E-01 -5.601034313E-02 9.870427190E-01
 3.466094434E-01 -5.609697104E-02 9.957562196E-01
 3.579956591E-01 -5.608164519E-02 9.983675578E-01
 3.687933981E-01 -5.596080050E-02 9.906191970E-01
 3.793670833E-01 -5.578337982E-02 9.926312682E-01
 3.906146288E-01 -5.548105761E-02 9.914749152E-01
 4.034323394E-01 -5.499916896E-02 9.778680998E-01
 4.158084691E-01 -5.441262573E-02 9.666823163E-01
 4.284559190E-01 -5.369209498E-02 9.566262507E-01
 4.407912195E-01 -5.285879225E-02 9.436099646E-01
 4.527613521E-01 -5.192639679E-02 9.253737974E-01
 4.644927382E-01 -5.092433095E-02 9.099683815E-01
 4.770272672E-01 -4.977283999E-02 9.004359216E-01
 4.883825183E-01 -4.862004891E-02 8.853220248E-01
 5.008437037E-01 -4.724672437E-02 8.626158175E-01
 5.146386623E-01 -4.569049552E-02 8.499194578E-01
 5.283349752E-01 -4.406900331E-02 8.376246604E-01
 5.417854190E-01 -4.237914830E-02 8.197369986E-01
 5.548688769E-01 -4.070527479E-02 8.077768912E-01
 5.679364800E-01 -3.898273781E-02 7.950049113E-01
 5.810669661E-01 -3.721228987E-02 7.818291284E-01
 5.929195285E-01 -3.560256958E-02 7.721451185E-01
 6.051694155E-01 -3.390460461E-02 7.593553529E-01
 6.196872592E-01 -3.191125393E-02 7.496636058E-01
 6.343453526E-01 -2.988217585E-02 7.383782903E-01
 6.492776871E-01 -2.782285772E-02 7.286575114E-01
 6.624508500E-01 -2.599662542E-02 7.181935997E-01
 6.762762666E-01 -2.411510795E-02 7.113817033E-01
 6.887211204E-01 -2.240656503E-02 7.014826624E-01
 7.012717724E-01 -2.072034962E-02 6.945829020E-01
 7.157891989E-01 -1.879073866E-02 6.870250718E-01
 7.287071943E-01 -1.706846617E-02 6.770103531E-01
 7.404321432E-01 -1.555413567E-02 6.709192436E-01
 7.533686161E-01 -1.390809938E-02 6.624222273E-01
 7.657549977E-01 -1.240746025E-02 6.594981380E-01
 7.783966064E-01 -1.085112337E-02 6.496709463E-01
 7.902473807E-01 -9.463265538E-03 6.441065221E-01
 8.027998805E-01 -8.038434200E-03 6.377570291E-01
 8.136194348E-01 -6.828295533E-03 6.292182023E-01
 8.252593279E-01 -5.610664375E-03 6.234203390E-01
 8.382404447E-01 -4.346883856E-03 6.186196065E-01
 8.506002426E-01 -3.204435809E-03 6.118305341E-01
 8.628322482E-01 -2.156887669E-03 6.051297357E-01
 8.749325871E-01 -1.238211640E-03 6.003489592E-01
 8.867425323E-01 -4.369947419E-04 5.951896431E-01
 8.999246955E-01 3.137644962E-04 5.907570299E-01
 9.104315042E-01 7.842428749E-04 5.890998138E-01
 9.207338691E-01 1.153184683E-03 5.870068319E-01
 9.301407933E-01 1.395992585E-03 5.859991894E-01
 9.389777184E-01 1.545055304E-03 5.855728561E-01
 9.508850574E-01 1.628916129E-03 5.855375062E-01
 9.632463455E-01 1.575985691E-03 5.853962874E-01
 9.773795009E-01 1.348354621E-03 5.832681536E-01
 9.893089533E-01 9.974223794E-04 5.763203014E-01
 -5.000000000E-01 -1.000000000E+00 7.240061402E-01
 3.500000000E+00 -1.000000000E+00 7.284439727E-01
 3.500000000E+00 1.000000000E+00 7.109799832E-01
 -5.000000000E-01 1.000000000E+00 7.244327560E-01
 9.939728081E-01 1.686712174E-03 6.290926790E-01
 9.819013774E-01 4.061582731E-03 6.669161543E-01
 9.678682685E-01 6.766300183E-03 6.898965261E-01
 9.528639019E-01 9.666361380E-03 7.100747394E-01
 9.388234615E-01 1.240961999E-02 7.314714995E-01
 9.260777235E-01 1.485957857E-02 7.460708777E-01
 9.143001735E-01 1.710379776E-02 7.628248870E-01
 9.024344683E-01 1.931611262E-02 7.758589442E-01
 8.906011879E-01 2.146568988E-02 7.892112776E-01
 8.784919381E-01 2.360164281E-02 7.964412855E-01
 8.663575947E-01 2.569543291E-02 8.094211665E-01
 8.540396988E-01 2.776704356E-02 8.153434299E-01
 8.421774805E-01 2.972595952E-02 8.292657029E-01
 8.306862712E-01 3.156775981E-02 8.355163471E-01
 8.183505535E-01 3.347109817E-02 8.383169016E-01
 8.055612147E-01 3.543152660E-02 8.472787666E-01
 7.930134535E-01 3.732243180E-02 8.608182040E-01
 7.804958224E-01 3.913832642E-02 8.628069432E-01
 7.681377232E-01 4.089421779E-02 8.721281469E-01
 7.555042505E-01 4.265922867E-02 8.804923603E-01
 7.418707013E-01 4.450316913E-02 8.893941397E-01
 7.295381129E-01 4.613123275E-02 8.975179322E-01
 7.186280489E-01 4.753008485E-02 9.042451558E-01
 7.072733641E-01 4.895366170E-02 9.133077989E-01
 6.946654618E-01 5.048332550E-02 9.230321742E-01
 6.813248992E-01 5.203866400E-02 9.284872941E-01
 6.592833698E-01 5.449766293E-02 9.528884758E-01
 6.479687393E-01 5.567702092E-02 9.553717252E-01
 6.364025772E-01 5.683289841E-02 9.682115123E-01
 6.249474883E-01 5.792931281E-02 9.779327641E-01
 6.139231026E-01 5.891731009E-02 9.800570428E-01
 6.022491753E-01 5.991407111E-02 9.899195602E-01
 5.902958214E-01 6.088759378E-02 9.986621753E-01
 5.778820217E-01 6.180674024E-02 9.989375018E-01
 5.650756955E-01 6.267153844E-02 1.032719689E+00
 5.529463589E-01 6.342093274E-02 1.066397502E+00
 5.414868295E-01 6.406184286E-02 1.069145681E+00
 5.302447379E-01 6.461644173E-02 1.062054298E+00
 5.181032121E-01 6.515174732E-02 1.066194093E+00
 5.061184168E-01 6.560989097E-02 1.057584661E+00
 4.938388765E-01 6.599721685E-02 1.056254781E+00
 4.805322140E-01 6.634723023E-02 1.052629374E+00
 4.668440074E-01 6.662397832E-02 1.046546681E+00
 4.530175477E-01 6.681023538E-02 1.031563087E+00
 4.396591038E-01 6.688847765E-02 1.018375510E+00
 4.267789423E-01 6.689361110E-02 1.020190159E+00
 4.143754989E-01 6.684749946E-02 1.025165412E+00
 4.021229893E-01 6.672442332E-02 1.012470971E+00
 3.897399306E-01 6.651904061E-02 1.001391250E+00
 3.778057992E-01 6.627038494E-02 1.001426480E+00
 3.653913289E-01 6.594199315E-02 9.922157216E-01
 3.524676412E-01 6.552780792E-02 9.855816116E-01
 3.398530334E-01 6.506140158E-02 9.836365610E-01
 3.280222714E-01 6.455999613E-02 9.770526116E-01
 3.161244094E-01 6.398790702E-02 9.710806396E-01
 3.030156791E-01 6.329285726E-02 9.681312893E-01
 2.893530428E-01 6.247749180E-02 9.587208657E-01
 2.759467959E-01 6.159616075E-02 9.535861170E-01
 2.635306120E-01 6.070889719E-02 9.485814548E-01
 2.512368634E-01 5.975304917E-02 9.423752996E-01
 2.386565208E-01 5.869948119E-02 9.371394753E-01
 2.260603458E-01 5.756055191E-02 9.304942134E-01
 2.138551846E-01 5.637598969E-02 9.238688540E-01
 2.021356151E-01 5.516136624E-02 9.180648951E-01
 1.901091188E-01 5.383228697E-02 9.114294769E-01
 1.780129895E-01 5.240796879E-02 9.039927297E-01
 1.664836928E-01 5.096720718E-02 8.991906564E-01
 1.548600271E-01 4.941910133E-02 8.913215875E-01
 1.435454488E-01 4.781839438E-02 8.856078083E-01
 1.324529275E-01 4.614319094E-02 8.761112608E-01
 1.210343614E-01 4.431248643E-02 8.681517293E-01
 1.100560836E-01 4.243941046E-02 8.609924110E-01
 8.929022029E-02 3.852863237E-02 8.417227441E-01
 7.783497870E-02 3.613010421E-02 8.294496816E-01
 5.714835040E-02 3.125536069E-02 8.035113248E-01
 7.244165242E-02 -3.136252426E-02 8.390867050E-01
 8.262243494E-02 -3.328754753E-02 8.444247465E-01
 9.270322323E-02 -3.505324572E-02 8.490446224E-01
 1.032790951E-01 -3.678445704E-02 8.549568196E-01
 1.144210882E-01 -3.848869912E-02 8.605533394E-01
 1.259081289E-01 -4.013429582E-02 8.653477793E-01
 1.371316388E-01 -4.165042192E-02 8.726281081E-01
 1.481228545E-01 -4.304580390E-02 8.777478668E-01
 1.597910449E-01 -4.443769529E-02 8.828275618E-01
 1.718365103E-01 -4.579176009E-02 8.894733339E-01
 1.837455109E-01 -4.704917781E-02 8.962133138E-01
 1.950960532E-01 -4.817519151E-02 9.032354188E-01
 2.061327845E-01 -4.919600114E-02 9.094377520E-01
 2.179626301E-01 -5.021433905E-02 9.145877615E-01
 2.306916714E-01 -5.123306811E-02 9.229762598E-01
 2.434517518E-01 -5.216308683E-02 9.323096604E-01
 2.559973896E-01 -5.298421718E-02 9.378654320E-01
 2.679134458E-01 -5.369095318E-02 9.477985809E-01
 2.797770947E-01 -5.430319905E-02 9.555742710E-01
 2.924235314E-01 -5.486547202E-02 9.622735701E-01
 3.051361144E-01 -5.532699265E-02 9.724969955E-01
 3.172727078E-01 -5.566679873E-02 9.767331704E-01
 3.293894529E-01 -5.590969138E-02 9.835342722E-01
 3.411522806E-01 -5.605365708E-02 9.916660725E-01
 3.523025513E-01 -5.608930811E-02 9.979460344E-01
 3.633945286E-01 -5.602122284E-02 9.954805024E-01
 3.740802407E-01 -5.587209016E-02 9.897372012E-01
 3.849908561E-01 -5.563221872E-02 9.939630696E-01
 3.970234841E-01 -5.524011329E-02 9.849325470E-01
 4.096204042E-01 -5.470589735E-02 9.720199527E-01
 4.221321940E-01 -5.405236036E-02 9.615159588E-01
 4.346235693E-01 -5.327544361E-02 9.507701303E-01
 4.467762858E-01 -5.239259452E-02 9.350243177E-01
 4.586270452E-01 -5.142536387E-02 9.171478099E-01
 4.707600027E-01 -5.034858547E-02 9.045550081E-01
 4.827048928E-01 -4.919644445E-02 8.944988493E-01
 4.946131110E-01 -4.793338664E-02 8.739036022E-01
 5.077411830E-01 -4.646860994E-02 8.551434128E-01
 5.214868188E-01 -4.487974942E-02 8.441825712E-01
 5.350601971E-01 -4.322407581E-02 8.289310191E-01
 5.483271480E-01 -4.154221155E-02 8.131769542E-01
 5.614026785E-01 -3.984400630E-02 8.015982649E-01
 5.745017231E-01 -3.809751384E-02 7.882845268E-01
 5.869932473E-01 -3.640742972E-02 7.768764659E-01
 5.990444720E-01 -3.475358710E-02 7.659126497E-01
 6.124283373E-01 -3.290792927E-02 7.543398919E-01
 6.270163059E-01 -3.089671489E-02 7.441188127E-01
 6.418115199E-01 -2.885251679E-02 7.333636750E-01
 6.558642685E-01 -2.690974157E-02 7.233711941E-01
 6.693635583E-01 -2.505586669E-02 7.145720810E-01
 6.824986935E-01 -2.326083649E-02 7.065738901E-01
 6.949964464E-01 -2.156345733E-02 6.977871389E-01
 7.085304856E-01 -1.975554414E-02 6.910344315E-01
 7.222481966E-01 -1.792960241E-02 6.820177813E-01
 7.345696688E-01 -1.631130092E-02 6.736905426E-01
 7.469003797E-01 -1.473111752E-02 6.666422064E-01
 7.595618069E-01 -1.315777982E-02 6.608660759E-01
 7.720758021E-01 -1.162929181E-02 6.548404956E-01
 7.843219936E-01 -1.015719445E-02 6.465636366E-01
 7.965236306E-01 -8.750849869E-03 6.411244117E-01
 8.082096577E-01 -7.433364866E-03 6.334924701E-01
 8.194393814E-01 -6.219479954E-03 6.260512531E-01
 8.317498863E-01 -4.978774115E-03 6.211543248E-01
 8.444203436E-01 -3.775659832E-03 6.152649288E-01
 8.567162454E-01 -2.680661739E-03 6.083930056E-01
 8.688824177E-01 -1.697549655E-03 6.026010809E-01
 8.808375597E-01 -8.376031910E-04 5.976884178E-01
 8.933336139E-01 -6.161512283E-05 5.932009152E-01
 9.051780999E-01 5.490036856E-04 5.892827068E-01
 9.155826867E-01 9.687137790E-04 5.880798621E-01
 9.449313879E-01 1.586985716E-03 5.858831734E-01
 9.570657015E-01 1.602450910E-03 5.853529582E-01
 9.703129232E-01 1.462170156E-03 5.849573790E-01
 9.833442271E-01 1.172888500E-03 5.794928916E-01
 9.946209192E-01 7.552534516E-04 5.765651763E-01
 -5.000000000E-01 9.500000000E-01 7.222275148E-01
 -5.000000000E-01 9.000000000E-01 7.187725275E-01
 -5.000000000E-01 8.500000000E-01 7.161255060E-01
 -5.000000000E-01 8.000000000E-01 7.137658463E-01
 -5.000000000E-01 7.500000000E-01 7.115068260E-01
 -5.000000000E-01 7.000000000E-01 7.093065742E-01
 -5.000000000E-01 6.500000000E-01 7.070704183E-01
 -5.000000000E-01 6.000000000E-01 7.047576846E-01
 -5.000000000E-01 5.500000000E-01 7.023909807E-01
 -5.000000000E-01 5.000000000E-01 6.999966990E-01
 -5.000000000E-01 4.500000000E-01 6.975731681E-01
 -5.000000000E-01 4.000000000E-01 6.951046896E-01
 -5.000000000E-01 3.500000000E-01 6.927099999E-01
 -5.000000000E-01 3.000000000E-01 6.904252866E-01
 -5.000000000E-01 2.500000000E-01 6.882817763E-01
 -5.000000000E-01 2.000000000E-01 6.864123450E-01
 -5.000000000E-01 1.500000000E-01 6.848320249E-01
 -5.000000000E-01 1.000000000E-01 6.836401149E-01
 -5.000000000E-01 5.000000000E-02 6.828867465E-01
 -5.000000000E-01 2.752242878E-12 6.825758606E-01
 -5.000000000E-01 -5.000000000E-02 6.827631523E-01
 -5.000000000E-01 -1.000000000E-01 6.834453314E-01
 -5.000000000E-01 -1.500000000E-01 6.845215933E-01
 -5.000000000E-01 -2.000000000E-01 6.859953380E-01
 -5.000000000E-01 -2.500000000E-01 6.877757567E-01
 -5.000000000E-01 -3.000000000E-01 6.897488871E-01
 -5.000000000E-01 -3.500000000E-01 6.919329585E-01
 -5.000000000E-01 -4.000000000E-01 6.942041284E-01
 -5.000000000E-01 -4.500000000E-01 6.965451832E-01
 -5.000000000E-01 -5.000000000E-01 6.988907493E-01
 -5.000000000E-01 -5.500000000E-01 7.012237745E-01
 -5.000000000E-01 -6.000000000E-01 7.035292589E-01
 -5.000000000E-01 -6.500000000E-01 7.057970409E-01
 -5.000000000E-01 -7.000000000E-01 7.080479791E-01
 -5.000000000E-01 -7.500000000E-01 7.102653542E-01
 -5.000000000E-01 -8.000000000E-01 7.125747725E-01
 -5.000000000E-01 -8.500000000E-01 7.150698346E-01
 -5.000000000E-01 -9.000000000E-01 7.179253532E-01
 -5.000000000E-01 -9.500000000E-01 7.216310827E-01
 -4.500000000E-01 -1.000000000E+00 7.214895551E-01
 -4.000000000E-01 -1.000000000E+00 7.178924092E-01
 -3.500000000E-01 -1.000000000E+00 7.154754222E-01
 -3.000000000E-01 -1.000000000E+00 7.138720472E-01
 -2.500000000E-01 -1.000000000E+00 7.129019585E-01
 -2.000000000E-01 -1.000000000E+00 7.125129382E-01
 -1.500000000E-01 -1.000000000E+00 7.126763717E-01
 -1.000000000E-01 -1.000000000E+00 7.134489194E-01
 -5.000000000E-02 -1.000000000E+00 7.147549291E-01
 -9.424683256E-13 -1.000000000E+00 7.165912766E-01
 5.000000000E-02 -1.000000000E+00 7.188959052E-01
 1.000000000E-01 -1.000000000E+00 7.215904028E-01
 1.500000000E-01 -1.000000000E+00 7.245865966E-01
 2.000000000E-01 -1.000000000E+00 7.277582174E-01
 2.500000000E-01 -1.000000000E+00 7.308989340E-01
 3.000000000E-01 -1.000000000E+00 7.338466326E-01
 3.500000000E-01 -1.000000000E+00 7.363856296E-01
 4.000000000E-01 -1.000000000E+00 7.383507170E-01
 4.500000000E-01 -1.000000000E+00 7.394859596E-01
 5.000000000E-01 -1.000000000E+00 7.401251718E-01
 5.500000000E-01 -1.000000000E+00 7.402277223E-01
 6.000000000E-01 -1.000000000E+00 7.395569861E-01
 6.500000000E-01 -1.000000000E+00 7.383408290E-01
 7.000000000E-01 -1.000000000E+00 7.366799480E-01
 7.500000000E-01 -1.000000000E+00 7.346732275E-01
 8.000000000E-01 -1.000000000E+00 7.323681295E-01
 8.500000000E-01 -1.000000000E+00 7.298680814E-01
 9.000000000E-01 -1.000000000E+00 7.273046869E-01
 9.500000000E-01 -1.000000000E+00 7.248590227E-01
 1.000000000E+00 -1.000000000E+00 7.225153672E-01
 1.050000000E+00 -1.000000000E+00 7.204183564E-01
 1.100000000E+00 -1.000000000E+00 7.186113433E-01
 1.150000000E+00 -1.000000000E+00 7.170691486E-01
 1.200000000E+00 -1.000000000E+00 7.157957065E-01
 1.250000000E+00 -1.000000000E+00 7.147667899E-01
 1.300000000E+00 -1.000000000E+00 7.140146461E-01
 1.350000000E+00 -1.000000000E+00 7.134864390E-01
 1.400000000E+00 -1.000000000E+00 7.131581798E-01
 1.450000000E+00 -1.000000000E+00 7.130195749E-01
 1.500000000E+00 -1.000000000E+00 7.130155319E-01
 1.550000000E+00 -1.000000000E+00 7.131696516E-01
 1.600000000E+00 -1.000000000E+00 7.133775046E-01
 1.650000000E+00 -1.000000000E+00 7.137482974E-01
 1.700000000E+00 -1.000000000E+00 7.140458674E-01
 1.750000000E+00 -1.000000000E+00 7.143801079E-01
 1.800000000E+00 -1.000000000E+00 7.147915208E-01
 1.850000000E+00 -1.000000000E+00 7.153418434E-01
 1.900000000E+00 -1.000000000E+00 7.158067354E-01
 1.950000000E+00 -1.000000000E+00 7.163436177E-01
 2.000000000E+00 -1.000000000E+00 7.168615626E-01
 2.050000000E+00 -1.000000000E+00 7.173672663E-01
 2.100000000E+00 -1.000000000E+00 7.178392598E-01
 2.150000000E+00 -1.000000000E+00 7.182779059E-01
 2.200000000E+00 -1.000000000E+00 7.187134721E-01
 2.250000000E+00 -1.000000000E+00 7.191515502E-01
 2.300000000E+00 -1.000000000E+00 7.195902737E-01
 2.350000000E+00 -1.000000000E+00 7.200259963E-01
 2.400000000E+00 -1.000000000E+00 7.204033776E-01
 2.450000000E+00 -1.000000000E+00 7.207519858E-01
 2.500000000E+00 -1.000000000E+00 7.210767385E-01
 2.550000000E+00 -1.000000000E+00 7.214002213E-01
 2.600000000E+00 -1.000000000E+00 7.217251056E-01
 2.650000000E+00 -1.000000000E+00 7.220091215E-01
 2.700000000E+00 -1.000000000E+00 7.222588262E-01
 2.750000000E+00 -1.000000000E+00 7.224958855E-01
 2.800000000E+00 -1.000000000E+00 7.227137674E-01
 2.850000000E+00 -1.000000000E+00 7.229260384E-01
 2.900000000E+00 -1.000000000E+00 7.231168938E-01
 2.950000000E+00 -1.000000000E+00 7.232665757E-01
 3.000000000E+00 -1.000000000E+00 7.234500696E-01
 3.050000000E+00 -1.000000000E+00 7.235958393E-01
 3.100000000E+00 -1.000000000E+00 7.237738450E-01
 3.150000000E+00 -1.000000000E+00 7.239469277E-01
 3.200000000E+00 -1.000000000E+00 7.241057598E-01
 3.250000000E+00 -1.000000000E+00 7.242635332E-01
 3.300000000E+00 -1.000000000E+00 7.244704788E-01
 3.350000000E+00 -1.000000000E+00 7.248053800E-01
 3.400000000E+00 -1.000000000E+00 7.252472361E-01
 3.450000000E+00 -1.000000000E+00 7.262772321E-01
 3.500000000E+00 -9.500000000E-01 7.297494353E-01
 3.500000000E+00 -9.000000000E-01 7.304030949E-01
 3.500000000E+00 -8.500000000E-01 7.308568550E-01
 3.500000000E+00 -8.000000000E-01 7.312143086E-01
 3.500000000E+00 -7.500000000E-01 7.314956161E-01
 3.500000000E+00 -7.000000000E-01 7.317690271E-01
 3.500000000E+00 -6.500000000E-01 7.320489552E-01
 3.500000000E+00 -6.000000000E-01 7.323427212E-01
 3.500000000E+00 -5.500000000E-01 7.326592248E-01
 3.500000000E+00 -5.000000000E-01 7.329827959E-01
 3.500000000E+00 -4.500000000E-01 7.333035376E-01
 3.500000000E+00 -4.000000000E-01 7.336141700E-01
 3.500000000E+00 -3.500000000E-01 7.339239079E-01
 3.500000000E+00 -3.000000000E-01 7.342472374E-01
 3.500000000E+00 -2.500000000E-01 7.345418191E-01
 3.500000000E+00 -2.000000000E-01 7.347553357E-01
 3.500000000E+00 -1.500000000E-01 7.348737198E-01
 3.500000000E+00 -1.000000000E-01 7.349114266E-01
 3.500000000E+00 -5.000000000E-02 7.349118959E-01
 3.500000000E+00 -2.752242878E-12 7.348991052E-01
 3.500000000E+00 5.000000000E-02 7.348562751E-01
 3.500000000E+00 1.000000000E-01 7.347224714E-01
 3.500000000E+00 1.500000000E-01 7.344435023E-01
 3.500000000E+00 2.000000000E-01 7.341292370E-01
 3.500000000E+00 2.500000000E-01 7.338210965E-01
 3.500000000E+00 3.000000000E-01 7.334885790E-01
 3.500000000E+00 3.500000000E-01 7.331537532E-01
 3.500000000E+00 4.000000000E-01 7.328309095E-01
 3.500000000E+00 4.500000000E-01 7.324892497E-01
 3.500000000E+00 5.000000000E-01 7.320684549E-01
 3.500000000E+00 5.500000000E-01 7.316759495E-01
 3.500000000E+00 6.000000000E-01 7.315097311E-01
 3.500000000E+00 6.500000000E-01 7.317236823E-01
 3.500000000E+00 7.000000000E-01 7.321211865E-01
 3.500000000E+00 7.500000000E-01 7.320876180E-01
 3.500000000E+00 8.000000000E-01 7.310058402E-01
 3.500000000E+00 8.500000000E-01 7.282346538E-01
 3.500000000E+00 9.000000000E-01 7.238437870E-01
 3.500000000E+00 9.500000000E-01 7.183370979E-01
 3.450000000E+00 1.000000000E+00 7.000883052E-01
 3.400000000E+00 1.000000000E+00 6.953912180E-01
 3.350000000E+00 1.000000000E+00 6.943705068E-01
 3.300000000E+00 1.000000000E+00 6.939724922E-01
 3.250000000E+00 1.000000000E+00 6.941555058E-01
 3.200000000E+00 1.000000000E+00 6.944594938E-01
 3.150000000E+00 1.000000000E+00 6.945201226E-01
 3.100000000E+00 1.000000000E+00 6.943382224E-01
 3.050000000E+00 1.000000000E+00 6.946721082E-01
 3.000000000E+00 1.000000000E+00 6.948964065E-01
 2.950000000E+00 1.000000000E+00 6.954580235E-01
 2.900000000E+00 1.000000000E+00 6.962646507E-01
 2.850000000E+00 1.000000000E+00 6.963440861E-01
 2.800000000E+00 1.000000000E+00 6.971314312E-01
 2.750000000E+00 1.000000000E+00 6.976863331E-01
 2.700000000E+00 1.000000000E+00 6.977497822E-01
 2.650000000E+00 1.000000000E+00 6.977121573E-01
 2.600000000E+00 1.000000000E+00 6.982089385E-01
 2.550000000E+00 1.000000000E+00 6.985272389E-01
 2.500000000E+00 1.000000000E+00 6.991672221E-01
 2.450000000E+00 1.000000000E+00 6.992133999E-01
 2.400000000E+00 1.000000000E+00 6.997028878E-01
 2.350000000E+00 1.000000000E+00 7.005116495E-01
 2.300000000E+00 1.000000000E+00 7.008615417E-01
 2.250000000E+00 1.000000000E+00 7.012807425E-01
 2.200000000E+00 1.000000000E+00 7.015384263E-01
 2.150000000E+00 1.000000000E+00 7.021569757E-01
 2.100000000E+00 1.000000000E+00 7.027188675E-01
 2.050000000E+00 1.000000000E+00 7.035409061E-01
 2.000000000E+00 1.000000000E+00 7.041338630E-01
 1.950000000E+00 1.000000000E+00 7.051561406E-01
 1.900000000E+00 1.000000000E+00 7.061364313E-01
 1.850000000E+00 1.000000000E+00 7.069541343E-01
 1.800000000E+00 1.000000000E+00 7.078485138E-01
 1.750000000E+00 1.000000000E+00 7.090938483E-01
 1.700000000E+00 1.000000000E+00 7.102724373E-01
 1.650000000E+00 1.000000000E+00 7.114678122E-01
 1.600000000E+00 1.000000000E+00 7.125961199E-01
 1.550000000E+00 1.000000000E+00 7.142975705E-01
 1.500000000E+00 1.000000000E+00 7.160457932E-01
 1.450000000E+00 1.000000000E+00 7.175337673E-01
 1.400000000E+00 1.000000000E+00 7.198033364E-01
 1.350000000E+00 1.000000000E+00 7.223945108E-01
 1.300000000E+00 1.000000000E+00 7.250332172E-01
 1.250000000E+00 1.000000000E+00 7.280079156E-01
 1.200000000E+00 1.000000000E+00 7.311128958E-01
 1.150000000E+00 1.000000000E+00 7.344941404E-01
 1.100000000E+00 1.000000000E+00 7.383057667E-01
 1.050000000E+00 1.000000000E+00 7.424695831E-01
 1.000000000E+00 1.000000000E+00 7.467450985E-01
 9.500000000E-01 1.000000000E+00 7.502441454E-01
 9.000000000E-01 1.000000000E+00 7.545201247E-01
 8.500000000E-01 1.000000000E+00 7.590744441E-01
 8.000000000E-01 1.000000000E+00 7.636506470E-01
 7.500000000E-01 1.000000000E+00 7.670793660E-01
 7.000000000E-01 1.000000000E+00 7.695211399E-01
 6.500000000E-01 1.000000000E+00 7.696684147E-01
 6.000000000E-01 1.000000000E+00 7.696309037E-01
 5.500000000E-01 1.000000000E+00 7.685406680E-01
 5.000000000E-01 1.000000000E+00 7.666660046E-01
 4.500000000E-01 1.000000000E+00 7.636930270E-01
 4.000000000E-01 1.000000000E+00 7.599565043E-01
 3.500000000E-01 1.000000000E+00 7.556441238E-01
 3.000000000E-01 1.000000000E+00 7.506520453E-01
 2.500000000E-01 1.000000000E+00 7.452937231E-01
 2.000000000E-01 1.000000000E+00 7.400523731E-01
 1.500000000E-01 1.000000000E+00 7.348086965E-01
 1.000000000E-01 1.000000000E+00 7.299353362E-01
 5.000000000E-02 1.000000000E+00 7.256860025E-01
 1.733724275E-12 1.000000000E+00 7.221096475E-01
 -5.000000000E-02 1.000000000E+00 7.192220169E-01
 -1.000000000E-01 1.000000000E+00 7.170392566E-01
 -1.500000000E-01 1.000000000E+00 7.156032987E-01
 -2.000000000E-01 1.000000000E+00 7.148831111E-01
 -2.500000000E-01 1.000000000E+00 7.148923690E-01
 -3.000000000E-01 1.000000000E+00 7.155154436E-01
 -3.500000000E-01 1.000000000E+00 7.167376331E-01
 -4.000000000E-01 1.000000000E+00 7.187885948E-01
 -4.500000000E-01 1.000000000E+00 7.221057236E-01
 9.027986906E-01 -4.765343573E-03 5.934074730E-01
 8.230189493E-01 -1.053081842E-02 6.263747499E-01
 7.514583722E-01 -2.029668169E-02 6.661129246E-01
 6.800816559E-01 -2.872691434E-02 7.094236283E-01
 6.097440148E-01 -3.918215678E-02 7.571140889E-01
 5.385567121E-01 -4.848063929E-02 8.240187513E-01
 9.803685992E-01 -3.754965147E-03 5.859608802E-01
 4.806982140E-01 -5.443229754E-02 8.930275348E-01
 4.252008318E-01 -5.887136214E-02 9.550915064E-01
 3.662074128E-01 -6.118254713E-02 9.888243667E-01
 3.134625037E-01 -5.978412460E-02 9.721111898E-01
 2.588213011E-01 -5.857230110E-02 9.371364474E-01
 1.973782109E-01 -5.291605515E-02 9.027624973E-01
 1.399751862E-01 -4.676467148E-02 8.714203600E-01
 8.942695379E-02 -3.884696848E-02 8.439477093E-01
 5.233194974E-02 -3.416691224E-02 8.095519657E-01
 1.655494645E-02 -1.915990112E-02 7.186907891E-01
 1.976038378E+00 -9.571684080E-01 7.181288241E-01
 1.970375609E+00 9.492648939E-01 7.170216981E-01