TITLE     = "Visualization of the solution"
VARIABLES = "x"
"y"
"Mach"
ZONE T="Zone"
 STRANDID=0, SOLUTIONTIME=0
 Nodes=11888, Elements=23195, ZONETYPE=FEQuadrilateral
 DATAPACKING=POINT
 DT=(DOUBLE DOUBLE DOUBLE )
 1.000049710E+00 5.265675136E-04 5.510050372E-01
 9.891804457E-01 2.544061979E-03 6.412256202E-01
 9.779848456E-01 4.676827695E-03 6.769357916E-01
 9.638388157E-01 7.302895654E-03 7.006508225E-01
 9.502390623E-01 9.818310849E-03 7.201830071E-01
 9.367423058E-01 1.232811436E-02 7.432614495E-01
 9.256470799E-01 1.433073264E-02 7.581780923E-01
 9.133437872E-01 1.650094427E-02 7.741176984E-01
 9.015811086E-01 1.850522682E-02 7.869334528E-01
 8.893469572E-01 2.052379027E-02 7.996826945E-01
 8.769397736E-01 2.249651588E-02 8.121307769E-01
 8.645461798E-01 2.435771935E-02 8.175265828E-01
 8.514593840E-01 2.625764906E-02 8.243276501E-01
 8.399387002E-01 2.788716741E-02 8.321323348E-01
 8.275515437E-01 2.954473533E-02 8.309651575E-01
 8.141525984E-01 3.134525567E-02 8.401526593E-01
 8.010456562E-01 3.306093812E-02 8.487071974E-01
 7.882397175E-01 3.466436267E-02 8.510349962E-01
 7.754130960E-01 3.623974696E-02 8.542700730E-01
 7.629830837E-01 3.776556998E-02 8.636190634E-01
 7.494957447E-01 3.938255459E-02 8.739570016E-01
 7.350861430E-01 4.102485999E-02 8.783565844E-01
 7.240074873E-01 4.225580394E-02 8.825226334E-01
 7.126753926E-01 4.349531233E-02 8.885911313E-01
 7.008268237E-01 4.476577789E-02 8.969515985E-01
 6.869589686E-01 4.620839655E-02 9.064808758E-01
 6.735258698E-01 4.753265902E-02 9.142292987E-01
 6.635529995E-01 4.849398509E-02 9.198657903E-01
 6.516504884E-01 4.957968742E-02 9.245687501E-01
 6.399333477E-01 5.061823130E-02 9.316451063E-01
 6.279911399E-01 5.162905157E-02 9.401191603E-01
 6.168707609E-01 5.253377929E-02 9.498799382E-01
 6.055811644E-01 5.338738486E-02 9.529841312E-01
 5.927315950E-01 5.430779606E-02 9.620657078E-01
 5.810267925E-01 5.509644747E-02 9.694255865E-01
 5.676159859E-01 5.591075867E-02 9.756207970E-01
 5.553818345E-01 5.661112815E-02 9.854473444E-01
 5.432440042E-01 5.720715225E-02 9.863134955E-01
 5.326642394E-01 5.769713596E-02 9.939819823E-01
 5.210966468E-01 5.815915391E-02 9.974748956E-01
 5.084376931E-01 5.860321969E-02 1.002479113E+00
 4.972751737E-01 5.892177299E-02 9.977379625E-01
 4.842001498E-01 5.921705812E-02 9.938743432E-01
 4.710732996E-01 5.945702270E-02 9.929989043E-01
 4.569495320E-01 5.961917341E-02 9.909706190E-01
 4.436476231E-01 5.971205235E-02 9.934413101E-01
 4.308537543E-01 5.971471220E-02 9.874298621E-01
 4.179771543E-01 5.963835865E-02 9.799293470E-01
 4.057529569E-01 5.951012671E-02 9.760468571E-01
 3.938801885E-01 5.933013186E-02 9.731402575E-01
 3.816456199E-01 5.908621475E-02 9.711599265E-01
 3.705140948E-01 5.880365893E-02 9.647813450E-01
 3.576469719E-01 5.840958282E-02 9.571426331E-01
 3.455942869E-01 5.798765644E-02 9.536360602E-01
 3.331067264E-01 5.750150606E-02 9.521306719E-01
 3.220746219E-01 5.699671060E-02 9.430804774E-01
 3.097754121E-01 5.639262870E-02 9.391152879E-01
 2.963766754E-01 5.566833168E-02 9.340597083E-01
 2.822929919E-01 5.482437089E-02 9.284661927E-01
 2.693771720E-01 5.398403108E-02 9.248176329E-01
 2.571939528E-01 5.311902612E-02 9.186484069E-01
 2.443272918E-01 5.213341489E-02 9.115235286E-01
 2.315049171E-01 5.108610541E-02 9.060598303E-01
 2.190246433E-01 5.000311509E-02 9.021064621E-01
 2.073045820E-01 4.892136529E-02 8.979947845E-01
 1.957749724E-01 4.777900130E-02 8.902109500E-01
 1.832096279E-01 4.646886885E-02 8.846122216E-01
 1.711223125E-01 4.513087869E-02 8.786528399E-01
 1.595945805E-01 4.379435629E-02 8.752886727E-01
 1.474305242E-01 4.228162766E-02 8.677537951E-01
 1.366550177E-01 4.087311774E-02 8.623416748E-01
 1.250033379E-01 3.925792128E-02 8.558250728E-01
 1.133300513E-01 3.754297644E-02 8.499873941E-01
 1.024585888E-01 3.584099934E-02 8.436908672E-01
 9.236485511E-02 3.416635096E-02 8.365700599E-01
 8.099901676E-02 3.214797005E-02 8.280899990E-01
 6.899300218E-02 2.984836139E-02 8.183576500E-01
 5.919160694E-02 2.780814841E-02 8.123531208E-01
 4.933430627E-02 2.556731179E-02 7.997115670E-01
 4.075783491E-02 2.343878895E-02 7.894223040E-01
 3.356264532E-02 2.147138119E-02 7.770211223E-01
 2.735323645E-02 1.959904097E-02 7.633238244E-01
 2.196886577E-02 1.780713722E-02 7.498669460E-01
 1.816721447E-02 1.641041972E-02 7.343458723E-01
 1.463027857E-02 1.498807687E-02 7.178023793E-01
 1.199488807E-02 1.382096577E-02 6.994178069E-01
 9.624851868E-03 1.267606672E-02 6.800428601E-01
 7.902733050E-03 1.175983623E-02 6.614863230E-01
 6.370869931E-03 1.088104676E-02 6.448857650E-01
 4.946775734E-03 9.980018251E-03 6.138407878E-01
 3.048803657E-03 8.625075221E-03 5.671479538E-01
 1.385974465E-03 7.204202935E-03 5.201588618E-01
 -1.598915878E-05 5.691858940E-03 4.255820425E-01
 -1.355267130E-03 3.619198687E-03 2.944193569E-01
 -1.936512068E-03 1.994951162E-03 1.639692867E-01
 -2.114345552E-03 7.148697623E-04 4.188822433E-02
 -2.032609656E-03 -7.005878724E-04 9.164884817E-02
 -1.623570686E-03 -2.211606130E-03 2.171228924E-01
 -7.404371281E-04 -3.978033084E-03 3.373620038E-01
 6.376518868E-04 -5.806740839E-03 4.387831739E-01
 2.583592897E-03 -7.722762879E-03 5.228305556E-01
 4.311896395E-03 -9.101633914E-03 5.808569461E-01
 6.340353750E-03 -1.049448363E-02 6.197663736E-01
 7.882545702E-03 -1.144115068E-02 6.501320349E-01
 9.878819808E-03 -1.255496591E-02 6.741560955E-01
 1.218815055E-02 -1.372290403E-02 6.967526589E-01
 1.538634673E-02 -1.518080570E-02 7.206189429E-01
 1.833928563E-02 -1.640320756E-02 7.420482334E-01
 2.217067033E-02 -1.784306392E-02 7.570837651E-01
 2.754416689E-02 -1.965500414E-02 7.724905419E-01
 3.330080956E-02 -2.140162326E-02 7.876820583E-01
 4.075915739E-02 -2.342769317E-02 7.994709092E-01
 4.834811762E-02 -2.527853101E-02 8.083118113E-01
 5.751042068E-02 -2.731722780E-02 8.157542870E-01
 6.628300995E-02 -2.909604460E-02 8.227732002E-01
 7.643109560E-02 -3.099897504E-02 8.295848751E-01
 8.659324795E-02 -3.276483342E-02 8.354153777E-01
 9.686627984E-02 -3.443121910E-02 8.409315249E-01
 1.077611223E-01 -3.607944399E-02 8.454601208E-01
 1.192230657E-01 -3.770775720E-02 8.504634951E-01
 1.307130903E-01 -3.924552351E-02 8.560043633E-01
 1.415335834E-01 -4.061714560E-02 8.627683955E-01
 1.526661217E-01 -4.194521159E-02 8.674341715E-01
 1.648755968E-01 -4.332371056E-02 8.735094336E-01
 1.765324175E-01 -4.456057400E-02 8.792423083E-01
 1.885349751E-01 -4.576468840E-02 8.855701686E-01
 1.993160248E-01 -4.678617790E-02 8.927706185E-01
 2.107346654E-01 -4.780098423E-02 8.990136639E-01
 2.232427001E-01 -4.883866757E-02 9.063163464E-01
 2.362254113E-01 -4.983019456E-02 9.140791219E-01
 2.488121241E-01 -5.070753396E-02 9.215996079E-01
 2.617304027E-01 -5.152690038E-02 9.300594895E-01
 2.730212808E-01 -5.216709524E-02 9.383603777E-01
 2.860949039E-01 -5.281556398E-02 9.446687504E-01
 2.991091907E-01 -5.337185040E-02 9.545514756E-01
 3.121015728E-01 -5.381958559E-02 9.631278980E-01
 3.239637315E-01 -5.413515493E-02 9.708254438E-01
 3.364242911E-01 -5.436268076E-02 9.753913775E-01
 3.474673033E-01 -5.448716506E-02 9.845805810E-01
 3.588127792E-01 -5.451381579E-02 9.903211569E-01
 3.697033226E-01 -5.444025621E-02 9.906229778E-01
 3.803913593E-01 -5.428870395E-02 9.932456988E-01
 3.916102052E-01 -5.400779471E-02 9.851766870E-01
 4.044292271E-01 -5.357570574E-02 9.741005229E-01
 4.168362617E-01 -5.305176228E-02 9.730372301E-01
 4.297162592E-01 -5.235115439E-02 9.618433263E-01
 4.422822893E-01 -5.153119564E-02 9.447802297E-01
 4.546314776E-01 -5.061537400E-02 9.317210885E-01
 4.666441381E-01 -4.961064085E-02 9.179871324E-01
 4.789611399E-01 -4.846232384E-02 8.989074199E-01
 4.903122187E-01 -4.734238982E-02 8.877296640E-01
 5.027803183E-01 -4.600443691E-02 8.701778629E-01
 5.165324211E-01 -4.445060343E-02 8.551341042E-01
 5.301793814E-01 -4.281137884E-02 8.390039587E-01
 5.438584685E-01 -4.108343273E-02 8.213420744E-01
 5.569522977E-01 -3.938752785E-02 8.068338221E-01
 5.698930025E-01 -3.769668564E-02 7.971717609E-01
 5.829494596E-01 -3.592801467E-02 7.833582462E-01
 5.945034027E-01 -3.433915973E-02 7.714137090E-01
 6.066242456E-01 -3.266862407E-02 7.605747912E-01
 6.207120419E-01 -3.074079379E-02 7.521025598E-01
 6.348558664E-01 -2.876020782E-02 7.382063546E-01
 6.494125724E-01 -2.676416561E-02 7.307900675E-01
 6.625048518E-01 -2.494643256E-02 7.205070395E-01
 6.757062674E-01 -2.311998233E-02 7.109194883E-01
 6.880760789E-01 -2.142435126E-02 7.014733723E-01
 7.008296847E-01 -1.973122358E-02 6.970526493E-01
 7.148615122E-01 -1.784175076E-02 6.858472871E-01
 7.279127836E-01 -1.615082659E-02 6.810018848E-01
 7.393425703E-01 -1.463964954E-02 6.693100715E-01
 7.521167397E-01 -1.306248456E-02 6.671435901E-01
 7.638875842E-01 -1.158354804E-02 6.559376652E-01
 7.769556046E-01 -1.006230339E-02 6.542165794E-01
 7.880703807E-01 -8.736710064E-03 6.437319810E-01
 8.007160425E-01 -7.336764596E-03 6.397213744E-01
 8.115974665E-01 -6.146504544E-03 6.317468308E-01
 8.231191635E-01 -4.950292408E-03 6.248252336E-01
 8.359299302E-01 -3.724164329E-03 6.195192826E-01
 8.483181596E-01 -2.624572255E-03 6.142316519E-01
 8.602151871E-01 -1.640011789E-03 6.075391666E-01
 8.725903630E-01 -7.494356250E-04 6.036854749E-01
 8.849881887E-01 2.801095252E-05 5.995438414E-01
 8.986151814E-01 7.214600919E-04 5.967521604E-01
 9.088634849E-01 1.136461855E-03 5.949318347E-01
 9.188985825E-01 1.450806973E-03 5.942334021E-01
 9.284716845E-01 1.652792562E-03 5.935985285E-01
 9.367398620E-01 1.763283974E-03 5.936743176E-01
 9.490077496E-01 1.808132627E-03 5.951507963E-01
 9.618748426E-01 1.714317012E-03 5.962172451E-01
 9.766322374E-01 1.434946666E-03 5.967990465E-01
 9.890242219E-01 1.033928362E-03 5.959714588E-01
 -5.000000000E-01 -1.000000000E+00 7.245352535E-01
 3.500000000E+00 -1.000000000E+00 7.283471270E-01
 3.500000000E+00 1.000000000E+00 7.144889744E-01
 -5.000000000E-01 1.000000000E+00 7.249755771E-01
 9.946150780E-01 1.535314746E-03 6.210427616E-01
 9.835826457E-01 3.610444837E-03 6.602452255E-01
 9.709118307E-01 5.989861675E-03 6.894412050E-01
 9.570389390E-01 8.560603252E-03 7.103853421E-01
 9.434906840E-01 1.107321260E-02 7.322079537E-01
 9.311946929E-01 1.332942350E-02 7.510278994E-01
 9.194954336E-01 1.541583845E-02 7.663718268E-01
 9.074624479E-01 1.750308555E-02 7.807093719E-01
 8.954640329E-01 1.951450855E-02 7.932201314E-01
 8.831433654E-01 2.151015308E-02 8.066002638E-01
 8.707429767E-01 2.342711762E-02 8.150582352E-01
 8.580027819E-01 2.530768421E-02 8.203977129E-01
 8.456990421E-01 2.707240824E-02 8.294098212E-01
 8.337451220E-01 2.871595137E-02 8.307011327E-01
 8.208520710E-01 3.044499550E-02 8.351211808E-01
 8.075991273E-01 3.220309690E-02 8.450748053E-01
 7.946426868E-01 3.386265039E-02 8.501032815E-01
 7.818264067E-01 3.545205481E-02 8.520142859E-01
 7.691980898E-01 3.700265847E-02 8.585976572E-01
 7.562394142E-01 3.857406229E-02 8.694899061E-01
 7.422909439E-01 4.020370729E-02 8.761503076E-01
 7.295468152E-01 4.164033197E-02 8.803970870E-01
 7.183414400E-01 4.287555814E-02 8.853532953E-01
 7.067511082E-01 4.413054511E-02 8.924821491E-01
 6.938928962E-01 4.548708722E-02 9.023805552E-01
 6.802424192E-01 4.687052779E-02 9.089975734E-01
 6.576017439E-01 4.903683625E-02 9.222726043E-01
 6.457919180E-01 5.009895936E-02 9.282227980E-01
 6.339622438E-01 5.112364143E-02 9.351210708E-01
 6.224309504E-01 5.208141543E-02 9.460726135E-01
 6.112259626E-01 5.296058208E-02 9.512825705E-01
 5.991563797E-01 5.384759046E-02 9.566512379E-01
 5.868791938E-01 5.470212176E-02 9.671826476E-01
 5.743213892E-01 5.550360307E-02 9.707028286E-01
 5.614989102E-01 5.626094341E-02 9.826772064E-01
 5.493129194E-01 5.690914020E-02 9.843399571E-01
 5.379541218E-01 5.745214410E-02 9.911765904E-01
 5.268804431E-01 5.792814493E-02 9.952409351E-01
 5.147671700E-01 5.838118680E-02 1.000712295E+00
 5.028564334E-01 5.876249634E-02 1.001205662E+00
 4.907376617E-01 5.906941555E-02 9.946364179E-01
 4.776367247E-01 5.933704041E-02 9.944167828E-01
 4.640114158E-01 5.953809805E-02 9.906991854E-01
 4.502985775E-01 5.966561288E-02 9.930516582E-01
 4.372506887E-01 5.971338227E-02 9.911617881E-01
 4.244154543E-01 5.967653543E-02 9.831325631E-01
 4.118650556E-01 5.957424268E-02 9.777453658E-01
 3.998165727E-01 5.942012928E-02 9.745650311E-01
 3.877629042E-01 5.920817330E-02 9.722292805E-01
 3.760798573E-01 5.894493684E-02 9.687470423E-01
 3.640805334E-01 5.860662088E-02 9.605185319E-01
 3.516206294E-01 5.819861963E-02 9.547099495E-01
 3.393505067E-01 5.774458125E-02 9.537822258E-01
 3.275906742E-01 5.724910833E-02 9.473894528E-01
 3.159250170E-01 5.669466965E-02 9.409816919E-01
 3.030760437E-01 5.603048019E-02 9.369393414E-01
 2.893348336E-01 5.524635129E-02 9.308613378E-01
 2.758350819E-01 5.440420099E-02 9.266985038E-01
 2.632855624E-01 5.355152860E-02 9.221298726E-01
 2.507606223E-01 5.262622051E-02 9.149182701E-01
 2.379161045E-01 5.160976015E-02 9.086094542E-01
 2.252647802E-01 5.054461025E-02 9.038179870E-01
 2.131646127E-01 4.946224019E-02 9.006124870E-01
 2.015397772E-01 4.835018329E-02 8.939967844E-01
 1.894923002E-01 4.712393507E-02 8.874744481E-01
 1.771659702E-01 4.579987377E-02 8.811247364E-01
 1.653584465E-01 4.446261749E-02 8.776458261E-01
 1.535125524E-01 4.303799197E-02 8.711064551E-01
 1.420427710E-01 4.157737270E-02 8.653810788E-01
 1.308291778E-01 4.006551951E-02 8.590713131E-01
 1.191666946E-01 3.840044886E-02 8.528326320E-01
 1.078943200E-01 3.669198789E-02 8.467199311E-01
 9.741172194E-02 3.500367515E-02 8.408264609E-01
 8.668193594E-02 3.315716051E-02 8.323212720E-01
 7.499600947E-02 3.099816572E-02 8.239966686E-01
 5.426295660E-02 2.668773010E-02 8.074131224E-01
 7.135705277E-02 -3.004750982E-02 8.265777113E-01
 8.151217178E-02 -3.188190423E-02 8.328190156E-01
 9.172976390E-02 -3.359802626E-02 8.383415098E-01
 1.023137011E-01 -3.525533155E-02 8.432129670E-01
 1.134920940E-01 -3.689360060E-02 8.478999046E-01
 1.249680780E-01 -3.847664036E-02 8.531959833E-01
 1.361233369E-01 -3.993133456E-02 8.595379635E-01
 1.470998526E-01 -4.128117859E-02 8.652834674E-01
 1.587708592E-01 -4.263446108E-02 8.700886078E-01
 1.707040071E-01 -4.394214228E-02 8.767331455E-01
 1.825336963E-01 -4.516263120E-02 8.820569990E-01
 1.939254999E-01 -4.627543315E-02 8.894569456E-01
 2.050253451E-01 -4.729358107E-02 8.958140560E-01
 2.169886827E-01 -4.831982590E-02 9.024437915E-01
 2.297340557E-01 -4.933443107E-02 9.101634082E-01
 2.425187677E-01 -5.026886426E-02 9.179373805E-01
 2.552712634E-01 -5.111721717E-02 9.255062827E-01
 2.673758417E-01 -5.184699781E-02 9.347973692E-01
 2.795580924E-01 -5.249132961E-02 9.411466585E-01
 2.926020473E-01 -5.309370719E-02 9.493065396E-01
 3.056053817E-01 -5.359571800E-02 9.590736525E-01
 3.180326521E-01 -5.397737026E-02 9.673452237E-01
 3.301940113E-01 -5.424891785E-02 9.730302259E-01
 3.419457972E-01 -5.442492291E-02 9.797089895E-01
 3.531400412E-01 -5.450049043E-02 9.880606349E-01
 3.642580509E-01 -5.447703600E-02 9.910626465E-01
 3.750473410E-01 -5.436448008E-02 9.916786641E-01
 3.860007823E-01 -5.414824933E-02 9.911484878E-01
 3.980197161E-01 -5.379175022E-02 9.783735850E-01
 4.106327444E-01 -5.331373401E-02 9.731808428E-01
 4.232762605E-01 -5.270145833E-02 9.691315163E-01
 4.359992743E-01 -5.194117501E-02 9.533425873E-01
 4.484568834E-01 -5.107328482E-02 9.377521421E-01
 4.606378078E-01 -5.011300743E-02 9.254992623E-01
 4.728026390E-01 -4.903648235E-02 9.084930254E-01
 4.846366793E-01 -4.790235683E-02 8.927856392E-01
 4.965462685E-01 -4.667341337E-02 8.797391885E-01
 5.096563697E-01 -4.522752017E-02 8.620243075E-01
 5.233559012E-01 -4.363099113E-02 8.475095655E-01
 5.370189250E-01 -4.194740579E-02 8.300573883E-01
 5.504053831E-01 -4.023548029E-02 8.137077549E-01
 5.634226501E-01 -3.854210675E-02 8.017153264E-01
 5.764212310E-01 -3.681235015E-02 7.906794225E-01
 5.887264311E-01 -3.513358720E-02 7.773168166E-01
 6.005638242E-01 -3.350389190E-02 7.657846015E-01
 6.136681437E-01 -3.170470893E-02 7.563371480E-01
 6.277839541E-01 -2.975050081E-02 7.454282516E-01
 6.421342194E-01 -2.776218671E-02 7.340096155E-01
 6.559587121E-01 -2.585529909E-02 7.259036301E-01
 6.691055596E-01 -2.403320745E-02 7.156774633E-01
 6.818911731E-01 -2.227216680E-02 7.060129519E-01
 6.944528818E-01 -2.057778742E-02 6.991836918E-01
 7.078455985E-01 -1.878648717E-02 6.917624157E-01
 7.213871479E-01 -1.699628867E-02 6.831117483E-01
 7.336276770E-01 -1.539523806E-02 6.752852432E-01
 7.457296550E-01 -1.385106705E-02 6.680272321E-01
 7.580021620E-01 -1.232301630E-02 6.617539864E-01
 7.704215944E-01 -1.082292572E-02 6.547257509E-01
 7.825129926E-01 -9.399506729E-03 6.493783408E-01
 7.943932116E-01 -8.036737330E-03 6.416609057E-01
 8.061567545E-01 -6.741634570E-03 6.357405764E-01
 8.173583150E-01 -5.548398476E-03 6.281799516E-01
 8.295245469E-01 -4.337228369E-03 6.222539815E-01
 8.421240449E-01 -3.174368292E-03 6.168484416E-01
 8.542666733E-01 -2.132292022E-03 6.108385737E-01
 8.664027750E-01 -1.194723707E-03 6.055603358E-01
 8.787892759E-01 -3.607123363E-04 6.013386523E-01
 8.918016851E-01 3.747355222E-04 5.985528864E-01
 9.037393332E-01 9.289609734E-04 5.950917016E-01
 9.428738058E-01 1.785708300E-03 5.946659580E-01
 9.554412961E-01 1.761224819E-03 5.955454777E-01
 9.692535400E-01 1.574631839E-03 5.969903741E-01
 9.828282297E-01 1.234437514E-03 5.949710328E-01
 9.945369661E-01 7.802479377E-04 5.915599387E-01
 -5.000000000E-01 9.500000000E-01 7.229985427E-01
 -5.000000000E-01 9.000000000E-01 7.198632732E-01
 -5.000000000E-01 8.500000000E-01 7.175087557E-01
 -5.000000000E-01 8.000000000E-01 7.154555815E-01
 -5.000000000E-01 7.500000000E-01 7.134670484E-01
 -5.000000000E-01 7.000000000E-01 7.114461422E-01
 -5.000000000E-01 6.500000000E-01 7.094373584E-01
 -5.000000000E-01 6.000000000E-01 7.073763733E-01
 -5.000000000E-01 5.500000000E-01 7.052631946E-01
 -5.000000000E-01 5.000000000E-01 7.030893813E-01
 -5.000000000E-01 4.500000000E-01 7.008825482E-01
 -5.000000000E-01 4.000000000E-01 6.986819959E-01
 -5.000000000E-01 3.500000000E-01 6.965063700E-01
 -5.000000000E-01 3.000000000E-01 6.943877474E-01
 -5.000000000E-01 2.500000000E-01 6.924808114E-01
 -5.000000000E-01 2.000000000E-01 6.907379320E-01
 -5.000000000E-01 1.500000000E-01 6.892947396E-01
 -5.000000000E-01 1.000000000E-01 6.881741747E-01
 -5.000000000E-01 5.000000000E-02 6.874464312E-01
 -5.000000000E-01 2.752242878E-12 6.871653413E-01
 -5.000000000E-01 -5.000000000E-02 6.873009964E-01
 -5.000000000E-01 -1.000000000E-01 6.878529213E-01
 -5.000000000E-01 -1.500000000E-01 6.888316694E-01
 -5.000000000E-01 -2.000000000E-01 6.901226914E-01
 -5.000000000E-01 -2.500000000E-01 6.917085794E-01
 -5.000000000E-01 -3.000000000E-01 6.935379615E-01
 -5.000000000E-01 -3.500000000E-01 6.955052856E-01
 -5.000000000E-01 -4.000000000E-01 6.975603877E-01
 -5.000000000E-01 -4.500000000E-01 6.996802687E-01
 -5.000000000E-01 -5.000000000E-01 7.018460078E-01
 -5.000000000E-01 -5.500000000E-01 7.039425396E-01
 -5.000000000E-01 -6.000000000E-01 7.060356306E-01
 -5.000000000E-01 -6.500000000E-01 7.080881571E-01
 -5.000000000E-01 -7.000000000E-01 7.101259602E-01
 -5.000000000E-01 -7.500000000E-01 7.121758191E-01
 -5.000000000E-01 -8.000000000E-01 7.142679791E-01
 -5.000000000E-01 -8.500000000E-01 7.164865919E-01
 -5.000000000E-01 -9.000000000E-01 7.190342150E-01
 -5.000000000E-01 -9.500000000E-01 7.223930814E-01
 -4.500000000E-01 -1.000000000E+00 7.222396702E-01
 -4.000000000E-01 -1.000000000E+00 7.189843417E-01
 -3.500000000E-01 -1.000000000E+00 7.168495687E-01
 -3.000000000E-01 -1.000000000E+00 7.154530812E-01
 -2.500000000E-01 -1.000000000E+00 7.146149688E-01
 -2.000000000E-01 -1.000000000E+00 7.143272358E-01
 -1.500000000E-01 -1.000000000E+00 7.145553331E-01
 -1.000000000E-01 -1.000000000E+00 7.153089151E-01
 -5.000000000E-02 -1.000000000E+00 7.166146797E-01
 -9.424683256E-13 -1.000000000E+00 7.184169842E-01
 5.000000000E-02 -1.000000000E+00 7.205948453E-01
 1.000000000E-01 -1.000000000E+00 7.231087196E-01
 1.500000000E-01 -1.000000000E+00 7.258907623E-01
 2.000000000E-01 -1.000000000E+00 7.289114276E-01
 2.500000000E-01 -1.000000000E+00 7.320326796E-01
 3.000000000E-01 -1.000000000E+00 7.349468451E-01
 3.500000000E-01 -1.000000000E+00 7.373909528E-01
 4.000000000E-01 -1.000000000E+00 7.393659491E-01
 4.500000000E-01 -1.000000000E+00 7.407769102E-01
 5.000000000E-01 -1.000000000E+00 7.414878657E-01
 5.500000000E-01 -1.000000000E+00 7.415042147E-01
 6.000000000E-01 -1.000000000E+00 7.409051367E-01
 6.500000000E-01 -1.000000000E+00 7.397452874E-01
 7.000000000E-01 -1.000000000E+00 7.380547782E-01
 7.500000000E-01 -1.000000000E+00 7.360458938E-01
 8.000000000E-01 -1.000000000E+00 7.338612660E-01
 8.500000000E-01 -1.000000000E+00 7.315391915E-01
 9.000000000E-01 -1.000000000E+00 7.292004569E-01
 9.500000000E-01 -1.000000000E+00 7.268674375E-01
 1.000000000E+00 -1.000000000E+00 7.246685725E-01
 1.050000000E+00 -1.000000000E+00 7.225881522E-01
 1.100000000E+00 -1.000000000E+00 7.208328834E-01
 1.150000000E+00 -1.000000000E+00 7.193011305E-01
 1.200000000E+00 -1.000000000E+00 7.180502448E-01
 1.250000000E+00 -1.000000000E+00 7.170131716E-01
 1.300000000E+00 -1.000000000E+00 7.162053221E-01
 1.350000000E+00 -1.000000000E+00 7.156697383E-01
 1.400000000E+00 -1.000000000E+00 7.153284127E-01
 1.450000000E+00 -1.000000000E+00 7.151349584E-01
 1.500000000E+00 -1.000000000E+00 7.150999382E-01
 1.550000000E+00 -1.000000000E+00 7.151454704E-01
 1.600000000E+00 -1.000000000E+00 7.152162410E-01
 1.650000000E+00 -1.000000000E+00 7.154740086E-01
 1.700000000E+00 -1.000000000E+00 7.157979656E-01
 1.750000000E+00 -1.000000000E+00 7.160914624E-01
 1.800000000E+00 -1.000000000E+00 7.165159682E-01
 1.850000000E+00 -1.000000000E+00 7.168725830E-01
 1.900000000E+00 -1.000000000E+00 7.172980003E-01
 1.950000000E+00 -1.000000000E+00 7.177768844E-01
 2.000000000E+00 -1.000000000E+00 7.181597068E-01
 2.050000000E+00 -1.000000000E+00 7.185953639E-01
 2.100000000E+00 -1.000000000E+00 7.190383880E-01
 2.150000000E+00 -1.000000000E+00 7.194286369E-01
 2.200000000E+00 -1.000000000E+00 7.197796056E-01
 2.250000000E+00 -1.000000000E+00 7.201888598E-01
 2.300000000E+00 -1.000000000E+00 7.205601973E-01
 2.350000000E+00 -1.000000000E+00 7.209020849E-01
 2.400000000E+00 -1.000000000E+00 7.212766722E-01
 2.450000000E+00 -1.000000000E+00 7.215794475E-01
 2.500000000E+00 -1.000000000E+00 7.218278100E-01
 2.550000000E+00 -1.000000000E+00 7.220847088E-01
 2.600000000E+00 -1.000000000E+00 7.223512722E-01
 2.650000000E+00 -1.000000000E+00 7.225995034E-01
 2.700000000E+00 -1.000000000E+00 7.227793462E-01
 2.750000000E+00 -1.000000000E+00 7.229942956E-01
 2.800000000E+00 -1.000000000E+00 7.232018023E-01
 2.850000000E+00 -1.000000000E+00 7.233715883E-01
 2.900000000E+00 -1.000000000E+00 7.235182712E-01
 2.950000000E+00 -1.000000000E+00 7.236672899E-01
 3.000000000E+00 -1.000000000E+00 7.237858513E-01
 3.050000000E+00 -1.000000000E+00 7.238779089E-01
 3.100000000E+00 -1.000000000E+00 7.239965379E-01
 3.150000000E+00 -1.000000000E+00 7.241411252E-01
 3.200000000E+00 -1.000000000E+00 7.242605705E-01
 3.250000000E+00 -1.000000000E+00 7.244041900E-01
 3.300000000E+00 -1.000000000E+00 7.246065972E-01
 3.350000000E+00 -1.000000000E+00 7.249322955E-01
 3.400000000E+00 -1.000000000E+00 7.253118377E-01
 3.450000000E+00 -1.000000000E+00 7.263108704E-01
 3.500000000E+00 -9.500000000E-01 7.296250044E-01
 3.500000000E+00 -9.000000000E-01 7.302831352E-01
 3.500000000E+00 -8.500000000E-01 7.306468965E-01
 3.500000000E+00 -8.000000000E-01 7.309609193E-01
 3.500000000E+00 -7.500000000E-01 7.312214388E-01
 3.500000000E+00 -7.000000000E-01 7.314506637E-01
 3.500000000E+00 -6.500000000E-01 7.316897195E-01
 3.500000000E+00 -6.000000000E-01 7.319730144E-01
 3.500000000E+00 -5.500000000E-01 7.322489647E-01
 3.500000000E+00 -5.000000000E-01 7.325320670E-01
 3.500000000E+00 -4.500000000E-01 7.328132185E-01
 3.500000000E+00 -4.000000000E-01 7.331044571E-01
 3.500000000E+00 -3.500000000E-01 7.334018270E-01
 3.500000000E+00 -3.000000000E-01 7.336853175E-01
 3.500000000E+00 -2.500000000E-01 7.339363938E-01
 3.500000000E+00 -2.000000000E-01 7.341361845E-01
 3.500000000E+00 -1.500000000E-01 7.342445175E-01
 3.500000000E+00 -1.000000000E-01 7.342717615E-01
 3.500000000E+00 -5.000000000E-02 7.342680644E-01
 3.500000000E+00 -2.752242878E-12 7.342604845E-01
 3.500000000E+00 5.000000000E-02 7.342218311E-01
 3.500000000E+00 1.000000000E-01 7.340765911E-01
 3.500000000E+00 1.500000000E-01 7.338813951E-01
 3.500000000E+00 2.000000000E-01 7.336396370E-01
 3.500000000E+00 2.500000000E-01 7.333411320E-01
 3.500000000E+00 3.000000000E-01 7.330527083E-01
 3.500000000E+00 3.500000000E-01 7.327667560E-01
 3.500000000E+00 4.000000000E-01 7.324884222E-01
 3.500000000E+00 4.500000000E-01 7.321723898E-01
 3.500000000E+00 5.000000000E-01 7.318133192E-01
 3.500000000E+00 5.500000000E-01 7.314488174E-01
 3.500000000E+00 6.000000000E-01 7.312310651E-01
 3.500000000E+00 6.500000000E-01 7.313343480E-01
 3.500000000E+00 7.000000000E-01 7.316727652E-01
 3.500000000E+00 7.500000000E-01 7.318263599E-01
 3.500000000E+00 8.000000000E-01 7.311186778E-01
 3.500000000E+00 8.500000000E-01 7.290275171E-01
 3.500000000E+00 9.000000000E-01 7.255685066E-01
 3.500000000E+00 9.500000000E-01 7.208934374E-01
 3.450000000E+00 1.000000000E+00 7.053704611E-01
 3.400000000E+00 1.000000000E+00 7.017135693E-01
 3.350000000E+00 1.000000000E+00 7.011595190E-01
 3.300000000E+00 1.000000000E+00 7.010853985E-01
 3.250000000E+00 1.000000000E+00 7.010037669E-01
 3.200000000E+00 1.000000000E+00 7.012504798E-01
 3.150000000E+00 1.000000000E+00 7.014819074E-01
 3.100000000E+00 1.000000000E+00 7.016741850E-01
 3.050000000E+00 1.000000000E+00 7.019172185E-01
 3.000000000E+00 1.000000000E+00 7.020844179E-01
 2.950000000E+00 1.000000000E+00 7.023282824E-01
 2.900000000E+00 1.000000000E+00 7.028010450E-01
 2.850000000E+00 1.000000000E+00 7.031870103E-01
 2.800000000E+00 1.000000000E+00 7.033887774E-01
 2.750000000E+00 1.000000000E+00 7.037734249E-01
 2.700000000E+00 1.000000000E+00 7.038872200E-01
 2.650000000E+00 1.000000000E+00 7.041540705E-01
 2.600000000E+00 1.000000000E+00 7.045433412E-01
 2.550000000E+00 1.000000000E+00 7.049714819E-01
 2.500000000E+00 1.000000000E+00 7.053243695E-01
 2.450000000E+00 1.000000000E+00 7.053620415E-01
 2.400000000E+00 1.000000000E+00 7.059966521E-01
 2.350000000E+00 1.000000000E+00 7.070558516E-01
 2.300000000E+00 1.000000000E+00 7.073534651E-01
 2.250000000E+00 1.000000000E+00 7.075617033E-01
 2.200000000E+00 1.000000000E+00 7.077913358E-01
 2.150000000E+00 1.000000000E+00 7.081657635E-01
 2.100000000E+00 1.000000000E+00 7.084824318E-01
 2.050000000E+00 1.000000000E+00 7.090318366E-01
 2.000000000E+00 1.000000000E+00 7.101784096E-01
 1.950000000E+00 1.000000000E+00 7.108550706E-01
 1.900000000E+00 1.000000000E+00 7.115706929E-01
 1.850000000E+00 1.000000000E+00 7.122456390E-01
 1.800000000E+00 1.000000000E+00 7.129840532E-01
 1.750000000E+00 1.000000000E+00 7.139801421E-01
 1.700000000E+00 1.000000000E+00 7.149243807E-01
 1.650000000E+00 1.000000000E+00 7.158648213E-01
 1.600000000E+00 1.000000000E+00 7.169964563E-01
 1.550000000E+00 1.000000000E+00 7.184594555E-01
 1.500000000E+00 1.000000000E+00 7.196970964E-01
 1.450000000E+00 1.000000000E+00 7.215842734E-01
 1.400000000E+00 1.000000000E+00 7.230729742E-01
 1.350000000E+00 1.000000000E+00 7.248400186E-01
 1.300000000E+00 1.000000000E+00 7.273686408E-01
 1.250000000E+00 1.000000000E+00 7.311153358E-01
 1.200000000E+00 1.000000000E+00 7.337935878E-01
 1.150000000E+00 1.000000000E+00 7.370152133E-01
 1.100000000E+00 1.000000000E+00 7.400274570E-01
 1.050000000E+00 1.000000000E+00 7.435587287E-01
 1.000000000E+00 1.000000000E+00 7.469275816E-01
 9.500000000E-01 1.000000000E+00 7.493943145E-01
 9.000000000E-01 1.000000000E+00 7.535820687E-01
 8.500000000E-01 1.000000000E+00 7.572843504E-01
 8.000000000E-01 1.000000000E+00 7.602584509E-01
 7.500000000E-01 1.000000000E+00 7.619778109E-01
 7.000000000E-01 1.000000000E+00 7.637956259E-01
 6.500000000E-01 1.000000000E+00 7.646992901E-01
 6.000000000E-01 1.000000000E+00 7.652845788E-01
 5.500000000E-01 1.000000000E+00 7.639113175E-01
 5.000000000E-01 1.000000000E+00 7.620175464E-01
 4.500000000E-01 1.000000000E+00 7.597820359E-01
 4.000000000E-01 1.000000000E+00 7.562158170E-01
 3.500000000E-01 1.000000000E+00 7.523117287E-01
 3.000000000E-01 1.000000000E+00 7.478546387E-01
 2.500000000E-01 1.000000000E+00 7.432885510E-01
 2.000000000E-01 1.000000000E+00 7.386747191E-01
 1.500000000E-01 1.000000000E+00 7.341988652E-01
 1.000000000E-01 1.000000000E+00 7.298756983E-01
 5.000000000E-02 1.000000000E+00 7.261264486E-01
 1.733724275E-12 1.000000000E+00 7.229503527E-01
 -5.000000000E-02 1.000000000E+00 7.203702919E-01
 -1.000000000E-01 1.000000000E+00 7.184485284E-01
 -1.500000000E-01 1.000000000E+00 7.171207849E-01
 -2.000000000E-01 1.000000000E+00 7.164451870E-01
 -2.500000000E-01 1.000000000E+00 7.164393722E-01
 -3.000000000E-01 1.000000000E+00 7.169807182E-01
 -3.500000000E-01 1.000000000E+00 7.181378019E-01
 -4.000000000E-01 1.000000000E+00 7.200260278E-01
 -4.500000000E-01 1.000000000E+00 7.228977822E-01
 9.853798187E-01 -3.653323757E-03 6.009107338E-01
 9.013569583E-01 -3.612435018E-03 5.989121856E-01
 8.213397358E-01 -1.017839680E-02 6.283049143E-01
 7.490946160E-01 -1.803053251E-02 6.682409933E-01
 6.792553227E-01 -2.719155322E-02 7.092574844E-01
 6.110748418E-01 -3.783888312E-02 7.583448871E-01
 5.411710573E-01 -4.731306735E-02 8.240894994E-01
 4.762380497E-01 -5.388550812E-02 9.008353563E-01
 4.201425022E-01 -5.831220537E-02 9.657047975E-01
 3.615591369E-01 -5.885010074E-02 9.869923587E-01
 3.089307251E-01 -5.869410406E-02 9.583445453E-01
 2.518812296E-01 -5.531200165E-02 9.212528683E-01
 1.909569271E-01 -5.058674975E-02 8.855284836E-01
 1.328242838E-01 -4.427383999E-02 8.552906084E-01
 7.770524103E-02 -3.626775536E-02 8.254802326E-01
 4.306583858E-02 -3.063789111E-02 7.903271993E-01
 1.972761056E+00 -9.579781257E-01 7.194236451E-01
 1.970259227E+00 9.584024510E-01 7.195649410E-01
 9.874256220E-01 8.003297348E-03 6.545375140E-01