TITLE     = "Visualization of the solution"
VARIABLES = "x"
"y"
"Mach"
ZONE T="Zone"
 STRANDID=0, SOLUTIONTIME=0
 Nodes=11868, Elements=23156, ZONETYPE=FEQuadrilateral
 DATAPACKING=POINT
 DT=(DOUBLE DOUBLE DOUBLE )
 9.997640848E-01 5.088101025E-04 5.270375852E-01
 9.858874679E-01 3.346369136E-03 6.462827100E-01
 9.722406864E-01 6.073674187E-03 6.707772719E-01
 9.553304911E-01 9.522580542E-03 6.971595464E-01
 9.404414892E-01 1.251077093E-02 7.134751750E-01
 9.267475605E-01 1.528858300E-02 7.322588562E-01
 9.151862860E-01 1.759062335E-02 7.428833637E-01
 9.037864208E-01 1.989286765E-02 7.622072911E-01
 8.920430541E-01 2.216736041E-02 7.721966462E-01
 8.801418543E-01 2.441955730E-02 7.792791521E-01
 8.682428002E-01 2.669714764E-02 7.972584334E-01
 8.558272123E-01 2.895344049E-02 8.020752998E-01
 8.440122604E-01 3.109589778E-02 8.133062436E-01
 8.331574798E-01 3.303958476E-02 8.259167565E-01
 8.217011094E-01 3.503001109E-02 8.354557525E-01
 8.092748523E-01 3.711197153E-02 8.413446249E-01
 7.966455817E-01 3.917907178E-02 8.469280548E-01
 7.844129205E-01 4.115236178E-02 8.537094897E-01
 7.724003792E-01 4.308909923E-02 8.679031779E-01
 7.611111999E-01 4.485887289E-02 8.786841076E-01
 7.482429147E-01 4.680141062E-02 8.857935353E-01
 7.349886894E-01 4.875265062E-02 8.956874896E-01
 7.242990136E-01 5.027477816E-02 9.009854092E-01
 7.129973769E-01 5.185446888E-02 9.091292702E-01
 7.012881041E-01 5.345550179E-02 9.195535204E-01
 6.882309914E-01 5.517890304E-02 9.298819951E-01
 6.755295396E-01 5.678740144E-02 9.373493266E-01
 6.649589539E-01 5.807396770E-02 9.424902443E-01
 6.533619165E-01 5.944988504E-02 9.535727393E-01
 6.418515444E-01 6.073886529E-02 9.468286947E-01
 6.302170753E-01 6.196745485E-02 9.143857872E-01
 6.186904311E-01 6.314924359E-02 9.809129228E-01
 6.082537770E-01 6.414568424E-02 1.154542444E+00
 5.964697003E-01 6.521331519E-02 1.143099478E+00
 5.850916505E-01 6.616657227E-02 1.127459747E+00
 5.718925595E-01 6.717514247E-02 1.127865340E+00
 5.596432686E-01 6.805473566E-02 1.121669063E+00
 5.473071933E-01 6.882464141E-02 1.113097022E+00
 5.361928940E-01 6.946866214E-02 1.111544315E+00
 5.246629119E-01 7.007399201E-02 1.104152748E+00
 5.123681426E-01 7.062411308E-02 1.095739347E+00
 5.013942122E-01 7.104489207E-02 1.085172910E+00
 4.883407354E-01 7.144433260E-02 1.077765811E+00
 4.750020802E-01 7.177499682E-02 1.072360960E+00
 4.613670111E-01 7.202299684E-02 1.067358948E+00
 4.480690062E-01 7.220371068E-02 1.060563276E+00
 4.352635145E-01 7.226369530E-02 1.047530010E+00
 4.224497080E-01 7.225701958E-02 1.042960737E+00
 4.097729325E-01 7.216805965E-02 1.038425090E+00
 3.970710635E-01 7.202087343E-02 1.035205916E+00
 3.848500252E-01 7.180014253E-02 1.024060832E+00
 3.728652894E-01 7.151030004E-02 1.012329598E+00
 3.595979214E-01 7.111237943E-02 1.010107963E+00
 3.468752801E-01 7.068181783E-02 1.012575646E+00
 3.337348402E-01 7.013875246E-02 1.005072433E+00
 3.228452504E-01 6.961807609E-02 9.930911572E-01
 3.102123439E-01 6.894599646E-02 9.871638503E-01
 2.971968949E-01 6.819411367E-02 9.850693393E-01
 2.832529843E-01 6.727758795E-02 9.760882198E-01
 2.711731791E-01 6.640309095E-02 9.702459599E-01
 2.592534721E-01 6.548565626E-02 9.676241747E-01
 2.468882054E-01 6.443019211E-02 9.577819010E-01
 2.344579399E-01 6.329887360E-02 9.532246509E-01
 2.222152352E-01 6.209988520E-02 9.485835155E-01
 2.103255391E-01 6.084132195E-02 9.409366164E-01
 1.983622611E-01 5.948317796E-02 9.320751696E-01
 1.858382374E-01 5.796891078E-02 9.255680339E-01
 1.740543842E-01 5.644701049E-02 9.185631252E-01
 1.623606533E-01 5.483670160E-02 9.114775097E-01
 1.505915374E-01 5.311147124E-02 9.050034438E-01
 1.397543848E-01 5.140022188E-02 8.932378670E-01
 1.282159090E-01 4.948263988E-02 8.864743569E-01
 1.170561537E-01 4.749212041E-02 8.770864591E-01
 1.064598113E-01 4.548598826E-02 8.669277349E-01
 9.660340846E-02 4.349263385E-02 8.588424270E-01
 8.589733392E-02 4.117841274E-02 8.458873533E-01
 7.471632212E-02 3.857030720E-02 8.316577972E-01
 6.500226259E-02 3.612086177E-02 8.170238385E-01
 5.540530384E-02 3.349538147E-02 8.027545500E-01
 4.669940099E-02 3.090479784E-02 7.874807809E-01
 3.906461969E-02 2.842784673E-02 7.702482590E-01
 3.226782009E-02 2.602258325E-02 7.510553806E-01
 2.642110363E-02 2.375726961E-02 7.331913421E-01
 2.211332321E-02 2.194497921E-02 7.151150759E-01
 1.797820069E-02 2.004822530E-02 6.950319980E-01
 1.470914390E-02 1.840745658E-02 6.728427707E-01
 1.177451480E-02 1.679638959E-02 6.518390086E-01
 9.644922800E-03 1.552192308E-02 6.326685689E-01
 7.735604886E-03 1.428117603E-02 6.098251757E-01
 5.975172855E-03 1.301913708E-02 5.774961975E-01
 3.745639697E-03 1.120742224E-02 5.333243298E-01
 1.858725096E-03 9.364876896E-03 4.793161413E-01
 3.420544672E-04 7.488590200E-03 3.877028034E-01
 -1.125502517E-03 4.833236802E-03 2.580817991E-01
 -1.708350261E-03 2.847001655E-03 1.442620649E-01
 -1.865425147E-03 1.214522636E-03 3.453651519E-02
 -1.712592901E-03 -6.021167501E-04 8.461382285E-02
 -1.216314500E-03 -2.470373176E-03 1.948973110E-01
 -1.681029971E-04 -4.726947285E-03 2.993575421E-01
 1.374976709E-03 -7.029511966E-03 3.950471004E-01
 3.468977520E-03 -9.411960840E-03 4.742578036E-01
 5.374237895E-03 -1.121183019E-02 5.290386872E-01
 7.536890917E-03 -1.299352758E-02 5.737407147E-01
 9.285314940E-03 -1.428202819E-02 6.078708260E-01
 1.144828554E-02 -1.574848592E-02 6.365626186E-01
 1.389618963E-02 -1.726147532E-02 6.644265301E-01
 1.718890294E-02 -1.911464334E-02 6.934435413E-01
 2.024559677E-02 -2.068473957E-02 7.207685732E-01
 2.415401302E-02 -2.252694219E-02 7.425174245E-01
 2.948602103E-02 -2.479686961E-02 7.646851085E-01
 3.520093486E-02 -2.700284682E-02 7.872746944E-01
 4.201196507E-02 -2.936683595E-02 8.051321848E-01
 4.956883937E-02 -3.173776343E-02 8.207612463E-01
 5.833921582E-02 -3.423760459E-02 8.352447007E-01
 6.705544889E-02 -3.650426120E-02 8.493418184E-01
 7.710812986E-02 -3.888311610E-02 8.605341499E-01
 8.693449944E-02 -4.103343561E-02 8.674695229E-01
 9.734255075E-02 -4.313207045E-02 8.785927515E-01
 1.085196659E-01 -4.522408545E-02 8.863458300E-01
 1.198962927E-01 -4.719661176E-02 8.945304225E-01
 1.316402406E-01 -4.909026250E-02 9.023987268E-01
 1.421200335E-01 -5.066586286E-02 9.093406860E-01
 1.533244997E-01 -5.225171894E-02 9.171593054E-01
 1.652357578E-01 -5.382271484E-02 9.244583805E-01
 1.767834723E-01 -5.524546281E-02 9.332303321E-01
 1.885271370E-01 -5.659017339E-02 9.410920589E-01
 1.992040128E-01 -5.772255734E-02 9.478483836E-01
 2.104801089E-01 -5.884791911E-02 9.577814526E-01
 2.225796133E-01 -5.994308740E-02 9.641502478E-01
 2.348669767E-01 -6.096899882E-02 9.740967169E-01
 2.467247844E-01 -6.186129525E-02 9.867756115E-01
 2.587266266E-01 -6.265730411E-02 9.959191858E-01
 2.697514594E-01 -6.329715252E-02 1.000968163E+00
 2.821076810E-01 -6.392445415E-02 1.007416224E+00
 2.942864597E-01 -6.444799155E-02 1.022532428E+00
 3.071935177E-01 -6.487011164E-02 1.037501006E+00
 3.189477623E-01 -6.514380127E-02 1.051952284E+00
 3.316504955E-01 -6.530717015E-02 1.054084776E+00
 3.424831331E-01 -6.536838412E-02 1.059993433E+00
 3.540552258E-01 -6.532187760E-02 1.067254129E+00
 3.650611341E-01 -6.517066807E-02 1.075709291E+00
 3.760536909E-01 -6.491827965E-02 1.084503646E+00
 3.880095184E-01 -6.452447921E-02 1.068479851E+00
 4.011771083E-01 -6.395065784E-02 1.010106411E+00
 4.137543440E-01 -6.326736510E-02 9.871490260E-01
 4.263216555E-01 -6.243097782E-02 9.784572660E-01
 4.389086962E-01 -6.151371449E-02 9.720637133E-01
 4.512422979E-01 -6.046502292E-02 9.556698019E-01
 4.631791711E-01 -5.933376774E-02 9.341095088E-01
 4.756680131E-01 -5.805878714E-02 9.178069729E-01
 4.877780974E-01 -5.672008172E-02 9.000201581E-01
 5.004482865E-01 -5.525133014E-02 8.858674497E-01
 5.140953064E-01 -5.355579033E-02 8.660053719E-01
 5.273196697E-01 -5.186038837E-02 8.527766088E-01
 5.400862098E-01 -5.014880374E-02 8.379147904E-01
 5.529765487E-01 -4.837659374E-02 8.257612704E-01
 5.664117932E-01 -4.645895213E-02 8.107700696E-01
 5.791833401E-01 -4.457882047E-02 7.936548082E-01
 5.920091271E-01 -4.271389171E-02 7.855115640E-01
 6.050567627E-01 -4.076968133E-02 7.725054119E-01
 6.192336082E-01 -3.866308928E-02 7.632149599E-01
 6.331754327E-01 -3.655478358E-02 7.511232821E-01
 6.474953294E-01 -3.439707682E-02 7.423281330E-01
 6.602551341E-01 -3.243363276E-02 7.290384947E-01
 6.736516953E-01 -3.042438067E-02 7.225011407E-01
 6.859450936E-01 -2.856147103E-02 7.125697009E-01
 6.982405782E-01 -2.672343329E-02 7.052690857E-01
 7.127740383E-01 -2.455358021E-02 6.945421445E-01
 7.260067463E-01 -2.263613231E-02 6.900066096E-01
 7.374734879E-01 -2.092847973E-02 6.774989522E-01
 7.513682842E-01 -1.896094717E-02 6.725107928E-01
 7.638181448E-01 -1.719769649E-02 6.636965073E-01
 7.776409388E-01 -1.530066226E-02 6.575813708E-01
 7.895033360E-01 -1.367060468E-02 6.474148118E-01
 8.026431799E-01 -1.195557881E-02 6.420933673E-01
 8.135466576E-01 -1.055588759E-02 6.348701571E-01
 8.248428106E-01 -9.143860079E-03 6.271003752E-01
 8.375542164E-01 -7.628833409E-03 6.200765092E-01
 8.499533534E-01 -6.217131857E-03 6.120066387E-01
 8.621167541E-01 -4.928184208E-03 6.047572776E-01
 8.732007742E-01 -3.849002067E-03 5.992487560E-01
 8.844519854E-01 -2.847658005E-03 5.938394677E-01
 8.972871304E-01 -1.844343729E-03 5.891925681E-01
 9.076133966E-01 -1.144918264E-03 5.858930169E-01
 9.181250334E-01 -5.212845863E-04 5.818078311E-01
 9.279097319E-01 -5.033524212E-05 5.803656721E-01
 9.376558065E-01 3.068969527E-04 5.793942340E-01
 9.493114948E-01 6.258438807E-04 5.778867343E-01
 9.625137448E-01 8.219718584E-04 5.767048742E-01
 9.768889546E-01 8.541687857E-04 5.730187840E-01
 9.892249703E-01 7.256583776E-04 5.633555779E-01
 -5.000000000E-01 -1.000000000E+00 7.233329090E-01
 3.500000000E+00 -1.000000000E+00 7.279268611E-01
 3.500000000E+00 1.000000000E+00 7.093218981E-01
 -5.000000000E-01 1.000000000E+00 7.235542591E-01
 9.928257763E-01 1.927589619E-03 6.253738251E-01
 9.790640771E-01 4.710021662E-03 6.590340531E-01
 9.637855887E-01 7.798127364E-03 6.844502325E-01
 9.478859901E-01 1.101667574E-02 7.057946060E-01
 9.335945249E-01 1.389967697E-02 7.233192887E-01
 9.209669232E-01 1.643960318E-02 7.371591939E-01
 9.094863534E-01 1.874174550E-02 7.529839484E-01
 8.979147375E-01 2.103011403E-02 7.679609346E-01
 8.860924542E-01 2.329345886E-02 7.744873885E-01
 8.741923273E-01 2.555835247E-02 7.896379463E-01
 8.620350063E-01 2.782529406E-02 7.993262926E-01
 8.499197364E-01 3.002466913E-02 8.072966225E-01
 8.385848701E-01 3.206774127E-02 8.199314590E-01
 8.274292946E-01 3.403479792E-02 8.311975977E-01
 8.154879808E-01 3.607099131E-02 8.384826144E-01
 8.029602170E-01 3.814552166E-02 8.442005860E-01
 7.905292511E-01 4.016571678E-02 8.495423721E-01
 7.784066498E-01 4.212073050E-02 8.606690891E-01
 7.667557895E-01 4.397398606E-02 8.741846377E-01
 7.546770573E-01 4.583014175E-02 8.819037190E-01
 7.416158020E-01 4.777703062E-02 8.909098926E-01
 7.296438515E-01 4.951371439E-02 8.984571888E-01
 7.186481953E-01 5.106462352E-02 9.046504045E-01
 7.071427405E-01 5.265498534E-02 9.144078902E-01
 6.947595477E-01 5.431720242E-02 9.248094478E-01
 6.818802655E-01 5.598315224E-02 9.339864763E-01
 6.702442467E-01 5.743068457E-02 9.394255432E-01
 6.591604352E-01 5.876192637E-02 9.485282231E-01
 6.476067305E-01 6.009437516E-02 9.541539496E-01
 6.360343099E-01 6.135316007E-02 9.299682990E-01
 6.244537532E-01 6.255834922E-02 9.224765718E-01
 6.134721041E-01 6.364746392E-02 1.090191709E+00
 6.023617387E-01 6.467949972E-02 1.159994504E+00
 5.907806754E-01 6.568994373E-02 1.131833713E+00
 5.784921050E-01 6.667085737E-02 1.126485512E+00
 5.657679141E-01 6.761493906E-02 1.127272531E+00
 5.534752309E-01 6.843968853E-02 1.115139247E+00
 5.417500436E-01 6.914665177E-02 1.112954666E+00
 5.304279029E-01 6.977132708E-02 1.108862475E+00
 5.185155272E-01 7.034905255E-02 1.099272692E+00
 5.068811774E-01 7.083450258E-02 1.091425122E+00
 4.948674738E-01 7.124461234E-02 1.080200486E+00
 4.816714078E-01 7.160966471E-02 1.075757761E+00
 4.681845456E-01 7.189899683E-02 1.068872694E+00
 4.547180086E-01 7.211335376E-02 1.066031313E+00
 4.416662604E-01 7.223370299E-02 1.052504687E+00
 4.288566113E-01 7.226035744E-02 1.045463790E+00
 4.161113203E-01 7.221253961E-02 1.039919638E+00
 4.034219980E-01 7.209446654E-02 1.037825337E+00
 3.909605443E-01 7.191050798E-02 1.030127645E+00
 3.788576573E-01 7.165522128E-02 1.017919755E+00
 3.662316054E-01 7.131133974E-02 1.009207527E+00
 3.532366008E-01 7.089709863E-02 1.012876739E+00
 3.403050601E-01 7.041028515E-02 1.009184837E+00
 3.282900453E-01 6.987841427E-02 9.994086112E-01
 3.165287971E-01 6.928203627E-02 9.887045617E-01
 3.037046194E-01 6.857005507E-02 9.873358074E-01
 2.902249396E-01 6.773585081E-02 9.805501818E-01
 2.772130817E-01 6.684033945E-02 9.719873536E-01
 2.652133256E-01 6.594437361E-02 9.703249142E-01
 2.530708387E-01 6.495792419E-02 9.621435319E-01
 2.406730726E-01 6.386453286E-02 9.552815401E-01
 2.283365875E-01 6.269937940E-02 9.511805439E-01
 2.162703872E-01 6.147060357E-02 9.450263438E-01
 2.043439001E-01 6.016224995E-02 9.364393335E-01
 1.921002492E-01 5.872604437E-02 9.285693949E-01
 1.799463108E-01 5.720796064E-02 9.222770575E-01
 1.682075188E-01 5.564185604E-02 9.147646274E-01
 1.564760953E-01 5.397408642E-02 9.087784113E-01
 1.451729611E-01 5.225584656E-02 8.989017876E-01
 1.339851469E-01 5.044143088E-02 8.900835427E-01
 1.226360314E-01 4.848738015E-02 8.812601383E-01
 1.117579825E-01 4.648905434E-02 8.733726500E-01
 9.125037119E-02 4.233552329E-02 8.523893741E-01
 8.030682802E-02 3.987435997E-02 8.399859394E-01
 7.208178937E-02 -3.769368865E-02 8.569889088E-01
 9.213852510E-02 -4.208275303E-02 8.752875346E-01
 1.029311083E-01 -4.417807795E-02 8.817906835E-01
 1.142079793E-01 -4.621034861E-02 8.907410162E-01
 1.257682666E-01 -4.814343713E-02 8.982083811E-01
 1.368801370E-01 -4.987806268E-02 9.064832343E-01
 1.477222666E-01 -5.145879090E-02 9.128795412E-01
 1.592801288E-01 -5.303721689E-02 9.208513844E-01
 1.710096151E-01 -5.453408882E-02 9.287498410E-01
 1.826553047E-01 -5.591781810E-02 9.371882798E-01
 1.938655749E-01 -5.715636536E-02 9.448413383E-01
 2.048420608E-01 -5.828523822E-02 9.522357736E-01
 2.165298611E-01 -5.939550325E-02 9.614483903E-01
 2.287232950E-01 -6.045604311E-02 9.682642025E-01
 2.407958806E-01 -6.141514704E-02 9.806126927E-01
 2.527257055E-01 -6.225929968E-02 9.918445940E-01
 2.642390430E-01 -6.297722831E-02 9.991610364E-01
 2.759295702E-01 -6.361080334E-02 1.003102832E+00
 2.881970704E-01 -6.418622285E-02 1.014214416E+00
 3.007399887E-01 -6.465905160E-02 1.030105526E+00
 3.130706400E-01 -6.500695646E-02 1.045424407E+00
 3.252991289E-01 -6.522548571E-02 1.054335662E+00
 3.370668143E-01 -6.533777714E-02 1.056009974E+00
 3.482691795E-01 -6.534513086E-02 1.063641057E+00
 3.595581800E-01 -6.524627283E-02 1.071293656E+00
 3.705574125E-01 -6.504447386E-02 1.080919588E+00
 3.820316046E-01 -6.472137943E-02 1.082047441E+00
 3.945933133E-01 -6.423756853E-02 1.040851450E+00
 4.074657261E-01 -6.360901147E-02 9.923236102E-01
 4.200379997E-01 -6.284917146E-02 9.843780876E-01
 4.326151758E-01 -6.197234616E-02 9.742727399E-01
 4.450754970E-01 -6.098936871E-02 9.658498733E-01
 4.572107345E-01 -5.989939533E-02 9.447457360E-01
 4.694235921E-01 -5.869627744E-02 9.252711855E-01
 4.817230552E-01 -5.738943443E-02 9.094106541E-01
 4.941131920E-01 -5.598570593E-02 8.924027717E-01
 5.072717965E-01 -5.440356024E-02 8.766600650E-01
 5.207074881E-01 -5.270808935E-02 8.584960253E-01
 5.337029397E-01 -5.100459605E-02 8.457186107E-01
 5.465313792E-01 -4.926269874E-02 8.315406050E-01
 5.596941710E-01 -4.741777293E-02 8.186581298E-01
 5.727975667E-01 -4.551888630E-02 8.021503534E-01
 5.855962336E-01 -4.364635609E-02 7.887511040E-01
 5.985329449E-01 -4.174178652E-02 7.793646894E-01
 6.121451855E-01 -3.971638530E-02 7.675708584E-01
 6.262045205E-01 -3.760893643E-02 7.573852743E-01
 6.403353810E-01 -3.547593020E-02 7.464694331E-01
 6.538752317E-01 -3.341535479E-02 7.360486064E-01
 6.669534147E-01 -3.142900672E-02 7.252573124E-01
 6.797983944E-01 -2.949292585E-02 7.177002265E-01
 6.920928359E-01 -2.764245216E-02 7.088160295E-01
 7.055073082E-01 -2.563850675E-02 7.000037037E-01
 7.193903923E-01 -2.359485626E-02 6.919398370E-01
 7.317401171E-01 -2.178230602E-02 6.840499985E-01
 7.444208860E-01 -1.994471345E-02 6.746895185E-01
 7.575932145E-01 -1.807932183E-02 6.682430386E-01
 7.707295418E-01 -1.624917937E-02 6.606985425E-01
 7.835721374E-01 -1.448563347E-02 6.524105881E-01
 7.960732579E-01 -1.281309174E-02 6.446377094E-01
 8.080949187E-01 -1.125573320E-02 6.383957843E-01
 8.191947341E-01 -9.849873837E-03 6.311621919E-01
 8.311985135E-01 -8.386346744E-03 6.236258334E-01
 8.437537849E-01 -6.922982633E-03 6.161448163E-01
 8.560350537E-01 -5.572658032E-03 6.082847141E-01
 8.676587641E-01 -4.388593137E-03 6.017602565E-01
 8.788263798E-01 -3.348330036E-03 5.963855178E-01
 8.908695579E-01 -2.346000867E-03 5.917442176E-01
 9.024502635E-01 -1.494630997E-03 5.873289855E-01
 9.128692150E-01 -8.331014251E-04 5.838236677E-01
 9.434836507E-01 4.663704167E-04 5.786690332E-01
 9.559126198E-01 7.239078695E-04 5.774305804E-01
 9.697013497E-01 8.380703221E-04 5.754364054E-01
 9.830569625E-01 7.899135817E-04 5.676231944E-01
 9.944945276E-01 6.172342401E-04 5.468211649E-01
 -5.000000000E-01 9.500000000E-01 7.209365102E-01
 -5.000000000E-01 9.000000000E-01 7.168636205E-01
 -5.000000000E-01 8.500000000E-01 7.137734165E-01
 -5.000000000E-01 8.000000000E-01 7.109970867E-01
 -5.000000000E-01 7.500000000E-01 7.084000207E-01
 -5.000000000E-01 7.000000000E-01 7.058245869E-01
 -5.000000000E-01 6.500000000E-01 7.032344241E-01
 -5.000000000E-01 6.000000000E-01 7.006035130E-01
 -5.000000000E-01 5.500000000E-01 6.979180916E-01
 -5.000000000E-01 5.000000000E-01 6.951575692E-01
 -5.000000000E-01 4.500000000E-01 6.923717686E-01
 -5.000000000E-01 4.000000000E-01 6.895917235E-01
 -5.000000000E-01 3.500000000E-01 6.868452850E-01
 -5.000000000E-01 3.000000000E-01 6.842339185E-01
 -5.000000000E-01 2.500000000E-01 6.818110598E-01
 -5.000000000E-01 2.000000000E-01 6.797139722E-01
 -5.000000000E-01 1.500000000E-01 6.779164674E-01
 -5.000000000E-01 1.000000000E-01 6.765623393E-01
 -5.000000000E-01 5.000000000E-02 6.757071022E-01
 -5.000000000E-01 2.752242878E-12 6.754222363E-01
 -5.000000000E-01 -5.000000000E-02 6.756656723E-01
 -5.000000000E-01 -1.000000000E-01 6.764336904E-01
 -5.000000000E-01 -1.500000000E-01 6.777348476E-01
 -5.000000000E-01 -2.000000000E-01 6.794655194E-01
 -5.000000000E-01 -2.500000000E-01 6.815289905E-01
 -5.000000000E-01 -3.000000000E-01 6.838759794E-01
 -5.000000000E-01 -3.500000000E-01 6.864347318E-01
 -5.000000000E-01 -4.000000000E-01 6.891210033E-01
 -5.000000000E-01 -4.500000000E-01 6.918301525E-01
 -5.000000000E-01 -5.000000000E-01 6.945434006E-01
 -5.000000000E-01 -5.500000000E-01 6.972552016E-01
 -5.000000000E-01 -6.000000000E-01 6.999119200E-01
 -5.000000000E-01 -6.500000000E-01 7.025429300E-01
 -5.000000000E-01 -7.000000000E-01 7.051475375E-01
 -5.000000000E-01 -7.500000000E-01 7.077203667E-01
 -5.000000000E-01 -8.000000000E-01 7.103618725E-01
 -5.000000000E-01 -8.500000000E-01 7.131709164E-01
 -5.000000000E-01 -9.000000000E-01 7.163611761E-01
 -5.000000000E-01 -9.500000000E-01 7.206203447E-01
 -4.500000000E-01 -1.000000000E+00 7.204134464E-01
 -4.000000000E-01 -1.000000000E+00 7.162990993E-01
 -3.500000000E-01 -1.000000000E+00 7.136333438E-01
 -3.000000000E-01 -1.000000000E+00 7.119201729E-01
 -2.500000000E-01 -1.000000000E+00 7.109142133E-01
 -2.000000000E-01 -1.000000000E+00 7.106097170E-01
 -1.500000000E-01 -1.000000000E+00 7.110106180E-01
 -1.000000000E-01 -1.000000000E+00 7.120822688E-01
 -5.000000000E-02 -1.000000000E+00 7.138077048E-01
 -9.424683256E-13 -1.000000000E+00 7.162817373E-01
 5.000000000E-02 -1.000000000E+00 7.193027790E-01
 1.000000000E-01 -1.000000000E+00 7.225273507E-01
 1.500000000E-01 -1.000000000E+00 7.261425662E-01
 2.000000000E-01 -1.000000000E+00 7.301551378E-01
 2.500000000E-01 -1.000000000E+00 7.341861436E-01
 3.000000000E-01 -1.000000000E+00 7.379592760E-01
 3.500000000E-01 -1.000000000E+00 7.412184121E-01
 4.000000000E-01 -1.000000000E+00 7.437373763E-01
 4.500000000E-01 -1.000000000E+00 7.454274488E-01
 5.000000000E-01 -1.000000000E+00 7.462708118E-01
 5.500000000E-01 -1.000000000E+00 7.462636000E-01
 6.000000000E-01 -1.000000000E+00 7.454531376E-01
 6.500000000E-01 -1.000000000E+00 7.440126561E-01
 7.000000000E-01 -1.000000000E+00 7.419528509E-01
 7.500000000E-01 -1.000000000E+00 7.395490450E-01
 8.000000000E-01 -1.000000000E+00 7.368539555E-01
 8.500000000E-01 -1.000000000E+00 7.339758276E-01
 9.000000000E-01 -1.000000000E+00 7.310088264E-01
 9.500000000E-01 -1.000000000E+00 7.280947843E-01
 1.000000000E+00 -1.000000000E+00 7.253079501E-01
 1.050000000E+00 -1.000000000E+00 7.228166467E-01
 1.100000000E+00 -1.000000000E+00 7.204233712E-01
 1.150000000E+00 -1.000000000E+00 7.184772216E-01
 1.200000000E+00 -1.000000000E+00 7.168285145E-01
 1.250000000E+00 -1.000000000E+00 7.156439884E-01
 1.300000000E+00 -1.000000000E+00 7.146807178E-01
 1.350000000E+00 -1.000000000E+00 7.138854933E-01
 1.400000000E+00 -1.000000000E+00 7.133268312E-01
 1.450000000E+00 -1.000000000E+00 7.129568680E-01
 1.500000000E+00 -1.000000000E+00 7.127664622E-01
 1.550000000E+00 -1.000000000E+00 7.127271415E-01
 1.600000000E+00 -1.000000000E+00 7.128261888E-01
 1.650000000E+00 -1.000000000E+00 7.130213375E-01
 1.700000000E+00 -1.000000000E+00 7.132917840E-01
 1.750000000E+00 -1.000000000E+00 7.136910603E-01
 1.800000000E+00 -1.000000000E+00 7.141413993E-01
 1.850000000E+00 -1.000000000E+00 7.145293276E-01
 1.900000000E+00 -1.000000000E+00 7.149150762E-01
 1.950000000E+00 -1.000000000E+00 7.153478467E-01
 2.000000000E+00 -1.000000000E+00 7.158504732E-01
 2.050000000E+00 -1.000000000E+00 7.162339883E-01
 2.100000000E+00 -1.000000000E+00 7.167023943E-01
 2.150000000E+00 -1.000000000E+00 7.172188720E-01
 2.200000000E+00 -1.000000000E+00 7.177715933E-01
 2.250000000E+00 -1.000000000E+00 7.182181133E-01
 2.300000000E+00 -1.000000000E+00 7.185862173E-01
 2.350000000E+00 -1.000000000E+00 7.189589667E-01
 2.400000000E+00 -1.000000000E+00 7.193555251E-01
 2.450000000E+00 -1.000000000E+00 7.196776046E-01
 2.500000000E+00 -1.000000000E+00 7.199921897E-01
 2.550000000E+00 -1.000000000E+00 7.203187702E-01
 2.600000000E+00 -1.000000000E+00 7.204425552E-01
 2.650000000E+00 -1.000000000E+00 7.207204058E-01
 2.700000000E+00 -1.000000000E+00 7.211238729E-01
 2.750000000E+00 -1.000000000E+00 7.214178726E-01
 2.800000000E+00 -1.000000000E+00 7.216068670E-01
 2.850000000E+00 -1.000000000E+00 7.217824252E-01
 2.900000000E+00 -1.000000000E+00 7.219301217E-01
 2.950000000E+00 -1.000000000E+00 7.220476361E-01
 3.000000000E+00 -1.000000000E+00 7.222201735E-01
 3.050000000E+00 -1.000000000E+00 7.223264160E-01
 3.100000000E+00 -1.000000000E+00 7.224569493E-01
 3.150000000E+00 -1.000000000E+00 7.225813268E-01
 3.200000000E+00 -1.000000000E+00 7.227096102E-01
 3.250000000E+00 -1.000000000E+00 7.229475487E-01
 3.300000000E+00 -1.000000000E+00 7.231260443E-01
 3.350000000E+00 -1.000000000E+00 7.235050259E-01
 3.400000000E+00 -1.000000000E+00 7.239851983E-01
 3.450000000E+00 -1.000000000E+00 7.252778678E-01
 3.500000000E+00 -9.500000000E-01 7.296254612E-01
 3.500000000E+00 -9.000000000E-01 7.305641688E-01
 3.500000000E+00 -8.500000000E-01 7.311447555E-01
 3.500000000E+00 -8.000000000E-01 7.315454099E-01
 3.500000000E+00 -7.500000000E-01 7.318412368E-01
 3.500000000E+00 -7.000000000E-01 7.321366311E-01
 3.500000000E+00 -6.500000000E-01 7.324606000E-01
 3.500000000E+00 -6.000000000E-01 7.328185646E-01
 3.500000000E+00 -5.500000000E-01 7.331863516E-01
 3.500000000E+00 -5.000000000E-01 7.335655339E-01
 3.500000000E+00 -4.500000000E-01 7.339507141E-01
 3.500000000E+00 -4.000000000E-01 7.343389142E-01
 3.500000000E+00 -3.500000000E-01 7.347174400E-01
 3.500000000E+00 -3.000000000E-01 7.351061105E-01
 3.500000000E+00 -2.500000000E-01 7.354693373E-01
 3.500000000E+00 -2.000000000E-01 7.357464565E-01
 3.500000000E+00 -1.500000000E-01 7.358757064E-01
 3.500000000E+00 -1.000000000E-01 7.359001637E-01
 3.500000000E+00 -5.000000000E-02 7.358968490E-01
 3.500000000E+00 -2.752242878E-12 7.358796853E-01
 3.500000000E+00 5.000000000E-02 7.358235105E-01
 3.500000000E+00 1.000000000E-01 7.356882587E-01
 3.500000000E+00 1.500000000E-01 7.354360841E-01
 3.500000000E+00 2.000000000E-01 7.350760908E-01
 3.500000000E+00 2.500000000E-01 7.346726153E-01
 3.500000000E+00 3.000000000E-01 7.342757490E-01
 3.500000000E+00 3.500000000E-01 7.339133707E-01
 3.500000000E+00 4.000000000E-01 7.335496969E-01
 3.500000000E+00 4.500000000E-01 7.331099958E-01
 3.500000000E+00 5.000000000E-01 7.326260977E-01
 3.500000000E+00 5.500000000E-01 7.321711256E-01
 3.500000000E+00 6.000000000E-01 7.319866816E-01
 3.500000000E+00 6.500000000E-01 7.322321990E-01
 3.500000000E+00 7.000000000E-01 7.326194304E-01
 3.500000000E+00 7.500000000E-01 7.323889631E-01
 3.500000000E+00 8.000000000E-01 7.310707686E-01
 3.500000000E+00 8.500000000E-01 7.279374408E-01
 3.500000000E+00 9.000000000E-01 7.234183473E-01
 3.500000000E+00 9.500000000E-01 7.177709356E-01
 3.450000000E+00 1.000000000E+00 6.962998362E-01
 3.400000000E+00 1.000000000E+00 6.916688667E-01
 3.350000000E+00 1.000000000E+00 6.910283762E-01
 3.300000000E+00 1.000000000E+00 6.903349927E-01
 3.250000000E+00 1.000000000E+00 6.898872194E-01
 3.200000000E+00 1.000000000E+00 6.898235279E-01
 3.150000000E+00 1.000000000E+00 6.899824114E-01
 3.100000000E+00 1.000000000E+00 6.901024024E-01
 3.050000000E+00 1.000000000E+00 6.904056688E-01
 3.000000000E+00 1.000000000E+00 6.905380160E-01
 2.950000000E+00 1.000000000E+00 6.912720181E-01
 2.900000000E+00 1.000000000E+00 6.922252088E-01
 2.850000000E+00 1.000000000E+00 6.925205420E-01
 2.800000000E+00 1.000000000E+00 6.929018876E-01
 2.750000000E+00 1.000000000E+00 6.933546953E-01
 2.700000000E+00 1.000000000E+00 6.936778476E-01
 2.650000000E+00 1.000000000E+00 6.940187826E-01
 2.600000000E+00 1.000000000E+00 6.946773302E-01
 2.550000000E+00 1.000000000E+00 6.950561273E-01
 2.500000000E+00 1.000000000E+00 6.952437351E-01
 2.450000000E+00 1.000000000E+00 6.954512884E-01
 2.400000000E+00 1.000000000E+00 6.959191169E-01
 2.350000000E+00 1.000000000E+00 6.965123709E-01
 2.300000000E+00 1.000000000E+00 6.973694184E-01
 2.250000000E+00 1.000000000E+00 6.980931554E-01
 2.200000000E+00 1.000000000E+00 6.985061261E-01
 2.150000000E+00 1.000000000E+00 6.988532378E-01
 2.100000000E+00 1.000000000E+00 6.994075375E-01
 2.050000000E+00 1.000000000E+00 7.000645228E-01
 2.000000000E+00 1.000000000E+00 7.008199527E-01
 1.950000000E+00 1.000000000E+00 7.016697709E-01
 1.900000000E+00 1.000000000E+00 7.023404990E-01
 1.850000000E+00 1.000000000E+00 7.032666578E-01
 1.800000000E+00 1.000000000E+00 7.041224147E-01
 1.750000000E+00 1.000000000E+00 7.050386430E-01
 1.700000000E+00 1.000000000E+00 7.064215712E-01
 1.650000000E+00 1.000000000E+00 7.076190108E-01
 1.600000000E+00 1.000000000E+00 7.092280208E-01
 1.550000000E+00 1.000000000E+00 7.106478049E-01
 1.500000000E+00 1.000000000E+00 7.125319191E-01
 1.450000000E+00 1.000000000E+00 7.143820788E-01
 1.400000000E+00 1.000000000E+00 7.164928746E-01
 1.350000000E+00 1.000000000E+00 7.190120640E-01
 1.300000000E+00 1.000000000E+00 7.218884890E-01
 1.250000000E+00 1.000000000E+00 7.250686053E-01
 1.200000000E+00 1.000000000E+00 7.280163979E-01
 1.150000000E+00 1.000000000E+00 7.312979444E-01
 1.100000000E+00 1.000000000E+00 7.356185587E-01
 1.050000000E+00 1.000000000E+00 7.397187292E-01
 1.000000000E+00 1.000000000E+00 7.449196069E-01
 9.500000000E-01 1.000000000E+00 7.488542324E-01
 9.000000000E-01 1.000000000E+00 7.540095130E-01
 8.500000000E-01 1.000000000E+00 7.579225614E-01
 8.000000000E-01 1.000000000E+00 7.622505494E-01
 7.500000000E-01 1.000000000E+00 7.657458309E-01
 7.000000000E-01 1.000000000E+00 7.684322669E-01
 6.500000000E-01 1.000000000E+00 7.707517968E-01
 6.000000000E-01 1.000000000E+00 7.715913386E-01
 5.500000000E-01 1.000000000E+00 7.711002523E-01
 5.000000000E-01 1.000000000E+00 7.680649312E-01
 4.500000000E-01 1.000000000E+00 7.648229772E-01
 4.000000000E-01 1.000000000E+00 7.608298626E-01
 3.500000000E-01 1.000000000E+00 7.567680633E-01
 3.000000000E-01 1.000000000E+00 7.511519536E-01
 2.500000000E-01 1.000000000E+00 7.452863861E-01
 2.000000000E-01 1.000000000E+00 7.392486313E-01
 1.500000000E-01 1.000000000E+00 7.333845983E-01
 1.000000000E-01 1.000000000E+00 7.281266547E-01
 5.000000000E-02 1.000000000E+00 7.235511399E-01
 1.733724275E-12 1.000000000E+00 7.196840154E-01
 -5.000000000E-02 1.000000000E+00 7.165858193E-01
 -1.000000000E-01 1.000000000E+00 7.142470219E-01
 -1.500000000E-01 1.000000000E+00 7.127474863E-01
 -2.000000000E-01 1.000000000E+00 7.120454821E-01
 -2.500000000E-01 1.000000000E+00 7.120642657E-01
 -3.000000000E-01 1.000000000E+00 7.128354271E-01
 -3.500000000E-01 1.000000000E+00 7.143904302E-01
 -4.000000000E-01 1.000000000E+00 7.168505195E-01
 -4.500000000E-01 1.000000000E+00 7.207721799E-01
 9.464105142E-01 -5.086892107E-03 5.817338156E-01
 8.595120640E-01 -1.054556625E-02 6.091394823E-01
 7.879046185E-01 -1.952700835E-02 6.509000757E-01
 7.169006285E-01 -2.985543314E-02 6.939110763E-01
 6.446720100E-01 -4.181004409E-02 7.440775741E-01
 5.768045743E-01 -5.057909539E-02 7.982089242E-01
 5.114065476E-01 -5.979890958E-02 8.698998613E-01
 4.485404544E-01 -6.573039387E-02 9.559807892E-01
 3.910269006E-01 -6.909184755E-02 1.053175508E+00
 3.349203294E-01 -7.056345677E-02 1.050770699E+00
 2.787371869E-01 -6.898860896E-02 1.001395292E+00
 2.190388066E-01 -6.512866803E-02 9.589776939E-01
 1.608174874E-01 -5.791371799E-02 9.187180691E-01
 1.104066024E-01 -5.082387838E-02 8.835079897E-01
 6.832433114E-02 -4.155877279E-02 8.451993425E-01
 3.651038900E-02 -3.317724681E-02 7.775904372E-01
 1.128229628E-02 -1.874714557E-02 6.300699919E-01
 1.967985881E+00 -9.568979036E-01 7.178252605E-01
 1.972277948E+00 9.580744345E-01 7.114128792E-01
 9.050922536E-01 -5.217351312E-03 5.889644102E-01