TITLE     = "Visualization of the solution"
VARIABLES = "x"
"y"
"Mach"
ZONE T="Zone"
 STRANDID=0, SOLUTIONTIME=0
 Nodes=11875, Elements=23170, ZONETYPE=FEQuadrilateral
 DATAPACKING=POINT
 DT=(DOUBLE DOUBLE DOUBLE )
 9.997589588E-01 5.180374137E-04 5.679838556E-01
 9.861554503E-01 2.896244870E-03 6.615771282E-01
 9.737754464E-01 5.126416218E-03 6.931252667E-01
 9.586545229E-01 7.728507277E-03 7.086327620E-01
 9.447285533E-01 1.017110888E-02 7.294851392E-01
 9.313559532E-01 1.245322824E-02 7.404106020E-01
 9.202201366E-01 1.440542098E-02 7.611172308E-01
 9.074236155E-01 1.655159146E-02 7.751895264E-01
 8.955776095E-01 1.847991347E-02 7.884309717E-01
 8.828079104E-01 2.044651844E-02 7.932232824E-01
 8.704416752E-01 2.235266753E-02 8.085044228E-01
 8.581728935E-01 2.412081324E-02 8.109073547E-01
 8.458572030E-01 2.589288913E-02 8.240522334E-01
 8.339008689E-01 2.749263681E-02 8.225001534E-01
 8.220738769E-01 2.907814458E-02 8.293793630E-01
 8.091778159E-01 3.075803444E-02 8.333478249E-01
 7.962789536E-01 3.242395446E-02 8.420444590E-01
 7.844582796E-01 3.390999138E-02 8.480598088E-01
 7.720431685E-01 3.542054072E-02 8.515350985E-01
 7.599319220E-01 3.687986359E-02 8.585290198E-01
 7.469371557E-01 3.838966042E-02 8.606801026E-01
 7.334398031E-01 3.997687995E-02 8.749127840E-01
 7.224956751E-01 4.119103774E-02 8.765326949E-01
 7.113898993E-01 4.242381081E-02 8.858741046E-01
 6.996847987E-01 4.367255047E-02 8.909908158E-01
 6.860719323E-01 4.508899152E-02 8.994129279E-01
 6.729950309E-01 4.639701545E-02 9.064227366E-01
 6.628862023E-01 4.737838730E-02 9.136478223E-01
 6.513558030E-01 4.847151041E-02 9.243591090E-01
 6.402367949E-01 4.945893586E-02 9.287671352E-01
 6.284621358E-01 5.047438666E-02 9.362826010E-01
 6.172804236E-01 5.137079209E-02 9.403239159E-01
 6.065924764E-01 5.223122612E-02 9.560503980E-01
 5.941240788E-01 5.312209576E-02 9.564201051E-01
 5.823516250E-01 5.392644927E-02 9.648010739E-01
 5.690526962E-01 5.476810411E-02 9.729064842E-01
 5.564012527E-01 5.548691377E-02 9.791771834E-01
 5.441453457E-01 5.613025278E-02 9.888560946E-01
 5.330418348E-01 5.663941056E-02 9.910557206E-01
 5.213752985E-01 5.711813271E-02 9.934744834E-01
 5.084881783E-01 5.756932124E-02 9.971201105E-01
 4.975080192E-01 5.790128931E-02 1.000054018E+00
 4.844223261E-01 5.821716040E-02 9.984059043E-01
 4.714155793E-01 5.844813213E-02 9.956249666E-01
 4.570216238E-01 5.862689018E-02 9.932447582E-01
 4.432537258E-01 5.869671330E-02 9.877140551E-01
 4.301803410E-01 5.870668218E-02 9.869925082E-01
 4.173058271E-01 5.863355845E-02 9.831500110E-01
 4.049472511E-01 5.850554258E-02 9.796156453E-01
 3.923164308E-01 5.829230696E-02 9.722925905E-01
 3.801606596E-01 5.803651735E-02 9.704831157E-01
 3.690735698E-01 5.774507299E-02 9.637467885E-01
 3.561397791E-01 5.733542517E-02 9.571119024E-01
 3.441341817E-01 5.691139400E-02 9.556769970E-01
 3.317953646E-01 5.640526488E-02 9.505411290E-01
 3.212752044E-01 5.591316894E-02 9.427518510E-01
 3.091567755E-01 5.531232432E-02 9.407333506E-01
 2.960358262E-01 5.458343774E-02 9.337982614E-01
 2.821150720E-01 5.372408405E-02 9.255326721E-01
 2.694110870E-01 5.288872123E-02 9.226619867E-01
 2.572940290E-01 5.202971026E-02 9.184369358E-01
 2.445129156E-01 5.104267970E-02 9.104206677E-01
 2.315070033E-01 4.997720569E-02 9.054782900E-01
 2.191023082E-01 4.889615998E-02 9.012231413E-01
 2.072519958E-01 4.779145122E-02 8.952333608E-01
 1.957577616E-01 4.666153342E-02 8.900863483E-01
 1.830162853E-01 4.533362389E-02 8.846597499E-01
 1.708468199E-01 4.398050904E-02 8.774625087E-01
 1.589430124E-01 4.258938879E-02 8.717387315E-01
 1.467668265E-01 4.109032825E-02 8.673921174E-01
 1.357617974E-01 3.965380788E-02 8.613209832E-01
 1.242819577E-01 3.807454929E-02 8.557686932E-01
 1.126364544E-01 3.637671843E-02 8.504980802E-01
 1.019369885E-01 3.471762314E-02 8.430589020E-01
 9.205544740E-02 3.309385106E-02 8.381774974E-01
 8.088892698E-02 3.114343248E-02 8.314141961E-01
 6.918404996E-02 2.893584222E-02 8.228725923E-01
 5.960240960E-02 2.698211372E-02 8.161842401E-01
 5.007823184E-02 2.487980761E-02 8.085751460E-01
 4.140019789E-02 2.277613059E-02 7.997819373E-01
 3.404052556E-02 2.081397176E-02 7.887514823E-01
 2.763218246E-02 1.893435791E-02 7.775944749E-01
 2.224926464E-02 1.717992872E-02 7.658853705E-01
 1.839261688E-02 1.579741016E-02 7.517635016E-01
 1.479067653E-02 1.437693089E-02 7.406513057E-01
 1.221188344E-02 1.325454097E-02 7.258126621E-01
 9.931625798E-03 1.216487121E-02 7.090196714E-01
 8.267662488E-03 1.129766181E-02 6.940671196E-01
 6.744425744E-03 1.043818798E-02 6.786199483E-01
 5.329235923E-03 9.555709548E-03 6.505702166E-01
 3.470921889E-03 8.245479316E-03 6.096636503E-01
 1.870430424E-03 6.897212937E-03 5.591142038E-01
 4.958878271E-04 5.450241268E-03 4.775681608E-01
 -8.096243837E-04 3.528662957E-03 3.593902682E-01
 -1.443927991E-03 2.000929089E-03 2.451111103E-01
 -1.706517418E-03 7.616410730E-04 1.387289217E-01
 -1.738646301E-03 -7.391225663E-04 1.922391880E-02
 -1.403983100E-03 -2.495063934E-03 1.187150404E-01
 -5.716731539E-04 -4.471252672E-03 2.552978872E-01
 8.337658364E-04 -6.596948020E-03 3.674744192E-01
 2.882776549E-03 -8.852841333E-03 4.583134158E-01
 4.724933300E-03 -1.049228385E-02 5.210584625E-01
 6.895364728E-03 -1.214835048E-02 5.671414773E-01
 8.498359472E-03 -1.324150618E-02 6.015904393E-01
 1.050583087E-02 -1.449673623E-02 6.287960444E-01
 1.288408320E-02 -1.584894210E-02 6.569521663E-01
 1.607267931E-02 -1.748933829E-02 6.854072768E-01
 1.917752065E-02 -1.894273423E-02 7.117826285E-01
 2.311811969E-02 -2.062501945E-02 7.330140532E-01
 2.851719782E-02 -2.270234004E-02 7.556382783E-01
 3.418570012E-02 -2.466001175E-02 7.756785951E-01
 4.145444557E-02 -2.691734582E-02 7.914151021E-01
 4.897342622E-02 -2.902501263E-02 8.063677398E-01
 5.768067017E-02 -3.124124929E-02 8.188883920E-01
 6.642325968E-02 -3.326794505E-02 8.294412191E-01
 7.661976665E-02 -3.543978557E-02 8.398450706E-01
 8.645414561E-02 -3.737037256E-02 8.467104133E-01
 9.698927402E-02 -3.928346559E-02 8.558644048E-01
 1.077374071E-01 -4.110167176E-02 8.629529942E-01
 1.194034293E-01 -4.293909669E-02 8.703654420E-01
 1.308080405E-01 -4.460995272E-02 8.764762962E-01
 1.414562762E-01 -4.607632011E-02 8.827458539E-01
 1.524427533E-01 -4.750775173E-02 8.906124536E-01
 1.641734540E-01 -4.893280566E-02 8.967802403E-01
 1.758923084E-01 -5.027016252E-02 9.040160447E-01
 1.877894998E-01 -5.153873190E-02 9.115607386E-01
 1.982651651E-01 -5.258282274E-02 9.184740005E-01
 2.095140517E-01 -5.363330990E-02 9.254211744E-01
 2.218569517E-01 -5.469599739E-02 9.323469863E-01
 2.344311625E-01 -5.569294840E-02 9.415478753E-01
 2.466898859E-01 -5.657489225E-02 9.505961085E-01
 2.594062388E-01 -5.739574134E-02 9.597338811E-01
 2.707065046E-01 -5.804295838E-02 9.699633473E-01
 2.836692333E-01 -5.867914483E-02 9.767333342E-01
 2.963240147E-01 -5.920002982E-02 9.854491738E-01
 3.091753423E-01 -5.962469429E-02 9.960576563E-01
 3.209010661E-01 -5.991110578E-02 1.007779614E+00
 3.334654868E-01 -6.010528654E-02 1.016855686E+00
 3.440575004E-01 -6.016606465E-02 1.021262695E+00
 3.554039896E-01 -6.014271826E-02 1.018496052E+00
 3.666268587E-01 -6.003743410E-02 1.023647494E+00
 3.773667216E-01 -5.982285738E-02 1.022617476E+00
 3.890223801E-01 -5.950775370E-02 1.020510916E+00
 4.014513195E-01 -5.901652575E-02 1.006697783E+00
 4.137800038E-01 -5.841849372E-02 9.932015383E-01
 4.269046187E-01 -5.762111023E-02 9.746288126E-01
 4.395743906E-01 -5.674279481E-02 9.631806363E-01
 4.524024427E-01 -5.569246039E-02 9.419813927E-01
 4.648315310E-01 -5.459732935E-02 9.306528750E-01
 4.773280621E-01 -5.336447805E-02 9.148967388E-01
 4.890508652E-01 -5.209719017E-02 8.947224484E-01
 5.013186336E-01 -5.070586503E-02 8.801748391E-01
 5.147212148E-01 -4.908028618E-02 8.614515972E-01
 5.283610821E-01 -4.736440629E-02 8.473399673E-01
 5.415151119E-01 -4.561537504E-02 8.295725148E-01
 5.552467704E-01 -4.376132041E-02 8.172311697E-01
 5.678795576E-01 -4.198228940E-02 8.010768811E-01
 5.811443329E-01 -4.011015221E-02 7.897928092E-01
 5.934153199E-01 -3.834642842E-02 7.780980210E-01
 6.057643294E-01 -3.656473011E-02 7.687907379E-01
 6.188219190E-01 -3.464221954E-02 7.557330240E-01
 6.328834295E-01 -3.256729990E-02 7.428474924E-01
 6.467012167E-01 -3.058208153E-02 7.373259318E-01
 6.600942612E-01 -2.861356549E-02 7.260488522E-01
 6.735993624E-01 -2.662318759E-02 7.139505497E-01
 6.861727238E-01 -2.482641302E-02 7.082178710E-01
 6.986572742E-01 -2.304652520E-02 7.006832082E-01
 7.131091356E-01 -2.098423988E-02 6.898777318E-01
 7.260406017E-01 -1.919434965E-02 6.834846890E-01
 7.378195524E-01 -1.759357005E-02 6.780447650E-01
 7.500295043E-01 -1.593116485E-02 6.693084177E-01
 7.626262307E-01 -1.424756460E-02 6.608490108E-01
 7.754634619E-01 -1.259580348E-02 6.541372983E-01
 7.873333097E-01 -1.111991890E-02 6.487344164E-01
 7.997971773E-01 -9.590518661E-03 6.399816908E-01
 8.109295964E-01 -8.304600604E-03 6.366384576E-01
 8.220168352E-01 -7.017225027E-03 6.261054069E-01
 8.345180154E-01 -5.701046903E-03 6.225136660E-01
 8.467060924E-01 -4.467824008E-03 6.147533202E-01
 8.587014079E-01 -3.359121503E-03 6.096468963E-01
 8.705466986E-01 -2.355200704E-03 6.038291463E-01
 8.827617764E-01 -1.448508236E-03 6.003778885E-01
 8.959822655E-01 -5.920117255E-04 5.957381086E-01
 9.060772061E-01 -4.425380394E-05 5.926085276E-01
 9.168041945E-01 4.097585625E-04 5.925658416E-01
 9.263206124E-01 7.386594079E-04 5.915575834E-01
 9.356876612E-01 9.738802910E-04 5.909620721E-01
 9.484554529E-01 1.164298854E-03 5.915092259E-01
 9.622827172E-01 1.211188501E-03 5.917672986E-01
 9.769471288E-01 1.086527016E-03 5.906262799E-01
 9.894989133E-01 8.336323663E-04 5.834675199E-01
 -5.000000000E-01 -1.000000000E+00 7.243864135E-01
 3.500000000E+00 -1.000000000E+00 7.279146514E-01
 3.500000000E+00 1.000000000E+00 7.152155635E-01
 -5.000000000E-01 1.000000000E+00 7.247303425E-01
 9.929572046E-01 1.707141142E-03 6.430579100E-01
 9.799654484E-01 4.011330544E-03 6.784584344E-01
 9.662149847E-01 6.427461747E-03 7.011626497E-01
 9.516915381E-01 8.949808078E-03 7.195584219E-01
 9.380422533E-01 1.131216856E-02 7.344960651E-01
 9.257880449E-01 1.342932461E-02 7.514649712E-01
 9.138218760E-01 1.547850622E-02 7.679199101E-01
 9.015006125E-01 1.751575246E-02 7.829555747E-01
 8.891927600E-01 1.946321595E-02 7.897987839E-01
 8.766247928E-01 2.139959298E-02 8.020465623E-01
 8.643072844E-01 2.323674038E-02 8.088171933E-01
 8.520150483E-01 2.500685118E-02 8.186849152E-01
 8.398790359E-01 2.669276297E-02 8.226885018E-01
 8.279873729E-01 2.828539070E-02 8.261701573E-01
 8.156258464E-01 2.991808951E-02 8.309820275E-01
 8.027283847E-01 3.159099445E-02 8.375786080E-01
 7.903686166E-01 3.316697292E-02 8.457284766E-01
 7.782507241E-01 3.466526605E-02 8.491567244E-01
 7.659875453E-01 3.615020216E-02 8.559244225E-01
 7.534345388E-01 3.763476200E-02 8.581132197E-01
 7.401884794E-01 3.918327019E-02 8.686751147E-01
 7.279677391E-01 4.058395885E-02 8.753305743E-01
 7.169427872E-01 4.180742428E-02 8.815509408E-01
 7.055373490E-01 4.304818064E-02 8.882779082E-01
 6.928783655E-01 4.438077100E-02 8.951307580E-01
 6.795334816E-01 4.574300349E-02 9.029714584E-01
 6.679406166E-01 4.688770138E-02 9.094676896E-01
 6.571210027E-01 4.792494886E-02 9.199130716E-01
 6.457962990E-01 4.896522313E-02 9.258145381E-01
 6.343494654E-01 4.996666126E-02 9.339064765E-01
 6.228712797E-01 5.092258938E-02 9.356673579E-01
 6.119364500E-01 5.180100910E-02 9.508144022E-01
 6.003582776E-01 5.267666094E-02 9.553421459E-01
 5.882378519E-01 5.352427252E-02 9.603758162E-01
 5.757021606E-01 5.434727669E-02 9.693923399E-01
 5.627269745E-01 5.512750894E-02 9.751792969E-01
 5.502732992E-01 5.580858327E-02 9.848360641E-01
 5.385935903E-01 5.638483167E-02 9.900994138E-01
 5.272085667E-01 5.687877163E-02 9.926441408E-01
 5.149317384E-01 5.734372698E-02 9.944778398E-01
 5.029980987E-01 5.773530528E-02 9.996586519E-01
 4.909651726E-01 5.805922486E-02 9.995472367E-01
 4.779189527E-01 5.833264627E-02 9.966334564E-01
 4.642186016E-01 5.853751116E-02 9.953574060E-01
 4.501376748E-01 5.866180174E-02 9.893783245E-01
 4.367170334E-01 5.870169774E-02 9.880207006E-01
 4.237430841E-01 5.867012031E-02 9.845531684E-01
 4.111265391E-01 5.856955051E-02 9.823966451E-01
 3.986318409E-01 5.839892477E-02 9.751443415E-01
 3.862385452E-01 5.816441216E-02 9.713953587E-01
 3.746171147E-01 5.789079517E-02 9.680718842E-01
 3.626066744E-01 5.754024908E-02 9.593059308E-01
 3.501369804E-01 5.712340958E-02 9.567074365E-01
 3.379647732E-01 5.665832944E-02 9.535786776E-01
 3.265352845E-01 5.615921691E-02 9.459882490E-01
 3.152159899E-01 5.561274663E-02 9.420819107E-01
 3.025963008E-01 5.494788103E-02 9.378977193E-01
 2.890754491E-01 5.415376090E-02 9.289426346E-01
 2.757630795E-01 5.330640264E-02 9.237806662E-01
 2.633525580E-01 5.245921575E-02 9.213418527E-01
 2.509034723E-01 5.153619498E-02 9.141259537E-01
 2.380099595E-01 5.050994270E-02 9.076922389E-01
 2.253046557E-01 4.943668284E-02 9.035230234E-01
 2.131771520E-01 4.834380560E-02 8.981291230E-01
 2.015048787E-01 4.722649232E-02 8.928355336E-01
 1.893870234E-01 4.599757865E-02 8.875400404E-01
 1.769315526E-01 4.465706646E-02 8.809068255E-01
 1.648949161E-01 4.328494892E-02 8.745390831E-01
 1.528549194E-01 4.183985852E-02 8.694636356E-01
 1.412643120E-01 4.037206806E-02 8.645378854E-01
 1.300218776E-01 3.886417858E-02 8.585913432E-01
 1.184592061E-01 3.722563386E-02 8.529968250E-01
 1.072867215E-01 3.554717079E-02 8.478507609E-01
 8.647218719E-02 3.211864177E-02 8.351587439E-01
 7.503648847E-02 3.003963735E-02 8.275049188E-01
 7.152151316E-02 -3.435386531E-02 8.354228635E-01
 9.172170982E-02 -3.832691908E-02 8.527512302E-01
 1.023633406E-01 -4.019256867E-02 8.592123435E-01
 1.135704182E-01 -4.202038422E-02 8.664670651E-01
 1.251057349E-01 -4.377452470E-02 8.736779517E-01
 1.361321583E-01 -4.534313641E-02 8.797277378E-01
 1.469495147E-01 -4.679203592E-02 8.864053960E-01
 1.583081037E-01 -4.822027870E-02 8.939428145E-01
 1.700328812E-01 -4.960148409E-02 9.001810391E-01
 1.818409041E-01 -5.090444721E-02 9.077388073E-01
 1.930273324E-01 -5.206077732E-02 9.153723857E-01
 2.038896084E-01 -5.310806632E-02 9.217885679E-01
 2.156855017E-01 -5.416465364E-02 9.286988584E-01
 2.281440571E-01 -5.519447289E-02 9.367436191E-01
 2.405605242E-01 -5.613392033E-02 9.461991403E-01
 2.530480623E-01 -5.698531680E-02 9.549217244E-01
 2.650563717E-01 -5.771934986E-02 9.652307202E-01
 2.771878690E-01 -5.836105160E-02 9.732416099E-01
 2.899966240E-01 -5.893958732E-02 9.809113832E-01
 3.027496785E-01 -5.941236205E-02 9.903842605E-01
 3.150382042E-01 -5.976790003E-02 1.002400430E+00
 3.271832764E-01 -6.000819616E-02 1.012093746E+00
 3.387614936E-01 -6.013567559E-02 1.020785931E+00
 3.497307450E-01 -6.015439145E-02 1.019738939E+00
 3.610154241E-01 -6.009007618E-02 1.019802858E+00
 3.719967902E-01 -5.993014574E-02 1.025274323E+00
 3.831945509E-01 -5.966530554E-02 1.020646712E+00
 3.952368498E-01 -5.926213972E-02 1.015701658E+00
 4.076156616E-01 -5.871750973E-02 9.990329016E-01
 4.203423113E-01 -5.801980197E-02 9.846491887E-01
 4.332395047E-01 -5.718195252E-02 9.680909008E-01
 4.459884167E-01 -5.621762760E-02 9.540012699E-01
 4.586169869E-01 -5.514489487E-02 9.346385229E-01
 4.710797966E-01 -5.398090370E-02 9.241941532E-01
 4.831894636E-01 -5.273083411E-02 9.048438021E-01
 4.951847494E-01 -5.140152760E-02 8.870777638E-01
 5.080199242E-01 -4.989307560E-02 8.711118965E-01
 5.215411484E-01 -4.822234623E-02 8.539455779E-01
 5.349380970E-01 -4.648989066E-02 8.388605947E-01
 5.483809412E-01 -4.468834773E-02 8.227842031E-01
 5.615631640E-01 -4.287180491E-02 8.096464863E-01
 5.745119452E-01 -4.104622081E-02 7.948298926E-01
 5.872798264E-01 -3.922829032E-02 7.840642880E-01
 5.995898247E-01 -3.745557927E-02 7.733191859E-01
 6.122931242E-01 -3.560347483E-02 7.625504602E-01
 6.258526742E-01 -3.360475972E-02 7.490008309E-01
 6.397923231E-01 -3.157469071E-02 7.396480385E-01
 6.533977389E-01 -2.959782351E-02 7.322158422E-01
 6.668468118E-01 -2.761837654E-02 7.199124555E-01
 6.798860431E-01 -2.572480030E-02 7.106192383E-01
 6.924149990E-01 -2.393646911E-02 7.047138165E-01
 7.058832049E-01 -2.201538254E-02 6.954491369E-01
 7.195748687E-01 -2.008929476E-02 6.861989660E-01
 7.319300771E-01 -1.839395985E-02 6.807781269E-01
 7.439245284E-01 -1.676236745E-02 6.739732279E-01
 7.563278675E-01 -1.508936472E-02 6.649842706E-01
 7.690448463E-01 -1.342168404E-02 6.574230072E-01
 7.813983858E-01 -1.185786119E-02 6.513443425E-01
 7.935652435E-01 -1.035521878E-02 6.444271614E-01
 8.053633869E-01 -8.947559632E-03 6.381204688E-01
 8.164732158E-01 -7.660912815E-03 6.315218359E-01
 8.282674253E-01 -6.359135965E-03 6.241737053E-01
 8.406120539E-01 -5.084435456E-03 6.187521652E-01
 8.527037501E-01 -3.913472756E-03 6.120745992E-01
 8.646240532E-01 -2.857161104E-03 6.064988054E-01
 8.766542375E-01 -1.901854470E-03 6.020481508E-01
 8.893720210E-01 -1.020259981E-03 5.984079552E-01
 9.010297358E-01 -3.181327647E-04 5.934724184E-01
 9.114407003E-01 1.827523793E-04 5.926469028E-01
 9.420715570E-01 1.069089572E-03 5.913014497E-01
 9.553690851E-01 1.187743677E-03 5.917135991E-01
 9.696149230E-01 1.148857758E-03 5.916627892E-01
 9.832230210E-01 9.600796911E-04 5.875244441E-01
 9.946289361E-01 6.758348900E-04 5.805834799E-01
 -5.000000000E-01 9.500000000E-01 7.226715147E-01
 -5.000000000E-01 9.000000000E-01 7.194371253E-01
 -5.000000000E-01 8.500000000E-01 7.169635612E-01
 -5.000000000E-01 8.000000000E-01 7.147687852E-01
 -5.000000000E-01 7.500000000E-01 7.126728244E-01
 -5.000000000E-01 7.000000000E-01 7.105962602E-01
 -5.000000000E-01 6.500000000E-01 7.085137828E-01
 -5.000000000E-01 6.000000000E-01 7.063648815E-01
 -5.000000000E-01 5.500000000E-01 7.041424708E-01
 -5.000000000E-01 5.000000000E-01 7.018844911E-01
 -5.000000000E-01 4.500000000E-01 6.995900977E-01
 -5.000000000E-01 4.000000000E-01 6.972875850E-01
 -5.000000000E-01 3.500000000E-01 6.950098768E-01
 -5.000000000E-01 3.000000000E-01 6.928361264E-01
 -5.000000000E-01 2.500000000E-01 6.907837131E-01
 -5.000000000E-01 2.000000000E-01 6.889635752E-01
 -5.000000000E-01 1.500000000E-01 6.874358023E-01
 -5.000000000E-01 1.000000000E-01 6.862465653E-01
 -5.000000000E-01 5.000000000E-02 6.854778995E-01
 -5.000000000E-01 2.752242878E-12 6.851574935E-01
 -5.000000000E-01 -5.000000000E-02 6.852852866E-01
 -5.000000000E-01 -1.000000000E-01 6.859051002E-01
 -5.000000000E-01 -1.500000000E-01 6.868636453E-01
 -5.000000000E-01 -2.000000000E-01 6.882365220E-01
 -5.000000000E-01 -2.500000000E-01 6.899276680E-01
 -5.000000000E-01 -3.000000000E-01 6.918452493E-01
 -5.000000000E-01 -3.500000000E-01 6.939355434E-01
 -5.000000000E-01 -4.000000000E-01 6.961320387E-01
 -5.000000000E-01 -4.500000000E-01 6.983593340E-01
 -5.000000000E-01 -5.000000000E-01 7.006513718E-01
 -5.000000000E-01 -5.500000000E-01 7.028986533E-01
 -5.000000000E-01 -6.000000000E-01 7.051094170E-01
 -5.000000000E-01 -6.500000000E-01 7.072877213E-01
 -5.000000000E-01 -7.000000000E-01 7.094273938E-01
 -5.000000000E-01 -7.500000000E-01 7.115570066E-01
 -5.000000000E-01 -8.000000000E-01 7.137354841E-01
 -5.000000000E-01 -8.500000000E-01 7.160684120E-01
 -5.000000000E-01 -9.000000000E-01 7.186967996E-01
 -5.000000000E-01 -9.500000000E-01 7.221676165E-01
 -4.500000000E-01 -1.000000000E+00 7.220132447E-01
 -4.000000000E-01 -1.000000000E+00 7.186579075E-01
 -3.500000000E-01 -1.000000000E+00 7.164882956E-01
 -3.000000000E-01 -1.000000000E+00 7.150998763E-01
 -2.500000000E-01 -1.000000000E+00 7.143474246E-01
 -2.000000000E-01 -1.000000000E+00 7.140784237E-01
 -1.500000000E-01 -1.000000000E+00 7.143719924E-01
 -1.000000000E-01 -1.000000000E+00 7.153220600E-01
 -5.000000000E-02 -1.000000000E+00 7.169059016E-01
 -9.424683256E-13 -1.000000000E+00 7.190068651E-01
 5.000000000E-02 -1.000000000E+00 7.216166855E-01
 1.000000000E-01 -1.000000000E+00 7.247038985E-01
 1.500000000E-01 -1.000000000E+00 7.281005456E-01
 2.000000000E-01 -1.000000000E+00 7.316825038E-01
 2.500000000E-01 -1.000000000E+00 7.349239095E-01
 3.000000000E-01 -1.000000000E+00 7.379291505E-01
 3.500000000E-01 -1.000000000E+00 7.409387485E-01
 4.000000000E-01 -1.000000000E+00 7.432292437E-01
 4.500000000E-01 -1.000000000E+00 7.447042397E-01
 5.000000000E-01 -1.000000000E+00 7.453111765E-01
 5.500000000E-01 -1.000000000E+00 7.452684192E-01
 6.000000000E-01 -1.000000000E+00 7.446442196E-01
 6.500000000E-01 -1.000000000E+00 7.432168013E-01
 7.000000000E-01 -1.000000000E+00 7.413827538E-01
 7.500000000E-01 -1.000000000E+00 7.392443518E-01
 8.000000000E-01 -1.000000000E+00 7.367481964E-01
 8.500000000E-01 -1.000000000E+00 7.342036061E-01
 9.000000000E-01 -1.000000000E+00 7.315862325E-01
 9.500000000E-01 -1.000000000E+00 7.290951883E-01
 1.000000000E+00 -1.000000000E+00 7.266949300E-01
 1.050000000E+00 -1.000000000E+00 7.244375851E-01
 1.100000000E+00 -1.000000000E+00 7.224366487E-01
 1.150000000E+00 -1.000000000E+00 7.207013292E-01
 1.200000000E+00 -1.000000000E+00 7.192808691E-01
 1.250000000E+00 -1.000000000E+00 7.180367360E-01
 1.300000000E+00 -1.000000000E+00 7.171422419E-01
 1.350000000E+00 -1.000000000E+00 7.164732021E-01
 1.400000000E+00 -1.000000000E+00 7.159978932E-01
 1.450000000E+00 -1.000000000E+00 7.156779427E-01
 1.500000000E+00 -1.000000000E+00 7.154904670E-01
 1.550000000E+00 -1.000000000E+00 7.155128037E-01
 1.600000000E+00 -1.000000000E+00 7.155971741E-01
 1.650000000E+00 -1.000000000E+00 7.157525029E-01
 1.700000000E+00 -1.000000000E+00 7.158549957E-01
 1.750000000E+00 -1.000000000E+00 7.160877748E-01
 1.800000000E+00 -1.000000000E+00 7.164628372E-01
 1.850000000E+00 -1.000000000E+00 7.168585189E-01
 1.900000000E+00 -1.000000000E+00 7.172353413E-01
 1.950000000E+00 -1.000000000E+00 7.176397901E-01
 2.000000000E+00 -1.000000000E+00 7.180365343E-01
 2.050000000E+00 -1.000000000E+00 7.184037445E-01
 2.100000000E+00 -1.000000000E+00 7.187707594E-01
 2.150000000E+00 -1.000000000E+00 7.191234193E-01
 2.200000000E+00 -1.000000000E+00 7.194904461E-01
 2.250000000E+00 -1.000000000E+00 7.198359874E-01
 2.300000000E+00 -1.000000000E+00 7.201847338E-01
 2.350000000E+00 -1.000000000E+00 7.205218338E-01
 2.400000000E+00 -1.000000000E+00 7.208339410E-01
 2.450000000E+00 -1.000000000E+00 7.210462906E-01
 2.500000000E+00 -1.000000000E+00 7.212937018E-01
 2.550000000E+00 -1.000000000E+00 7.215910406E-01
 2.600000000E+00 -1.000000000E+00 7.218519750E-01
 2.650000000E+00 -1.000000000E+00 7.220293066E-01
 2.700000000E+00 -1.000000000E+00 7.222466356E-01
 2.750000000E+00 -1.000000000E+00 7.224342181E-01
 2.800000000E+00 -1.000000000E+00 7.225997415E-01
 2.850000000E+00 -1.000000000E+00 7.227098635E-01
 2.900000000E+00 -1.000000000E+00 7.228422534E-01
 2.950000000E+00 -1.000000000E+00 7.229743542E-01
 3.000000000E+00 -1.000000000E+00 7.230775389E-01
 3.050000000E+00 -1.000000000E+00 7.231794523E-01
 3.100000000E+00 -1.000000000E+00 7.232696849E-01
 3.150000000E+00 -1.000000000E+00 7.233936019E-01
 3.200000000E+00 -1.000000000E+00 7.235178330E-01
 3.250000000E+00 -1.000000000E+00 7.236194219E-01
 3.300000000E+00 -1.000000000E+00 7.238204192E-01
 3.350000000E+00 -1.000000000E+00 7.241468175E-01
 3.400000000E+00 -1.000000000E+00 7.246032330E-01
 3.450000000E+00 -1.000000000E+00 7.256808829E-01
 3.500000000E+00 -9.500000000E-01 7.293124386E-01
 3.500000000E+00 -9.000000000E-01 7.300970711E-01
 3.500000000E+00 -8.500000000E-01 7.306673388E-01
 3.500000000E+00 -8.000000000E-01 7.310554024E-01
 3.500000000E+00 -7.500000000E-01 7.313068636E-01
 3.500000000E+00 -7.000000000E-01 7.315311421E-01
 3.500000000E+00 -6.500000000E-01 7.317662852E-01
 3.500000000E+00 -6.000000000E-01 7.320507122E-01
 3.500000000E+00 -5.500000000E-01 7.323558470E-01
 3.500000000E+00 -5.000000000E-01 7.326571386E-01
 3.500000000E+00 -4.500000000E-01 7.329713469E-01
 3.500000000E+00 -4.000000000E-01 7.332778007E-01
 3.500000000E+00 -3.500000000E-01 7.335844311E-01
 3.500000000E+00 -3.000000000E-01 7.338851125E-01
 3.500000000E+00 -2.500000000E-01 7.341634366E-01
 3.500000000E+00 -2.000000000E-01 7.343708413E-01
 3.500000000E+00 -1.500000000E-01 7.344953947E-01
 3.500000000E+00 -1.000000000E-01 7.345427271E-01
 3.500000000E+00 -5.000000000E-02 7.345707218E-01
 3.500000000E+00 -2.752242878E-12 7.345663794E-01
 3.500000000E+00 5.000000000E-02 7.344953126E-01
 3.500000000E+00 1.000000000E-01 7.343531964E-01
 3.500000000E+00 1.500000000E-01 7.341590629E-01
 3.500000000E+00 2.000000000E-01 7.338944072E-01
 3.500000000E+00 2.500000000E-01 7.335871238E-01
 3.500000000E+00 3.000000000E-01 7.332641888E-01
 3.500000000E+00 3.500000000E-01 7.329689201E-01
 3.500000000E+00 4.000000000E-01 7.326767948E-01
 3.500000000E+00 4.500000000E-01 7.323598200E-01
 3.500000000E+00 5.000000000E-01 7.320018458E-01
 3.500000000E+00 5.500000000E-01 7.316194344E-01
 3.500000000E+00 6.000000000E-01 7.313753820E-01
 3.500000000E+00 6.500000000E-01 7.314066180E-01
 3.500000000E+00 7.000000000E-01 7.316375709E-01
 3.500000000E+00 7.500000000E-01 7.318466192E-01
 3.500000000E+00 8.000000000E-01 7.312597891E-01
 3.500000000E+00 8.500000000E-01 7.293372696E-01
 3.500000000E+00 9.000000000E-01 7.260625406E-01
 3.500000000E+00 9.500000000E-01 7.214420729E-01
 3.450000000E+00 1.000000000E+00 7.065350221E-01
 3.400000000E+00 1.000000000E+00 7.031101528E-01
 3.350000000E+00 1.000000000E+00 7.024556803E-01
 3.300000000E+00 1.000000000E+00 7.020082761E-01
 3.250000000E+00 1.000000000E+00 7.015505743E-01
 3.200000000E+00 1.000000000E+00 7.017141914E-01
 3.150000000E+00 1.000000000E+00 7.025964765E-01
 3.100000000E+00 1.000000000E+00 7.028105032E-01
 3.050000000E+00 1.000000000E+00 7.033198066E-01
 3.000000000E+00 1.000000000E+00 7.032797868E-01
 2.950000000E+00 1.000000000E+00 7.034571650E-01
 2.900000000E+00 1.000000000E+00 7.039055742E-01
 2.850000000E+00 1.000000000E+00 7.040912516E-01
 2.800000000E+00 1.000000000E+00 7.044520653E-01
 2.750000000E+00 1.000000000E+00 7.047919515E-01
 2.700000000E+00 1.000000000E+00 7.051134463E-01
 2.650000000E+00 1.000000000E+00 7.054849918E-01
 2.600000000E+00 1.000000000E+00 7.058435333E-01
 2.550000000E+00 1.000000000E+00 7.061394607E-01
 2.500000000E+00 1.000000000E+00 7.064119275E-01
 2.450000000E+00 1.000000000E+00 7.068784378E-01
 2.400000000E+00 1.000000000E+00 7.075011233E-01
 2.350000000E+00 1.000000000E+00 7.079139071E-01
 2.300000000E+00 1.000000000E+00 7.080620406E-01
 2.250000000E+00 1.000000000E+00 7.084440876E-01
 2.200000000E+00 1.000000000E+00 7.090734952E-01
 2.150000000E+00 1.000000000E+00 7.097813709E-01
 2.100000000E+00 1.000000000E+00 7.102405653E-01
 2.050000000E+00 1.000000000E+00 7.108729914E-01
 2.000000000E+00 1.000000000E+00 7.115681632E-01
 1.950000000E+00 1.000000000E+00 7.123231281E-01
 1.900000000E+00 1.000000000E+00 7.130417891E-01
 1.850000000E+00 1.000000000E+00 7.133570277E-01
 1.800000000E+00 1.000000000E+00 7.141542034E-01
 1.750000000E+00 1.000000000E+00 7.149406546E-01
 1.700000000E+00 1.000000000E+00 7.160549621E-01
 1.650000000E+00 1.000000000E+00 7.172236576E-01
 1.600000000E+00 1.000000000E+00 7.184935430E-01
 1.550000000E+00 1.000000000E+00 7.197965766E-01
 1.500000000E+00 1.000000000E+00 7.213336802E-01
 1.450000000E+00 1.000000000E+00 7.231170704E-01
 1.400000000E+00 1.000000000E+00 7.250602883E-01
 1.350000000E+00 1.000000000E+00 7.272666070E-01
 1.300000000E+00 1.000000000E+00 7.294926609E-01
 1.250000000E+00 1.000000000E+00 7.318535101E-01
 1.200000000E+00 1.000000000E+00 7.346086469E-01
 1.150000000E+00 1.000000000E+00 7.378859402E-01
 1.100000000E+00 1.000000000E+00 7.408085824E-01
 1.050000000E+00 1.000000000E+00 7.437723366E-01
 1.000000000E+00 1.000000000E+00 7.470478372E-01
 9.500000000E-01 1.000000000E+00 7.507685973E-01
 9.000000000E-01 1.000000000E+00 7.551986230E-01
 8.500000000E-01 1.000000000E+00 7.575793371E-01
 8.000000000E-01 1.000000000E+00 7.599895710E-01
 7.500000000E-01 1.000000000E+00 7.617051790E-01
 7.000000000E-01 1.000000000E+00 7.632427318E-01
 6.500000000E-01 1.000000000E+00 7.639199709E-01
 6.000000000E-01 1.000000000E+00 7.640577028E-01
 5.500000000E-01 1.000000000E+00 7.633972830E-01
 5.000000000E-01 1.000000000E+00 7.618697827E-01
 4.500000000E-01 1.000000000E+00 7.590487218E-01
 4.000000000E-01 1.000000000E+00 7.555294128E-01
 3.500000000E-01 1.000000000E+00 7.519997294E-01
 3.000000000E-01 1.000000000E+00 7.472078167E-01
 2.500000000E-01 1.000000000E+00 7.426095519E-01
 2.000000000E-01 1.000000000E+00 7.379414711E-01
 1.500000000E-01 1.000000000E+00 7.332895236E-01
 1.000000000E-01 1.000000000E+00 7.290102717E-01
 5.000000000E-02 1.000000000E+00 7.252485930E-01
 1.733724275E-12 1.000000000E+00 7.221053051E-01
 -5.000000000E-02 1.000000000E+00 7.195577902E-01
 -1.000000000E-01 1.000000000E+00 7.176354960E-01
 -1.500000000E-01 1.000000000E+00 7.163630119E-01
 -2.000000000E-01 1.000000000E+00 7.157765467E-01
 -2.500000000E-01 1.000000000E+00 7.157708026E-01
 -3.000000000E-01 1.000000000E+00 7.163341504E-01
 -3.500000000E-01 1.000000000E+00 7.175095836E-01
 -4.000000000E-01 1.000000000E+00 7.194696705E-01
 -4.500000000E-01 1.000000000E+00 7.225621506E-01
 9.034839898E-01 -5.426555459E-03 5.967659877E-01
 9.857963260E-01 -3.806919574E-03 5.914672111E-01
 8.320179391E-01 -1.211644148E-02 6.255925912E-01
 7.538631444E-01 -2.087215685E-02 6.683372604E-01
 6.828830074E-01 -3.109959528E-02 7.108670980E-01
 6.164023172E-01 -4.121108576E-02 7.592698318E-01
 5.524362540E-01 -4.981277149E-02 8.187200882E-01
 4.863178080E-01 -5.751434015E-02 8.977685844E-01
 4.308473751E-01 -6.311874139E-02 9.661949912E-01
 3.698595749E-01 -6.542080338E-02 1.019277785E+00
 3.119827534E-01 -6.477368448E-02 9.952360368E-01
 2.556615857E-01 -6.270877279E-02 9.537812931E-01
 1.950589824E-01 -5.674887965E-02 9.142716876E-01
 1.435075597E-01 -5.100326501E-02 8.820134707E-01
 8.752734844E-02 -4.266583884E-02 8.443745345E-01
 1.975626690E+00 -9.571292572E-01 7.196580187E-01
 1.972201476E+00 9.530124117E-01 7.212015651E-01
 5.210304396E-02 -3.724351352E-02 7.995062787E-01
 1.652031843E-02 -2.139419530E-02 6.799214598E-01
 9.455316800E-01 -3.894910373E-03 5.943994862E-01