TITLE     = "Visualization of the solution"
VARIABLES = "x"
"y"
"Mach"
ZONE T="Zone"
 STRANDID=0, SOLUTIONTIME=0
 Nodes=11896, Elements=23209, ZONETYPE=FEQuadrilateral
 DATAPACKING=POINT
 DT=(DOUBLE DOUBLE DOUBLE )
 1.000210404E+00 5.174722755E-04 5.070603534E-01
 9.871644974E-01 3.329921281E-03 6.361310472E-01
 9.744190574E-01 6.007435732E-03 6.650427339E-01
 9.582849145E-01 9.400102310E-03 6.871919877E-01
 9.446405172E-01 1.237857342E-02 7.154093277E-01
 9.318146706E-01 1.507652085E-02 7.317662755E-01
 9.206090569E-01 1.739779301E-02 7.434335192E-01
 9.096679091E-01 1.969002746E-02 7.645432173E-01
 8.981844187E-01 2.198260836E-02 7.734915452E-01
 8.866329789E-01 2.427673154E-02 7.894042910E-01
 8.748942614E-01 2.650730312E-02 7.967180395E-01
 8.629851341E-01 2.875727415E-02 8.118713902E-01
 8.509382606E-01 3.093004040E-02 8.176334085E-01
 8.398641944E-01 3.291264921E-02 8.293106619E-01
 8.283488154E-01 3.489309549E-02 8.323831553E-01
 8.162662387E-01 3.698340058E-02 8.478118489E-01
 8.035796881E-01 3.909495100E-02 8.580434930E-01
 7.910090089E-01 4.110097140E-02 8.612540659E-01
 7.785344720E-01 4.306825995E-02 8.701311506E-01
 7.669346333E-01 4.488322884E-02 8.844537804E-01
 7.535908818E-01 4.687269032E-02 8.905569758E-01
 7.399312258E-01 4.885412008E-02 9.003975844E-01
 7.290930748E-01 5.038758740E-02 9.089485443E-01
 7.175474763E-01 5.196186900E-02 9.146558375E-01
 7.057971954E-01 5.354451761E-02 9.274595397E-01
 6.925255656E-01 5.523503572E-02 9.304280638E-01
 6.796290278E-01 5.683531612E-02 9.413083935E-01
 6.688115597E-01 5.815122649E-02 9.556789214E-01
 6.571287513E-01 5.948339775E-02 9.601365586E-01
 6.457315683E-01 6.072382629E-02 9.610586796E-01
 6.336202025E-01 6.197318807E-02 9.479145378E-01
 6.221092939E-01 6.314237416E-02 9.301591841E-01
 6.116191745E-01 6.411512941E-02 1.018648410E+00
 5.996235609E-01 6.518201530E-02 1.139450273E+00
 5.878640413E-01 6.614746153E-02 1.123552543E+00
 5.744173527E-01 6.718283147E-02 1.115310749E+00
 5.615175962E-01 6.804666668E-02 1.108048737E+00
 5.487257838E-01 6.883695722E-02 1.109370285E+00
 5.374791622E-01 6.947933882E-02 1.101680221E+00
 5.250766873E-01 7.008118182E-02 1.096102427E+00
 5.126355290E-01 7.064980268E-02 1.092279954E+00
 5.013667345E-01 7.104966044E-02 1.080478573E+00
 4.881031811E-01 7.148218155E-02 1.077039982E+00
 4.747588336E-01 7.179357111E-02 1.066813664E+00
 4.611998796E-01 7.205256075E-02 1.063726281E+00
 4.475604296E-01 7.221563160E-02 1.052128993E+00
 4.344702065E-01 7.226875424E-02 1.045021450E+00
 4.214678109E-01 7.226924598E-02 1.042715912E+00
 4.089821577E-01 7.217188925E-02 1.036096467E+00
 3.962527514E-01 7.203038782E-02 1.036466733E+00
 3.841098249E-01 7.181093842E-02 1.026015259E+00
 3.721171916E-01 7.152331620E-02 1.016533743E+00
 3.587611914E-01 7.113160938E-02 1.012836897E+00
 3.459735811E-01 7.068337500E-02 1.008612347E+00
 3.331320286E-01 7.015282661E-02 1.001409173E+00
 3.223412335E-01 6.963930279E-02 9.953685032E-01
 3.099118769E-01 6.900309771E-02 9.943426827E-01
 2.970763743E-01 6.824576855E-02 9.826676823E-01
 2.833003998E-01 6.734465808E-02 9.780976088E-01
 2.711427510E-01 6.649023294E-02 9.767417606E-01
 2.593844533E-01 6.556029618E-02 9.653408968E-01
 2.470002621E-01 6.452515721E-02 9.622498684E-01
 2.347573638E-01 6.340806186E-02 9.552174578E-01
 2.224815935E-01 6.219930574E-02 9.482861374E-01
 2.107036710E-01 6.096303090E-02 9.421712592E-01
 1.987152845E-01 5.960614979E-02 9.340372851E-01
 1.866056472E-01 5.815741792E-02 9.300975177E-01
 1.750021875E-01 5.665730685E-02 9.209744479E-01
 1.634432673E-01 5.506963655E-02 9.134241932E-01
 1.517398208E-01 5.336365476E-02 9.071566455E-01
 1.408777386E-01 5.165763199E-02 8.959158958E-01
 1.294264495E-01 4.977631941E-02 8.913130194E-01
 1.183639392E-01 4.780772701E-02 8.791905156E-01
 1.076647937E-01 4.578926042E-02 8.681153841E-01
 9.776842594E-02 4.381075129E-02 8.622332113E-01
 8.707433194E-02 4.151733592E-02 8.496416622E-01
 7.570037991E-02 3.888103366E-02 8.357699592E-01
 6.572772563E-02 3.638625890E-02 8.233963490E-01
 5.591333285E-02 3.372196853E-02 8.049590011E-01
 4.691151530E-02 3.105843812E-02 7.889622632E-01
 3.906231374E-02 2.852789313E-02 7.727599042E-01
 3.209111467E-02 2.607073821E-02 7.548802146E-01
 2.618722431E-02 2.378342301E-02 7.369160605E-01
 2.184568532E-02 2.195549570E-02 7.180508088E-01
 1.764260605E-02 2.002683654E-02 6.993984485E-01
 1.439299807E-02 1.839842461E-02 6.796889252E-01
 1.146117132E-02 1.679381356E-02 6.578301113E-01
 9.291503578E-03 1.549103670E-02 6.348085133E-01
 7.377124857E-03 1.423542760E-02 6.116668016E-01
 5.629161838E-03 1.298268046E-02 5.800023509E-01
 3.377273213E-03 1.113252528E-02 5.327080065E-01
 1.506515662E-03 9.278234094E-03 4.808562707E-01
 1.172316479E-05 7.393134758E-03 3.898958993E-01
 -1.428762451E-03 4.713189788E-03 2.654815856E-01
 -1.982821850E-03 2.702766098E-03 1.418169019E-01
 -2.114355331E-03 1.068740501E-03 3.649103366E-02
 -1.937556895E-03 -8.029385353E-04 7.151368567E-02
 -1.375039457E-03 -2.789419144E-03 1.811111707E-01
 -2.355967154E-04 -5.164416973E-03 2.867482978E-01
 1.453300472E-03 -7.626844104E-03 3.813953546E-01
 3.673390718E-03 -1.011517737E-02 4.628757229E-01
 5.658139475E-03 -1.197945140E-02 5.195556224E-01
 7.971126586E-03 -1.387596037E-02 5.622755006E-01
 9.796713479E-03 -1.523094345E-02 5.984525490E-01
 1.204998046E-02 -1.676365174E-02 6.267866781E-01
 1.459471509E-02 -1.834982075E-02 6.540827960E-01
 1.803408004E-02 -2.030773461E-02 6.831449909E-01
 2.126981877E-02 -2.198278531E-02 7.092416946E-01
 2.534346655E-02 -2.393441275E-02 7.325092190E-01
 3.075116128E-02 -2.627577819E-02 7.576033908E-01
 3.656978905E-02 -2.856454439E-02 7.801924667E-01
 4.341562465E-02 -3.100735880E-02 8.002152633E-01
 5.101493001E-02 -3.346823156E-02 8.172043172E-01
 5.995067209E-02 -3.608714789E-02 8.327185096E-01
 6.874952465E-02 -3.844198957E-02 8.458057334E-01
 7.916129380E-02 -4.100706056E-02 8.609795974E-01
 8.897392452E-02 -4.320870712E-02 8.678822642E-01
 9.941330552E-02 -4.540171847E-02 8.820647873E-01
 1.106028706E-01 -4.756009579E-02 8.889460899E-01
 1.219944283E-01 -4.960863292E-02 8.987043027E-01
 1.337977350E-01 -5.157690495E-02 9.070602738E-01
 1.442521960E-01 -5.320754647E-02 9.156732651E-01
 1.557763964E-01 -5.489284918E-02 9.239703092E-01
 1.678347737E-01 -5.653258413E-02 9.320779295E-01
 1.795133948E-01 -5.801273882E-02 9.411507003E-01
 1.911438853E-01 -5.938282236E-02 9.496459138E-01
 2.019840926E-01 -6.057243422E-02 9.593820750E-01
 2.133480757E-01 -6.172255427E-02 9.676315544E-01
 2.253677994E-01 -6.284169853E-02 9.752128143E-01
 2.374529690E-01 -6.386943161E-02 9.868960650E-01
 2.494377941E-01 -6.478127837E-02 9.962764244E-01
 2.615596354E-01 -6.560366601E-02 1.005317980E+00
 2.725598216E-01 -6.625366211E-02 1.012611054E+00
 2.848325968E-01 -6.689894944E-02 1.028527424E+00
 2.967235744E-01 -6.738927215E-02 1.039732693E+00
 3.095381260E-01 -6.781990081E-02 1.051944005E+00
 3.211042285E-01 -6.808173656E-02 1.068319706E+00
 3.337954581E-01 -6.824042648E-02 1.072111693E+00
 3.444814086E-01 -6.829473376E-02 1.082254480E+00
 3.559712768E-01 -6.823043525E-02 1.097154854E+00
 3.667727411E-01 -6.805006415E-02 1.100784169E+00
 3.777644038E-01 -6.779630482E-02 1.109604179E+00
 3.894707859E-01 -6.737617403E-02 1.128423122E+00
 4.026457667E-01 -6.678310782E-02 1.110739668E+00
 4.150389731E-01 -6.609280407E-02 9.816592528E-01
 4.276326001E-01 -6.525079906E-02 9.527005488E-01
 4.399425983E-01 -6.430006772E-02 9.681537934E-01
 4.524021447E-01 -6.322553009E-02 9.555255709E-01
 4.643859565E-01 -6.207847968E-02 9.375486030E-01
 4.767035246E-01 -6.080215424E-02 9.217859667E-01
 4.888027310E-01 -5.945032835E-02 9.054883329E-01
 5.013459921E-01 -5.796203017E-02 8.880027248E-01
 5.150288939E-01 -5.625636876E-02 8.714973527E-01
 5.281895399E-01 -5.455305427E-02 8.593869274E-01
 5.406779647E-01 -5.285198614E-02 8.449300194E-01
 5.534801483E-01 -5.102353171E-02 8.249722541E-01
 5.670349002E-01 -4.910033941E-02 8.162419085E-01
 5.800402164E-01 -4.717314988E-02 7.999346926E-01
 5.930327773E-01 -4.525790364E-02 7.924862165E-01
 6.059069633E-01 -4.328760877E-02 7.769794886E-01
 6.200698614E-01 -4.113568366E-02 7.669938048E-01
 6.339686513E-01 -3.898538649E-02 7.532403859E-01
 6.486449838E-01 -3.675708175E-02 7.472651108E-01
 6.614397168E-01 -3.476845846E-02 7.359905187E-01
 6.747789383E-01 -3.268117830E-02 7.232814565E-01
 6.875200868E-01 -3.075277060E-02 7.196010294E-01
 6.997379661E-01 -2.885962650E-02 7.083734214E-01
 7.145669460E-01 -2.660027333E-02 6.999701646E-01
 7.278237939E-01 -2.459568530E-02 6.920895000E-01
 7.394880652E-01 -2.283507586E-02 6.840563426E-01
 7.531512976E-01 -2.078877389E-02 6.743195112E-01
 7.660594583E-01 -1.891431212E-02 6.689438147E-01
 7.794546485E-01 -1.694875211E-02 6.575312625E-01
 7.919726968E-01 -1.518431120E-02 6.515773156E-01
 8.047552705E-01 -1.340498496E-02 6.433178317E-01
 8.158535361E-01 -1.189812273E-02 6.365780164E-01
 8.270306587E-01 -1.040183101E-02 6.273748315E-01
 8.396286964E-01 -8.792486973E-03 6.194096471E-01
 8.521469235E-01 -7.288054563E-03 6.130675934E-01
 8.644340634E-01 -5.869680550E-03 6.043721722E-01
 8.753499389E-01 -4.709032364E-03 5.988310399E-01
 8.864753842E-01 -3.613135079E-03 5.932069010E-01
 8.989116549E-01 -2.485844772E-03 5.856130719E-01
 9.092602134E-01 -1.680766116E-03 5.824496425E-01
 9.197070599E-01 -9.482278838E-04 5.766314941E-01
 9.298301935E-01 -3.760128166E-04 5.743145878E-01
 9.390099645E-01 5.524067456E-05 5.725868056E-01
 9.509020448E-01 4.573016486E-04 5.711947755E-01
 9.638847113E-01 7.282823208E-04 5.690396585E-01
 9.771707058E-01 8.206474013E-04 5.652209503E-01
 9.893454909E-01 7.319577271E-04 5.567547465E-01
 -5.000000000E-01 -1.000000000E+00 7.231507315E-01
 3.500000000E+00 -1.000000000E+00 7.276004008E-01
 3.500000000E+00 1.000000000E+00 7.094583093E-01
 -5.000000000E-01 1.000000000E+00 7.234283257E-01
 9.936874509E-01 1.923696778E-03 6.123278258E-01
 9.807917774E-01 4.668678506E-03 6.515931926E-01
 9.663519859E-01 7.703769021E-03 6.760160767E-01
 9.514627159E-01 1.088933786E-02 7.020761381E-01
 9.382275939E-01 1.372754714E-02 7.244380662E-01
 9.262118638E-01 1.623715693E-02 7.370091746E-01
 9.151384830E-01 1.854391024E-02 7.548688940E-01
 9.039261639E-01 2.083631791E-02 7.687497378E-01
 8.924086988E-01 2.312966995E-02 7.821621749E-01
 8.807636201E-01 2.539201733E-02 7.924642444E-01
 8.689396977E-01 2.763228863E-02 8.051792220E-01
 8.569616973E-01 2.984365728E-02 8.141802338E-01
 8.454012275E-01 3.192134481E-02 8.245215942E-01
 8.341065049E-01 3.390287235E-02 8.297321932E-01
 8.223075271E-01 3.593824804E-02 8.401365726E-01
 8.099229634E-01 3.803917579E-02 8.538126977E-01
 7.972943485E-01 4.009796120E-02 8.595483515E-01
 7.847717404E-01 4.208461568E-02 8.645618095E-01
 7.727345526E-01 4.397574440E-02 8.783628066E-01
 7.602627575E-01 4.587795958E-02 8.874009479E-01
 7.467610538E-01 4.786340520E-02 8.948958009E-01
 7.345121503E-01 4.962085374E-02 9.058026870E-01
 7.233202755E-01 5.117472820E-02 9.103672951E-01
 7.116723359E-01 5.275319330E-02 9.224442676E-01
 6.991613805E-01 5.438977666E-02 9.286960763E-01
 6.860772967E-01 5.603517592E-02 9.343293809E-01
 6.742202938E-01 5.749327131E-02 9.500983418E-01
 6.629701555E-01 5.881731212E-02 9.579573889E-01
 6.514301598E-01 6.010361202E-02 9.619255467E-01
 6.396758854E-01 6.134850718E-02 9.563285790E-01
 6.278647482E-01 6.255778112E-02 9.364339607E-01
 6.168642342E-01 6.362875178E-02 9.496674002E-01
 6.056213677E-01 6.464857236E-02 1.104885857E+00
 5.937438011E-01 6.566473842E-02 1.135854733E+00
 5.811406970E-01 6.666514650E-02 1.119066264E+00
 5.679674745E-01 6.761474907E-02 1.110035400E+00
 5.551216900E-01 6.844181195E-02 1.108629757E+00
 5.431024730E-01 6.915814802E-02 1.107802363E+00
 5.312779248E-01 6.978026032E-02 1.095825443E+00
 5.188561082E-01 7.036549225E-02 1.097737036E+00
 5.070011318E-01 7.084973156E-02 1.083193660E+00
 4.947349578E-01 7.126592100E-02 1.081479639E+00
 4.814310074E-01 7.163787633E-02 1.069653672E+00
 4.679793566E-01 7.192306593E-02 1.066547252E+00
 4.543801546E-01 7.213409618E-02 1.058449158E+00
 4.410153180E-01 7.224219292E-02 1.046460720E+00
 4.279690087E-01 7.226900011E-02 1.045653864E+00
 4.152249843E-01 7.222056761E-02 1.037466171E+00
 4.026174545E-01 7.210113853E-02 1.037749062E+00
 3.901812881E-01 7.192066312E-02 1.031653564E+00
 3.781135082E-01 7.166712731E-02 1.020712789E+00
 3.654391915E-01 7.132746279E-02 1.014229000E+00
 3.523673862E-01 7.090749219E-02 1.011160244E+00
 3.395528048E-01 7.041810080E-02 1.005290403E+00
 3.277366310E-01 6.989606470E-02 9.970785499E-01
 3.161265552E-01 6.932120025E-02 9.963033789E-01
 3.034941256E-01 6.862443313E-02 9.887574443E-01
 2.901883870E-01 6.779521331E-02 9.784741214E-01
 2.772215754E-01 6.691744551E-02 9.793483057E-01
 2.652636021E-01 6.602526456E-02 9.701335728E-01
 2.531923577E-01 6.504272670E-02 9.638608236E-01
 2.408788130E-01 6.396660954E-02 9.591374124E-01
 2.286194786E-01 6.280368380E-02 9.513315015E-01
 2.165926322E-01 6.158116832E-02 9.458135271E-01
 2.047094777E-01 6.028459035E-02 9.374679238E-01
 1.926604658E-01 5.888178386E-02 9.324990668E-01
 1.808039173E-01 5.740736239E-02 9.256580023E-01
 1.692227274E-01 5.586347170E-02 9.168367832E-01
 1.575915441E-01 5.421664566E-02 9.109591177E-01
 1.463087797E-01 5.251064338E-02 9.007502986E-01
 1.351520941E-01 5.071697570E-02 8.944164289E-01
 1.238951944E-01 4.879202321E-02 8.850790664E-01
 1.130143665E-01 4.679849371E-02 8.744786133E-01
 9.242137894E-02 4.266404361E-02 8.572517276E-01
 8.138735592E-02 4.019918479E-02 8.417308679E-01
 7.071405277E-02 3.763364628E-02 8.299214632E-01
 6.082052924E-02 3.505411372E-02 8.167701418E-01
 7.395540923E-02 -3.972452506E-02 8.544072161E-01
 9.419361502E-02 -4.430521280E-02 8.755876141E-01
 1.050080881E-01 -4.648090713E-02 8.859117391E-01
 1.162986495E-01 -4.858436435E-02 8.935104399E-01
 1.278960817E-01 -5.059276894E-02 9.029511435E-01
 1.390249655E-01 -5.239222571E-02 9.118794563E-01
 1.500142962E-01 -5.405019782E-02 9.194766048E-01
 1.618055850E-01 -5.571271665E-02 9.279811364E-01
 1.736740842E-01 -5.727266148E-02 9.366508153E-01
 1.853286400E-01 -5.869778059E-02 9.453913492E-01
 1.965639889E-01 -5.997762829E-02 9.544661303E-01
 2.076660842E-01 -6.114749424E-02 9.638781826E-01
 2.193579376E-01 -6.228212640E-02 9.710603232E-01
 2.314103842E-01 -6.335556507E-02 9.806516112E-01
 2.434453815E-01 -6.432535499E-02 9.921859898E-01
 2.554987147E-01 -6.519247219E-02 1.000331735E+00
 2.670597285E-01 -6.592866406E-02 1.009767568E+00
 2.786962092E-01 -6.657630578E-02 1.018343002E+00
 2.907780856E-01 -6.714411080E-02 1.036545564E+00
 3.031308502E-01 -6.760458648E-02 1.043686636E+00
 3.153211772E-01 -6.795081869E-02 1.061520111E+00
 3.274498433E-01 -6.816108152E-02 1.071193648E+00
 3.391384333E-01 -6.826758012E-02 1.075795156E+00
 3.502263427E-01 -6.826258451E-02 1.089615930E+00
 3.613720089E-01 -6.814024970E-02 1.101815654E+00
 3.722685724E-01 -6.792318448E-02 1.102112408E+00
 3.836175948E-01 -6.758623943E-02 1.119184243E+00
 3.960582763E-01 -6.707964092E-02 1.131291309E+00
 4.088423699E-01 -6.643795595E-02 1.049261638E+00
 4.213357866E-01 -6.567180157E-02 9.510547360E-01
 4.337875992E-01 -6.477543339E-02 9.638951486E-01
 4.461723715E-01 -6.376279891E-02 9.637645336E-01
 4.583940506E-01 -6.265200488E-02 9.465971448E-01
 4.705447406E-01 -6.144031696E-02 9.292738958E-01
 4.827531278E-01 -6.012624130E-02 9.139960188E-01
 4.950743616E-01 -5.870617926E-02 8.967034531E-01
 5.081874430E-01 -5.710919946E-02 8.793907576E-01
 5.216092169E-01 -5.540471151E-02 8.651476480E-01
 5.344337523E-01 -5.370252021E-02 8.527308169E-01
 5.470790565E-01 -5.193775892E-02 8.351010613E-01
 5.602575243E-01 -5.006193556E-02 8.196172504E-01
 5.735375583E-01 -4.813674465E-02 8.088774188E-01
 5.865364969E-01 -4.621552676E-02 7.956641615E-01
 5.994698703E-01 -4.427275620E-02 7.854945953E-01
 6.129884124E-01 -4.221164621E-02 7.715355490E-01
 6.270192564E-01 -4.006053507E-02 7.601621542E-01
 6.413068175E-01 -3.787123412E-02 7.498559188E-01
 6.550423503E-01 -3.576277010E-02 7.422034669E-01
 6.681093276E-01 -3.372481838E-02 7.294081125E-01
 6.811495125E-01 -3.171697445E-02 7.209165876E-01
 6.936290264E-01 -2.980619855E-02 7.145411435E-01
 7.071524560E-01 -2.772994991E-02 7.040377112E-01
 7.211953700E-01 -2.559797931E-02 6.959181681E-01
 7.336559296E-01 -2.371538058E-02 6.881209856E-01
 7.463196814E-01 -2.181192487E-02 6.792779213E-01
 7.596053779E-01 -1.985154301E-02 6.714182873E-01
 7.727570534E-01 -1.793153211E-02 6.635520692E-01
 7.857136726E-01 -1.606653165E-02 6.542149943E-01
 7.983639836E-01 -1.429464808E-02 6.475806392E-01
 8.103044033E-01 -1.265155384E-02 6.399477645E-01
 8.214420974E-01 -1.114997687E-02 6.319435016E-01
 8.333296776E-01 -9.597158991E-03 6.234049484E-01
 8.458878100E-01 -8.040270768E-03 6.162092813E-01
 8.582904935E-01 -6.578867557E-03 6.088754833E-01
 8.698920012E-01 -5.289356457E-03 6.013311604E-01
 8.809126616E-01 -4.161083722E-03 5.959789647E-01
 8.926935196E-01 -3.049489926E-03 5.897126459E-01
 9.040859342E-01 -2.083305444E-03 5.835106202E-01
 9.144836366E-01 -1.314497000E-03 5.796522814E-01
 9.247686267E-01 -6.621203502E-04 5.753380255E-01
 9.449560046E-01 2.562711616E-04 5.716315357E-01
 9.573933780E-01 5.927919847E-04 5.705222371E-01
 9.705277085E-01 7.744648610E-04 5.677544098E-01
 9.832580984E-01 7.763025642E-04 5.607796249E-01
 9.947779477E-01 6.247150013E-04 5.427099830E-01
 -5.000000000E-01 9.500000000E-01 7.207535411E-01
 -5.000000000E-01 9.000000000E-01 7.165772474E-01
 -5.000000000E-01 8.500000000E-01 7.133554515E-01
 -5.000000000E-01 8.000000000E-01 7.105517282E-01
 -5.000000000E-01 7.500000000E-01 7.078954407E-01
 -5.000000000E-01 7.000000000E-01 7.052460292E-01
 -5.000000000E-01 6.500000000E-01 7.025832581E-01
 -5.000000000E-01 6.000000000E-01 6.999041341E-01
 -5.000000000E-01 5.500000000E-01 6.971443213E-01
 -5.000000000E-01 5.000000000E-01 6.943289597E-01
 -5.000000000E-01 4.500000000E-01 6.915009238E-01
 -5.000000000E-01 4.000000000E-01 6.886567112E-01
 -5.000000000E-01 3.500000000E-01 6.857962009E-01
 -5.000000000E-01 3.000000000E-01 6.831265330E-01
 -5.000000000E-01 2.500000000E-01 6.806548429E-01
 -5.000000000E-01 2.000000000E-01 6.784952832E-01
 -5.000000000E-01 1.500000000E-01 6.766084081E-01
 -5.000000000E-01 1.000000000E-01 6.752122275E-01
 -5.000000000E-01 5.000000000E-02 6.743529193E-01
 -5.000000000E-01 2.752242878E-12 6.739771792E-01
 -5.000000000E-01 -5.000000000E-02 6.742373773E-01
 -5.000000000E-01 -1.000000000E-01 6.749868820E-01
 -5.000000000E-01 -1.500000000E-01 6.763064076E-01
 -5.000000000E-01 -2.000000000E-01 6.780790691E-01
 -5.000000000E-01 -2.500000000E-01 6.801933272E-01
 -5.000000000E-01 -3.000000000E-01 6.825880817E-01
 -5.000000000E-01 -3.500000000E-01 6.851956899E-01
 -5.000000000E-01 -4.000000000E-01 6.879278297E-01
 -5.000000000E-01 -4.500000000E-01 6.907207228E-01
 -5.000000000E-01 -5.000000000E-01 6.935439451E-01
 -5.000000000E-01 -5.500000000E-01 6.963115628E-01
 -5.000000000E-01 -6.000000000E-01 6.990702567E-01
 -5.000000000E-01 -6.500000000E-01 7.017776660E-01
 -5.000000000E-01 -7.000000000E-01 7.044288249E-01
 -5.000000000E-01 -7.500000000E-01 7.070836151E-01
 -5.000000000E-01 -8.000000000E-01 7.098028469E-01
 -5.000000000E-01 -8.500000000E-01 7.126962243E-01
 -5.000000000E-01 -9.000000000E-01 7.160064610E-01
 -5.000000000E-01 -9.500000000E-01 7.203567186E-01
 -4.500000000E-01 -1.000000000E+00 7.201727890E-01
 -4.000000000E-01 -1.000000000E+00 7.159362973E-01
 -3.500000000E-01 -1.000000000E+00 7.132302078E-01
 -3.000000000E-01 -1.000000000E+00 7.115067782E-01
 -2.500000000E-01 -1.000000000E+00 7.104568090E-01
 -2.000000000E-01 -1.000000000E+00 7.101565592E-01
 -1.500000000E-01 -1.000000000E+00 7.105354012E-01
 -1.000000000E-01 -1.000000000E+00 7.116563788E-01
 -5.000000000E-02 -1.000000000E+00 7.133452780E-01
 -9.424683256E-13 -1.000000000E+00 7.158398612E-01
 5.000000000E-02 -1.000000000E+00 7.190393556E-01
 1.000000000E-01 -1.000000000E+00 7.228085077E-01
 1.500000000E-01 -1.000000000E+00 7.270062473E-01
 2.000000000E-01 -1.000000000E+00 7.312867054E-01
 2.500000000E-01 -1.000000000E+00 7.355572117E-01
 3.000000000E-01 -1.000000000E+00 7.395144762E-01
 3.500000000E-01 -1.000000000E+00 7.428986650E-01
 4.000000000E-01 -1.000000000E+00 7.456107255E-01
 4.500000000E-01 -1.000000000E+00 7.473138859E-01
 5.000000000E-01 -1.000000000E+00 7.481456605E-01
 5.500000000E-01 -1.000000000E+00 7.482385218E-01
 6.000000000E-01 -1.000000000E+00 7.474403877E-01
 6.500000000E-01 -1.000000000E+00 7.458777200E-01
 7.000000000E-01 -1.000000000E+00 7.437514450E-01
 7.500000000E-01 -1.000000000E+00 7.411953161E-01
 8.000000000E-01 -1.000000000E+00 7.384161168E-01
 8.500000000E-01 -1.000000000E+00 7.354350528E-01
 9.000000000E-01 -1.000000000E+00 7.324159968E-01
 9.500000000E-01 -1.000000000E+00 7.293612333E-01
 1.000000000E+00 -1.000000000E+00 7.264293489E-01
 1.050000000E+00 -1.000000000E+00 7.237155548E-01
 1.100000000E+00 -1.000000000E+00 7.213442133E-01
 1.150000000E+00 -1.000000000E+00 7.191976986E-01
 1.200000000E+00 -1.000000000E+00 7.173565420E-01
 1.250000000E+00 -1.000000000E+00 7.159643949E-01
 1.300000000E+00 -1.000000000E+00 7.148209809E-01
 1.350000000E+00 -1.000000000E+00 7.140085527E-01
 1.400000000E+00 -1.000000000E+00 7.134110706E-01
 1.450000000E+00 -1.000000000E+00 7.129957455E-01
 1.500000000E+00 -1.000000000E+00 7.127747125E-01
 1.550000000E+00 -1.000000000E+00 7.126646568E-01
 1.600000000E+00 -1.000000000E+00 7.127094686E-01
 1.650000000E+00 -1.000000000E+00 7.128166537E-01
 1.700000000E+00 -1.000000000E+00 7.132227430E-01
 1.750000000E+00 -1.000000000E+00 7.135238907E-01
 1.800000000E+00 -1.000000000E+00 7.138286571E-01
 1.850000000E+00 -1.000000000E+00 7.142043636E-01
 1.900000000E+00 -1.000000000E+00 7.145951443E-01
 1.950000000E+00 -1.000000000E+00 7.149606587E-01
 2.000000000E+00 -1.000000000E+00 7.154270937E-01
 2.050000000E+00 -1.000000000E+00 7.159006842E-01
 2.100000000E+00 -1.000000000E+00 7.163785715E-01
 2.150000000E+00 -1.000000000E+00 7.167876209E-01
 2.200000000E+00 -1.000000000E+00 7.172514934E-01
 2.250000000E+00 -1.000000000E+00 7.176479377E-01
 2.300000000E+00 -1.000000000E+00 7.180840667E-01
 2.350000000E+00 -1.000000000E+00 7.184369553E-01
 2.400000000E+00 -1.000000000E+00 7.188289181E-01
 2.450000000E+00 -1.000000000E+00 7.191470522E-01
 2.500000000E+00 -1.000000000E+00 7.194184608E-01
 2.550000000E+00 -1.000000000E+00 7.197264838E-01
 2.600000000E+00 -1.000000000E+00 7.199949089E-01
 2.650000000E+00 -1.000000000E+00 7.203052582E-01
 2.700000000E+00 -1.000000000E+00 7.205256048E-01
 2.750000000E+00 -1.000000000E+00 7.207438524E-01
 2.800000000E+00 -1.000000000E+00 7.209722694E-01
 2.850000000E+00 -1.000000000E+00 7.211736017E-01
 2.900000000E+00 -1.000000000E+00 7.213456561E-01
 2.950000000E+00 -1.000000000E+00 7.214406818E-01
 3.000000000E+00 -1.000000000E+00 7.216022194E-01
 3.050000000E+00 -1.000000000E+00 7.216512193E-01
 3.100000000E+00 -1.000000000E+00 7.218007080E-01
 3.150000000E+00 -1.000000000E+00 7.218703326E-01
 3.200000000E+00 -1.000000000E+00 7.220227389E-01
 3.250000000E+00 -1.000000000E+00 7.221580275E-01
 3.300000000E+00 -1.000000000E+00 7.224714271E-01
 3.350000000E+00 -1.000000000E+00 7.230039874E-01
 3.400000000E+00 -1.000000000E+00 7.234676814E-01
 3.450000000E+00 -1.000000000E+00 7.247344653E-01
 3.500000000E+00 -9.500000000E-01 7.294701998E-01
 3.500000000E+00 -9.000000000E-01 7.305441956E-01
 3.500000000E+00 -8.500000000E-01 7.312182969E-01
 3.500000000E+00 -8.000000000E-01 7.316597760E-01
 3.500000000E+00 -7.500000000E-01 7.319512329E-01
 3.500000000E+00 -7.000000000E-01 7.322285558E-01
 3.500000000E+00 -6.500000000E-01 7.325422066E-01
 3.500000000E+00 -6.000000000E-01 7.328908383E-01
 3.500000000E+00 -5.500000000E-01 7.332856652E-01
 3.500000000E+00 -5.000000000E-01 7.336783384E-01
 3.500000000E+00 -4.500000000E-01 7.340698348E-01
 3.500000000E+00 -4.000000000E-01 7.344607969E-01
 3.500000000E+00 -3.500000000E-01 7.348794556E-01
 3.500000000E+00 -3.000000000E-01 7.352952211E-01
 3.500000000E+00 -2.500000000E-01 7.356709624E-01
 3.500000000E+00 -2.000000000E-01 7.359221553E-01
 3.500000000E+00 -1.500000000E-01 7.360473012E-01
 3.500000000E+00 -1.000000000E-01 7.360860476E-01
 3.500000000E+00 -5.000000000E-02 7.360861298E-01
 3.500000000E+00 -2.752242878E-12 7.360922714E-01
 3.500000000E+00 5.000000000E-02 7.360580622E-01
 3.500000000E+00 1.000000000E-01 7.358936986E-01
 3.500000000E+00 1.500000000E-01 7.355950183E-01
 3.500000000E+00 2.000000000E-01 7.352244767E-01
 3.500000000E+00 2.500000000E-01 7.348238020E-01
 3.500000000E+00 3.000000000E-01 7.344312488E-01
 3.500000000E+00 3.500000000E-01 7.340450062E-01
 3.500000000E+00 4.000000000E-01 7.336609002E-01
 3.500000000E+00 4.500000000E-01 7.332292085E-01
 3.500000000E+00 5.000000000E-01 7.327276153E-01
 3.500000000E+00 5.500000000E-01 7.322755235E-01
 3.500000000E+00 6.000000000E-01 7.320767538E-01
 3.500000000E+00 6.500000000E-01 7.323014424E-01
 3.500000000E+00 7.000000000E-01 7.327932171E-01
 3.500000000E+00 7.500000000E-01 7.327659418E-01
 3.500000000E+00 8.000000000E-01 7.313735169E-01
 3.500000000E+00 8.500000000E-01 7.280626167E-01
 3.500000000E+00 9.000000000E-01 7.233803354E-01
 3.500000000E+00 9.500000000E-01 7.178126642E-01
 3.450000000E+00 1.000000000E+00 6.964302398E-01
 3.400000000E+00 1.000000000E+00 6.915317052E-01
 3.350000000E+00 1.000000000E+00 6.903358095E-01
 3.300000000E+00 1.000000000E+00 6.897966301E-01
 3.250000000E+00 1.000000000E+00 6.892854150E-01
 3.200000000E+00 1.000000000E+00 6.892736449E-01
 3.150000000E+00 1.000000000E+00 6.898269964E-01
 3.100000000E+00 1.000000000E+00 6.903188818E-01
 3.050000000E+00 1.000000000E+00 6.905209528E-01
 3.000000000E+00 1.000000000E+00 6.908931631E-01
 2.950000000E+00 1.000000000E+00 6.914755828E-01
 2.900000000E+00 1.000000000E+00 6.919802522E-01
 2.850000000E+00 1.000000000E+00 6.921764575E-01
 2.800000000E+00 1.000000000E+00 6.928635969E-01
 2.750000000E+00 1.000000000E+00 6.934844194E-01
 2.700000000E+00 1.000000000E+00 6.940898370E-01
 2.650000000E+00 1.000000000E+00 6.948130321E-01
 2.600000000E+00 1.000000000E+00 6.952021026E-01
 2.550000000E+00 1.000000000E+00 6.952959343E-01
 2.500000000E+00 1.000000000E+00 6.955041960E-01
 2.450000000E+00 1.000000000E+00 6.957532576E-01
 2.400000000E+00 1.000000000E+00 6.961389673E-01
 2.350000000E+00 1.000000000E+00 6.968717179E-01
 2.300000000E+00 1.000000000E+00 6.973538343E-01
 2.250000000E+00 1.000000000E+00 6.980224268E-01
 2.200000000E+00 1.000000000E+00 6.985822667E-01
 2.150000000E+00 1.000000000E+00 6.988737071E-01
 2.100000000E+00 1.000000000E+00 6.995743770E-01
 2.050000000E+00 1.000000000E+00 7.000924137E-01
 2.000000000E+00 1.000000000E+00 7.013615665E-01
 1.950000000E+00 1.000000000E+00 7.021790970E-01
 1.900000000E+00 1.000000000E+00 7.022100585E-01
 1.850000000E+00 1.000000000E+00 7.033116707E-01
 1.800000000E+00 1.000000000E+00 7.042672632E-01
 1.750000000E+00 1.000000000E+00 7.047503260E-01
 1.700000000E+00 1.000000000E+00 7.063166721E-01
 1.650000000E+00 1.000000000E+00 7.077122053E-01
 1.600000000E+00 1.000000000E+00 7.092294292E-01
 1.550000000E+00 1.000000000E+00 7.105696727E-01
 1.500000000E+00 1.000000000E+00 7.123351338E-01
 1.450000000E+00 1.000000000E+00 7.143076404E-01
 1.400000000E+00 1.000000000E+00 7.165210104E-01
 1.350000000E+00 1.000000000E+00 7.191872831E-01
 1.300000000E+00 1.000000000E+00 7.219559762E-01
 1.250000000E+00 1.000000000E+00 7.248211000E-01
 1.200000000E+00 1.000000000E+00 7.281608761E-01
 1.150000000E+00 1.000000000E+00 7.318622951E-01
 1.100000000E+00 1.000000000E+00 7.358903704E-01
 1.050000000E+00 1.000000000E+00 7.391547356E-01
 1.000000000E+00 1.000000000E+00 7.437095626E-01
 9.500000000E-01 1.000000000E+00 7.476509685E-01
 9.000000000E-01 1.000000000E+00 7.521889082E-01
 8.500000000E-01 1.000000000E+00 7.565996399E-01
 8.000000000E-01 1.000000000E+00 7.618301838E-01
 7.500000000E-01 1.000000000E+00 7.650726912E-01
 7.000000000E-01 1.000000000E+00 7.694418844E-01
 6.500000000E-01 1.000000000E+00 7.713521671E-01
 6.000000000E-01 1.000000000E+00 7.716524215E-01
 5.500000000E-01 1.000000000E+00 7.707696190E-01
 5.000000000E-01 1.000000000E+00 7.693574826E-01
 4.500000000E-01 1.000000000E+00 7.660243338E-01
 4.000000000E-01 1.000000000E+00 7.617073737E-01
 3.500000000E-01 1.000000000E+00 7.566524055E-01
 3.000000000E-01 1.000000000E+00 7.511201816E-01
 2.500000000E-01 1.000000000E+00 7.451709523E-01
 2.000000000E-01 1.000000000E+00 7.391407877E-01
 1.500000000E-01 1.000000000E+00 7.332332064E-01
 1.000000000E-01 1.000000000E+00 7.277967936E-01
 5.000000000E-02 1.000000000E+00 7.231528976E-01
 1.733724275E-12 1.000000000E+00 7.191663483E-01
 -5.000000000E-02 1.000000000E+00 7.159292940E-01
 -1.000000000E-01 1.000000000E+00 7.136526558E-01
 -1.500000000E-01 1.000000000E+00 7.122109734E-01
 -2.000000000E-01 1.000000000E+00 7.115534035E-01
 -2.500000000E-01 1.000000000E+00 7.115995415E-01
 -3.000000000E-01 1.000000000E+00 7.124210194E-01
 -3.500000000E-01 1.000000000E+00 7.140375107E-01
 -4.000000000E-01 1.000000000E+00 7.166396116E-01
 -4.500000000E-01 1.000000000E+00 7.206023154E-01
 9.862598633E-01 -4.264198199E-03 5.654702143E-01
 8.900690531E-01 -8.242993801E-03 5.941896352E-01
 8.140874972E-01 -1.657715383E-02 6.388392381E-01
 7.439194886E-01 -2.783774565E-02 6.823902497E-01
 6.730152633E-01 -3.910527537E-02 7.269621811E-01
 6.035563826E-01 -4.904354301E-02 7.810186252E-01
 5.381872328E-01 -5.869977033E-02 8.472201610E-01
 4.801825628E-01 -6.549967267E-02 9.153367972E-01
 4.244873061E-01 -7.030585024E-02 9.484606037E-01
 3.696295802E-01 -7.270467771E-02 1.097173985E+00
 3.175687955E-01 -7.300806592E-02 1.058682400E+00
 2.639871704E-01 -7.064794940E-02 1.003800421E+00
 2.102657324E-01 -6.622603978E-02 9.622858773E-01
 1.579170685E-01 -6.050653994E-02 9.216660917E-01
 1.015483115E-01 -4.963047272E-02 8.795439145E-01
 6.261338089E-02 -4.368481984E-02 8.263017580E-01
 2.668291369E-02 -2.966659190E-02 7.246759090E-01