TITLE     = "Visualization of the solution"
VARIABLES = "x"
"y"
"Mach"
ZONE T="Zone"
 STRANDID=0, SOLUTIONTIME=0
 Nodes=11972, Elements=23363, ZONETYPE=FEQuadrilateral
 DATAPACKING=POINT
 DT=(DOUBLE DOUBLE DOUBLE )
 9.997867346E-01 5.239205202E-04 5.521199575E-01
 9.881888628E-01 2.672700910E-03 6.620063271E-01
 9.758170843E-01 4.874507897E-03 6.819824128E-01
 9.616847634E-01 7.481619250E-03 7.082951483E-01
 9.483002424E-01 9.917100891E-03 7.288092779E-01
 9.347220063E-01 1.233056467E-02 7.438342524E-01
 9.237787127E-01 1.427269541E-02 7.610123838E-01
 9.110972285E-01 1.643350720E-02 7.713291558E-01
 8.994534612E-01 1.840882003E-02 7.875527719E-01
 8.871273398E-01 2.042694017E-02 8.027771357E-01
 8.744035363E-01 2.237488516E-02 8.070018706E-01
 8.622284532E-01 2.420047112E-02 8.148201157E-01
 8.497955799E-01 2.603097074E-02 8.273803624E-01
 8.380258679E-01 2.765083872E-02 8.275043456E-01
 8.260345459E-01 2.927472070E-02 8.312719941E-01
 8.128781319E-01 3.102351166E-02 8.360170985E-01
 8.000282049E-01 3.272237256E-02 8.463913995E-01
 7.878353000E-01 3.427450359E-02 8.514704518E-01
 7.752773762E-01 3.582362458E-02 8.543479982E-01
 7.627497315E-01 3.735997528E-02 8.628012131E-01
 7.493228316E-01 3.894817457E-02 8.668697808E-01
 7.353378534E-01 4.057868198E-02 8.753659741E-01
 7.245047688E-01 4.181884229E-02 8.835221857E-01
 7.130225301E-01 4.307923838E-02 8.869783541E-01
 7.012222409E-01 4.436581209E-02 8.962769276E-01
 6.871672869E-01 4.582225904E-02 9.014166384E-01
 6.738909483E-01 4.717420787E-02 9.121932963E-01
 6.638700962E-01 4.814281687E-02 9.163001815E-01
 6.521103382E-01 4.926048964E-02 9.256381089E-01
 6.406919360E-01 5.028415844E-02 9.311106946E-01
 6.289784908E-01 5.131686479E-02 9.428439902E-01
 6.177050471E-01 5.222538114E-02 9.436568095E-01
 6.065872908E-01 5.311223865E-02 9.576319567E-01
 5.938982368E-01 5.404739082E-02 9.632940490E-01
 5.820344090E-01 5.484393239E-02 9.650480619E-01
 5.688138604E-01 5.569913611E-02 9.784891511E-01
 5.564459562E-01 5.641391873E-02 9.862240134E-01
 5.444651842E-01 5.704687163E-02 9.922246947E-01
 5.335962772E-01 5.754595995E-02 9.931062436E-01
 5.220543742E-01 5.803934485E-02 9.992388380E-01
 5.091235042E-01 5.850227922E-02 1.000529855E+00
 4.979601800E-01 5.884841457E-02 9.992750463E-01
 4.848403037E-01 5.917353556E-02 9.981184249E-01
 4.717023373E-01 5.944209918E-02 1.001780705E+00
 4.574587345E-01 5.963522196E-02 9.996015842E-01
 4.439323246E-01 5.973061919E-02 9.958260395E-01
 4.309614599E-01 5.975060537E-02 9.915154658E-01
 4.179695547E-01 5.969100073E-02 9.868556630E-01
 4.057690501E-01 5.957837403E-02 9.846505066E-01
 3.934726417E-01 5.939301848E-02 9.790168479E-01
 3.809853494E-01 5.913662910E-02 9.730354583E-01
 3.699036241E-01 5.885488167E-02 9.660362923E-01
 3.570707440E-01 5.847075582E-02 9.624672790E-01
 3.450182676E-01 5.806098506E-02 9.606056286E-01
 3.324866593E-01 5.755368993E-02 9.549273748E-01
 3.216635585E-01 5.706945434E-02 9.497860176E-01
 3.093767762E-01 5.644861236E-02 9.422659409E-01
 2.960096002E-01 5.572344735E-02 9.387817148E-01
 2.819324136E-01 5.485857651E-02 9.306008917E-01
 2.688912451E-01 5.399920419E-02 9.270939467E-01
 2.566911280E-01 5.312279239E-02 9.212796110E-01
 2.438118607E-01 5.212711170E-02 9.152931878E-01
 2.307986170E-01 5.104641989E-02 9.094031574E-01
 2.181615233E-01 4.992498085E-02 9.043633357E-01
 2.063428611E-01 4.880119115E-02 8.978747773E-01
 1.948437691E-01 4.764674231E-02 8.918490479E-01
 1.821470857E-01 4.629486799E-02 8.854387470E-01
 1.700975895E-01 4.493832961E-02 8.797624457E-01
 1.583111584E-01 4.354001954E-02 8.751406043E-01
 1.461685151E-01 4.200713709E-02 8.692920125E-01
 1.352035850E-01 4.053712264E-02 8.622063826E-01
 1.235577837E-01 3.888699785E-02 8.553895806E-01
 1.119893640E-01 3.715588525E-02 8.501122342E-01
 1.010942310E-01 3.541143984E-02 8.427146158E-01
 9.103133529E-02 3.370582312E-02 8.354064239E-01
 7.986234128E-02 3.168459609E-02 8.273963338E-01
 6.797665358E-02 2.936072834E-02 8.175346235E-01
 5.855003372E-02 2.736566402E-02 8.088719021E-01
 4.898333922E-02 2.516623959E-02 7.989142973E-01
 4.053676128E-02 2.303538471E-02 7.890238822E-01
 3.344112635E-02 2.107286640E-02 7.773503710E-01
 2.732486837E-02 1.921234466E-02 7.637685311E-01
 2.204968408E-02 1.743914187E-02 7.522842785E-01
 1.831307076E-02 1.606550068E-02 7.382704824E-01
 1.479777601E-02 1.464202534E-02 7.220356567E-01
 1.223610807E-02 1.350882277E-02 7.050858641E-01
 9.945902973E-03 1.239995472E-02 6.881710077E-01
 8.281040005E-03 1.152497996E-02 6.727171157E-01
 6.785328034E-03 1.067334134E-02 6.560519733E-01
 5.368189886E-03 9.790919721E-03 6.287195755E-01
 3.481573192E-03 8.468381129E-03 5.875799043E-01
 1.821434591E-03 7.086340804E-03 5.390314538E-01
 4.216225934E-04 5.639076699E-03 4.559233747E-01
 -9.590348345E-04 3.661530092E-03 3.333227136E-01
 -1.616494264E-03 2.100678161E-03 2.172379956E-01
 -1.879342017E-03 8.502493729E-04 1.053877713E-01
 -1.903904486E-03 -5.893986090E-04 2.867286402E-02
 -1.582710771E-03 -2.203369513E-03 1.682948049E-01
 -7.833012496E-04 -4.041475244E-03 2.931841451E-01
 5.492916680E-04 -5.985673051E-03 3.997400896E-01
 2.486709505E-03 -8.035233244E-03 4.884977667E-01
 4.232784733E-03 -9.519576095E-03 5.497598474E-01
 6.281887647E-03 -1.101369876E-02 5.937321148E-01
 7.840383798E-03 -1.202190295E-02 6.265325961E-01
 9.853754193E-03 -1.321347896E-02 6.534943516E-01
 1.217691321E-02 -1.445843186E-02 6.800462133E-01
 1.539373118E-02 -1.601218432E-02 7.059988956E-01
 1.842948794E-02 -1.733958721E-02 7.298409681E-01
 2.225541137E-02 -1.886655018E-02 7.459466676E-01
 2.761825733E-02 -2.078608051E-02 7.623509596E-01
 3.334995359E-02 -2.263630368E-02 7.799769494E-01
 4.077579826E-02 -2.478019707E-02 7.949085463E-01
 4.842706770E-02 -2.677999064E-02 8.071813862E-01
 5.745853111E-02 -2.890996262E-02 8.157415888E-01
 6.635300070E-02 -3.083144873E-02 8.244984904E-01
 7.653495669E-02 -3.285219893E-02 8.332256692E-01
 8.661874384E-02 -3.470231593E-02 8.404635246E-01
 9.714364260E-02 -3.649725765E-02 8.466072836E-01
 1.080335006E-01 -3.822927177E-02 8.523748941E-01
 1.196749583E-01 -3.995961323E-02 8.584273649E-01
 1.311721802E-01 -4.156671837E-02 8.656191059E-01
 1.420957148E-01 -4.299818352E-02 8.712299922E-01
 1.531990021E-01 -4.437654093E-02 8.778527164E-01
 1.651465595E-01 -4.576671496E-02 8.839809213E-01
 1.769156456E-01 -4.705377668E-02 8.904743818E-01
 1.889688969E-01 -4.829201102E-02 8.973263851E-01
 1.996368468E-01 -4.931961745E-02 9.043467666E-01
 2.110991180E-01 -5.035785213E-02 9.120710960E-01
 2.235034704E-01 -5.139173567E-02 9.182144316E-01
 2.364076078E-01 -5.238318071E-02 9.261499687E-01
 2.487563491E-01 -5.324521661E-02 9.342918019E-01
 2.614761889E-01 -5.404818803E-02 9.426351868E-01
 2.728553712E-01 -5.469389632E-02 9.541302776E-01
 2.857782841E-01 -5.531600863E-02 9.603448789E-01
 2.986443937E-01 -5.583805591E-02 9.681558670E-01
 3.113811910E-01 -5.625179410E-02 9.771361832E-01
 3.229806721E-01 -5.653172731E-02 9.842771741E-01
 3.351733685E-01 -5.673110113E-02 9.913978864E-01
 3.459757864E-01 -5.681337416E-02 9.971745049E-01
 3.572649956E-01 -5.681153387E-02 1.001791601E+00
 3.682030439E-01 -5.670723319E-02 1.002669350E+00
 3.788439631E-01 -5.651678890E-02 1.000437498E+00
 3.902553022E-01 -5.621128529E-02 9.955392146E-01
 4.027099013E-01 -5.575448647E-02 9.875392002E-01
 4.150722027E-01 -5.516326427E-02 9.742601805E-01
 4.281198978E-01 -5.441478267E-02 9.610129389E-01
 4.406310022E-01 -5.356360227E-02 9.472125814E-01
 4.533161521E-01 -5.259170011E-02 9.355272662E-01
 4.654780924E-01 -5.151732266E-02 9.158324611E-01
 4.779265821E-01 -5.033206940E-02 9.000094872E-01
 4.895633161E-01 -4.914656654E-02 8.893437749E-01
 5.018277764E-01 -4.777358472E-02 8.673686034E-01
 5.155729651E-01 -4.619086534E-02 8.541684017E-01
 5.293898582E-01 -4.448896646E-02 8.358843169E-01
 5.432065725E-01 -4.274694622E-02 8.233582221E-01
 5.566764474E-01 -4.096876830E-02 8.069088765E-01
 5.695426464E-01 -3.925373778E-02 7.959274172E-01
 5.829055905E-01 -3.741440177E-02 7.811250379E-01
 5.949211717E-01 -3.577029333E-02 7.740424161E-01
 6.070122719E-01 -3.405448794E-02 7.587054166E-01
 6.209278107E-01 -3.213249147E-02 7.521234487E-01
 6.353390813E-01 -3.009785712E-02 7.401254824E-01
 6.493422389E-01 -2.809823677E-02 7.262174498E-01
 6.631153226E-01 -2.620251663E-02 7.211116734E-01
 6.766644120E-01 -2.431928553E-02 7.117037904E-01
 6.891758442E-01 -2.258180454E-02 7.021921457E-01
 7.019852996E-01 -2.084063366E-02 6.952822368E-01
 7.164049149E-01 -1.890932769E-02 6.880485123E-01
 7.293154001E-01 -1.718607172E-02 6.796121159E-01
 7.409616113E-01 -1.564812846E-02 6.711500914E-01
 7.533337474E-01 -1.405838598E-02 6.641736548E-01
 7.657608986E-01 -1.252916362E-02 6.606461981E-01
 7.781285644E-01 -1.098558679E-02 6.500222165E-01
 7.896887064E-01 -9.611658752E-03 6.443060285E-01
 8.021271825E-01 -8.185548708E-03 6.378468218E-01
 8.131609559E-01 -6.969522685E-03 6.322627664E-01
 8.246803880E-01 -5.738987587E-03 6.247052250E-01
 8.373029232E-01 -4.481673706E-03 6.184984962E-01
 8.498641253E-01 -3.337556729E-03 6.143797815E-01
 8.617325425E-01 -2.317956183E-03 6.076947383E-01
 8.739454746E-01 -1.373057719E-03 6.025264288E-01
 8.860536814E-01 -5.492873024E-04 5.977142536E-01
 8.994997144E-01 2.073421201E-04 5.939567160E-01
 9.096880555E-01 6.723088445E-04 5.917550739E-01
 9.197924137E-01 1.038610353E-03 5.902778506E-01
 9.292623401E-01 1.287694788E-03 5.898803040E-01
 9.381774068E-01 1.443560584E-03 5.898034019E-01
 9.506158233E-01 1.540210331E-03 5.903189711E-01
 9.635287523E-01 1.495864592E-03 5.905207316E-01
 9.775388837E-01 1.276806695E-03 5.897787114E-01
 9.896347523E-01 9.423279553E-04 5.824390994E-01
 -5.000000000E-01 -1.000000000E+00 7.244414390E-01
 3.500000000E+00 -1.000000000E+00 7.282443370E-01
 3.500000000E+00 1.000000000E+00 7.142230130E-01
 -5.000000000E-01 1.000000000E+00 7.248644089E-01
 9.939877987E-01 1.598310715E-03 6.349375016E-01
 9.820029736E-01 3.773604403E-03 6.709363442E-01
 9.687509239E-01 6.178063573E-03 6.952348451E-01
 9.549925029E-01 8.699360071E-03 7.194010799E-01
 9.415111244E-01 1.112383278E-02 7.363114333E-01
 9.292503595E-01 1.330163004E-02 7.531150984E-01
 9.174379706E-01 1.535310131E-02 7.658672148E-01
 9.052753448E-01 1.742116362E-02 7.792913939E-01
 8.932904005E-01 1.941788010E-02 7.963232505E-01
 8.807654381E-01 2.140091266E-02 8.049165614E-01
 8.683159947E-01 2.328767814E-02 8.101842970E-01
 8.560120165E-01 2.511572093E-02 8.221998258E-01
 8.439107239E-01 2.684090473E-02 8.274867953E-01
 8.320302069E-01 2.846277971E-02 8.293093348E-01
 8.194563389E-01 3.014911618E-02 8.329611099E-01
 8.064531684E-01 3.187294211E-02 8.413950174E-01
 7.939317524E-01 3.349843808E-02 8.495833604E-01
 7.815563381E-01 3.504906408E-02 8.521558353E-01
 7.690135539E-01 3.659179993E-02 8.590550129E-01
 7.560362816E-01 3.815407492E-02 8.646064037E-01
 7.423303425E-01 3.976342827E-02 8.705057195E-01
 7.299213111E-01 4.119876213E-02 8.805271012E-01
 7.187636495E-01 4.244904034E-02 8.842588116E-01
 7.071223855E-01 4.372252524E-02 8.925554119E-01
 6.941947639E-01 4.509403557E-02 8.979164777E-01
 6.805291176E-01 4.649823345E-02 9.073201390E-01
 6.579902172E-01 4.870165326E-02 9.218206596E-01
 6.464011371E-01 4.977232404E-02 9.269212236E-01
 6.348352134E-01 5.080051161E-02 9.389151019E-01
 6.233417690E-01 5.177112296E-02 9.417340340E-01
 6.121461689E-01 5.266880989E-02 9.509636644E-01
 6.002427638E-01 5.357981473E-02 9.617943036E-01
 5.879663229E-01 5.444566160E-02 9.625471366E-01
 5.754241347E-01 5.527153425E-02 9.723191617E-01
 5.626299083E-01 5.605652742E-02 9.820525788E-01
 5.504555702E-01 5.673039518E-02 9.906160890E-01
 5.390307307E-01 5.729641579E-02 9.915059232E-01
 5.278253257E-01 5.779265240E-02 9.973831979E-01
 5.155889392E-01 5.827081203E-02 9.993174736E-01
 5.035418421E-01 5.867534690E-02 1.001203077E+00
 4.914002419E-01 5.901097506E-02 9.973238250E-01
 4.782713205E-01 5.930781737E-02 1.000706889E+00
 4.645805359E-01 5.953866057E-02 1.001063089E+00
 4.506955296E-01 5.968292058E-02 9.975220442E-01
 4.374468923E-01 5.974061228E-02 9.941690664E-01
 4.244655073E-01 5.972080305E-02 9.884761775E-01
 4.118693024E-01 5.963468738E-02 9.861431449E-01
 3.996208459E-01 5.948569626E-02 9.820815602E-01
 3.872289956E-01 5.926482379E-02 9.758573697E-01
 3.754444867E-01 5.899575539E-02 9.698114207E-01
 3.634871840E-01 5.866281874E-02 9.633035245E-01
 3.510445058E-01 5.826587044E-02 9.625564172E-01
 3.387524635E-01 5.780733749E-02 9.570634317E-01
 3.270751089E-01 5.731157213E-02 9.534027383E-01
 3.155201674E-01 5.675903335E-02 9.450305477E-01
 3.026931882E-01 5.608602986E-02 9.414849417E-01
 2.889710069E-01 5.529101193E-02 9.339827135E-01
 2.754118294E-01 5.442889035E-02 9.289204460E-01
 2.627911866E-01 5.356099829E-02 9.244343693E-01
 2.502514943E-01 5.262495205E-02 9.182648446E-01
 2.373052388E-01 5.158676580E-02 9.122705227E-01
 2.244800702E-01 5.048570037E-02 9.068849670E-01
 2.122521922E-01 4.936308600E-02 9.010682671E-01
 2.005933151E-01 4.822396673E-02 8.951871948E-01
 1.884954274E-01 4.697080515E-02 8.884779725E-01
 1.761223376E-01 4.561659880E-02 8.823969453E-01
 1.642043740E-01 4.423917457E-02 8.777630022E-01
 1.522398368E-01 4.277357832E-02 8.720555272E-01
 1.406860501E-01 4.127212986E-02 8.661325944E-01
 1.293806843E-01 3.971206024E-02 8.584955123E-01
 1.177735738E-01 3.802144155E-02 8.529624451E-01
 1.065417975E-01 3.628366254E-02 8.462390629E-01
 9.606278315E-02 3.455863148E-02 8.395485523E-01
 8.544683829E-02 3.269520961E-02 8.317370317E-01
 7.391949743E-02 3.052266221E-02 8.229217179E-01
 7.144397870E-02 -3.184182383E-02 8.298713374E-01
 8.157685027E-02 -3.377725743E-02 8.370426150E-01
 9.188119322E-02 -3.559978679E-02 8.435813941E-01
 1.025885716E-01 -3.736326471E-02 8.495073913E-01
 1.138542295E-01 -3.909444250E-02 8.551797119E-01
 1.254235692E-01 -4.076316580E-02 8.620759129E-01
 1.366339475E-01 -4.228245094E-02 8.687273935E-01
 1.476473585E-01 -4.368736222E-02 8.743891464E-01
 1.591727808E-01 -4.507162794E-02 8.808680783E-01
 1.710311025E-01 -4.641024582E-02 8.873360004E-01
 1.829422712E-01 -4.767289385E-02 8.936211549E-01
 1.943028718E-01 -4.880581424E-02 9.011833884E-01
 2.053679824E-01 -4.983873479E-02 9.078990086E-01
 2.173012942E-01 -5.087479390E-02 9.152933907E-01
 2.299555391E-01 -5.188745819E-02 9.218256032E-01
 2.425819784E-01 -5.281419866E-02 9.304009906E-01
 2.551162690E-01 -5.364670232E-02 9.381697746E-01
 2.671657801E-01 -5.437104218E-02 9.484967303E-01
 2.793168277E-01 -5.500495248E-02 9.575680900E-01
 2.922113389E-01 -5.557703227E-02 9.638846678E-01
 3.050127923E-01 -5.604492500E-02 9.726096936E-01
 3.171809316E-01 -5.639176071E-02 9.812290373E-01
 3.290770203E-01 -5.663141422E-02 9.873038972E-01
 3.405745775E-01 -5.677223764E-02 9.952183578E-01
 3.516203910E-01 -5.681245402E-02 9.990865230E-01
 3.627340198E-01 -5.675938353E-02 1.003151245E+00
 3.735235035E-01 -5.661201105E-02 1.001821078E+00
 3.845496327E-01 -5.636403710E-02 9.982970730E-01
 3.964826018E-01 -5.598288588E-02 9.916628386E-01
 4.088910520E-01 -5.545887537E-02 9.820191854E-01
 4.215960503E-01 -5.478902347E-02 9.668900801E-01
 4.343754500E-01 -5.398919247E-02 9.546851761E-01
 4.469735771E-01 -5.307765119E-02 9.409797531E-01
 4.593971223E-01 -5.205451138E-02 9.269872272E-01
 4.717023373E-01 -5.092469603E-02 9.066576361E-01
 4.837449491E-01 -4.973931797E-02 8.949973629E-01
 4.956955463E-01 -4.846007563E-02 8.791628990E-01
 5.087003708E-01 -4.698222503E-02 8.596322015E-01
 5.224814117E-01 -4.533991590E-02 8.457630230E-01
 5.362982154E-01 -4.361795634E-02 8.290208242E-01
 5.499415100E-01 -4.185785726E-02 8.155147146E-01
 5.631095469E-01 -4.011125304E-02 8.011576205E-01
 5.762241185E-01 -3.833406977E-02 7.885609579E-01
 5.889133811E-01 -3.659234755E-02 7.770686453E-01
 6.009667218E-01 -3.491239063E-02 7.669956316E-01
 6.139700413E-01 -3.309348971E-02 7.547073407E-01
 6.281334460E-01 -3.111517429E-02 7.466547387E-01
 6.423406601E-01 -2.909804694E-02 7.330604817E-01
 6.562287807E-01 -2.715037670E-02 7.230762854E-01
 6.698898673E-01 -2.526090108E-02 7.167439002E-01
 6.829201281E-01 -2.345054504E-02 7.068680638E-01
 6.955805719E-01 -2.171121910E-02 6.985576267E-01
 7.091951072E-01 -1.987498067E-02 6.917577744E-01
 7.228601575E-01 -1.804769970E-02 6.839157179E-01
 7.351385057E-01 -1.641710009E-02 6.752292847E-01
 7.471476793E-01 -1.485325722E-02 6.675200679E-01
 7.595473230E-01 -1.329377480E-02 6.623547341E-01
 7.719447315E-01 -1.175737521E-02 6.556436771E-01
 7.839086354E-01 -1.029862277E-02 6.467954449E-01
 7.959079444E-01 -8.898603730E-03 6.412286432E-01
 8.076440692E-01 -7.577535696E-03 6.349067087E-01
 8.189206719E-01 -6.354255136E-03 6.286272531E-01
 8.309916556E-01 -5.110330647E-03 6.215822593E-01
 8.435835242E-01 -3.909615218E-03 6.163536602E-01
 8.557983339E-01 -2.827756456E-03 6.111083510E-01
 8.678390086E-01 -1.845506951E-03 6.050650422E-01
 8.799995780E-01 -9.611725109E-04 5.998941464E-01
 8.927766979E-01 -1.709725911E-04 5.961598022E-01
 9.045938849E-01 4.398254823E-04 5.922647261E-01
 9.147402346E-01 8.554595988E-04 5.908542056E-01
 9.443966150E-01 1.491885458E-03 5.903470261E-01
 9.570722878E-01 1.518037461E-03 5.903537470E-01
 9.705338180E-01 1.386335643E-03 5.907252698E-01
 9.835868180E-01 1.109567325E-03 5.861112831E-01
 9.947107434E-01 7.331242377E-04 5.811047741E-01
 -5.000000000E-01 9.500000000E-01 7.228400927E-01
 -5.000000000E-01 9.000000000E-01 7.196830381E-01
 -5.000000000E-01 8.500000000E-01 7.172249077E-01
 -5.000000000E-01 8.000000000E-01 7.150882256E-01
 -5.000000000E-01 7.500000000E-01 7.130663608E-01
 -5.000000000E-01 7.000000000E-01 7.110253154E-01
 -5.000000000E-01 6.500000000E-01 7.089782893E-01
 -5.000000000E-01 6.000000000E-01 7.068485993E-01
 -5.000000000E-01 5.500000000E-01 7.046805186E-01
 -5.000000000E-01 5.000000000E-01 7.024762939E-01
 -5.000000000E-01 4.500000000E-01 7.002150142E-01
 -5.000000000E-01 4.000000000E-01 6.979422397E-01
 -5.000000000E-01 3.500000000E-01 6.957243897E-01
 -5.000000000E-01 3.000000000E-01 6.935906145E-01
 -5.000000000E-01 2.500000000E-01 6.915856653E-01
 -5.000000000E-01 2.000000000E-01 6.898066162E-01
 -5.000000000E-01 1.500000000E-01 6.883244748E-01
 -5.000000000E-01 1.000000000E-01 6.871732404E-01
 -5.000000000E-01 5.000000000E-02 6.864311455E-01
 -5.000000000E-01 2.752242878E-12 6.861216201E-01
 -5.000000000E-01 -5.000000000E-02 6.862759377E-01
 -5.000000000E-01 -1.000000000E-01 6.868260968E-01
 -5.000000000E-01 -1.500000000E-01 6.877916444E-01
 -5.000000000E-01 -2.000000000E-01 6.891475931E-01
 -5.000000000E-01 -2.500000000E-01 6.907941511E-01
 -5.000000000E-01 -3.000000000E-01 6.926434210E-01
 -5.000000000E-01 -3.500000000E-01 6.946652769E-01
 -5.000000000E-01 -4.000000000E-01 6.967941782E-01
 -5.000000000E-01 -4.500000000E-01 6.989704506E-01
 -5.000000000E-01 -5.000000000E-01 7.011689780E-01
 -5.000000000E-01 -5.500000000E-01 7.033356983E-01
 -5.000000000E-01 -6.000000000E-01 7.054903758E-01
 -5.000000000E-01 -6.500000000E-01 7.076125515E-01
 -5.000000000E-01 -7.000000000E-01 7.097092122E-01
 -5.000000000E-01 -7.500000000E-01 7.117906405E-01
 -5.000000000E-01 -8.000000000E-01 7.139311661E-01
 -5.000000000E-01 -8.500000000E-01 7.162057975E-01
 -5.000000000E-01 -9.000000000E-01 7.188022211E-01
 -5.000000000E-01 -9.500000000E-01 7.222477948E-01
 -4.500000000E-01 -1.000000000E+00 7.220965676E-01
 -4.000000000E-01 -1.000000000E+00 7.187700994E-01
 -3.500000000E-01 -1.000000000E+00 7.165920376E-01
 -3.000000000E-01 -1.000000000E+00 7.151894553E-01
 -2.500000000E-01 -1.000000000E+00 7.143258312E-01
 -2.000000000E-01 -1.000000000E+00 7.140025848E-01
 -1.500000000E-01 -1.000000000E+00 7.142896858E-01
 -1.000000000E-01 -1.000000000E+00 7.151178174E-01
 -5.000000000E-02 -1.000000000E+00 7.164634285E-01
 -9.424683256E-13 -1.000000000E+00 7.183391058E-01
 5.000000000E-02 -1.000000000E+00 7.207196394E-01
 1.000000000E-01 -1.000000000E+00 7.235493840E-01
 1.500000000E-01 -1.000000000E+00 7.266187338E-01
 2.000000000E-01 -1.000000000E+00 7.297743322E-01
 2.500000000E-01 -1.000000000E+00 7.329340821E-01
 3.000000000E-01 -1.000000000E+00 7.358516566E-01
 3.500000000E-01 -1.000000000E+00 7.384099482E-01
 4.000000000E-01 -1.000000000E+00 7.404222325E-01
 4.500000000E-01 -1.000000000E+00 7.418817386E-01
 5.000000000E-01 -1.000000000E+00 7.425667204E-01
 5.500000000E-01 -1.000000000E+00 7.424862792E-01
 6.000000000E-01 -1.000000000E+00 7.418271599E-01
 6.500000000E-01 -1.000000000E+00 7.405841442E-01
 7.000000000E-01 -1.000000000E+00 7.389099051E-01
 7.500000000E-01 -1.000000000E+00 7.368555338E-01
 8.000000000E-01 -1.000000000E+00 7.346046047E-01
 8.500000000E-01 -1.000000000E+00 7.321756294E-01
 9.000000000E-01 -1.000000000E+00 7.297111883E-01
 9.500000000E-01 -1.000000000E+00 7.272758740E-01
 1.000000000E+00 -1.000000000E+00 7.249416732E-01
 1.050000000E+00 -1.000000000E+00 7.228793629E-01
 1.100000000E+00 -1.000000000E+00 7.210429873E-01
 1.150000000E+00 -1.000000000E+00 7.194222061E-01
 1.200000000E+00 -1.000000000E+00 7.180925635E-01
 1.250000000E+00 -1.000000000E+00 7.170322797E-01
 1.300000000E+00 -1.000000000E+00 7.162442898E-01
 1.350000000E+00 -1.000000000E+00 7.156562076E-01
 1.400000000E+00 -1.000000000E+00 7.152360917E-01
 1.450000000E+00 -1.000000000E+00 7.150194659E-01
 1.500000000E+00 -1.000000000E+00 7.149052267E-01
 1.550000000E+00 -1.000000000E+00 7.149329645E-01
 1.600000000E+00 -1.000000000E+00 7.150737078E-01
 1.650000000E+00 -1.000000000E+00 7.152821599E-01
 1.700000000E+00 -1.000000000E+00 7.156028348E-01
 1.750000000E+00 -1.000000000E+00 7.159365183E-01
 1.800000000E+00 -1.000000000E+00 7.163032281E-01
 1.850000000E+00 -1.000000000E+00 7.166955365E-01
 1.900000000E+00 -1.000000000E+00 7.171187997E-01
 1.950000000E+00 -1.000000000E+00 7.175310013E-01
 2.000000000E+00 -1.000000000E+00 7.179422031E-01
 2.050000000E+00 -1.000000000E+00 7.183447109E-01
 2.100000000E+00 -1.000000000E+00 7.187964728E-01
 2.150000000E+00 -1.000000000E+00 7.191645517E-01
 2.200000000E+00 -1.000000000E+00 7.195365705E-01
 2.250000000E+00 -1.000000000E+00 7.199585277E-01
 2.300000000E+00 -1.000000000E+00 7.203497390E-01
 2.350000000E+00 -1.000000000E+00 7.206880144E-01
 2.400000000E+00 -1.000000000E+00 7.210268302E-01
 2.450000000E+00 -1.000000000E+00 7.213408662E-01
 2.500000000E+00 -1.000000000E+00 7.216148996E-01
 2.550000000E+00 -1.000000000E+00 7.218654417E-01
 2.600000000E+00 -1.000000000E+00 7.220774406E-01
 2.650000000E+00 -1.000000000E+00 7.222980523E-01
 2.700000000E+00 -1.000000000E+00 7.225043737E-01
 2.750000000E+00 -1.000000000E+00 7.227247688E-01
 2.800000000E+00 -1.000000000E+00 7.228969536E-01
 2.850000000E+00 -1.000000000E+00 7.230642209E-01
 2.900000000E+00 -1.000000000E+00 7.232489914E-01
 2.950000000E+00 -1.000000000E+00 7.234367692E-01
 3.000000000E+00 -1.000000000E+00 7.235763377E-01
 3.050000000E+00 -1.000000000E+00 7.236908076E-01
 3.100000000E+00 -1.000000000E+00 7.238010222E-01
 3.150000000E+00 -1.000000000E+00 7.239306482E-01
 3.200000000E+00 -1.000000000E+00 7.240229358E-01
 3.250000000E+00 -1.000000000E+00 7.241982661E-01
 3.300000000E+00 -1.000000000E+00 7.244144656E-01
 3.350000000E+00 -1.000000000E+00 7.246922278E-01
 3.400000000E+00 -1.000000000E+00 7.250884897E-01
 3.450000000E+00 -1.000000000E+00 7.261281124E-01
 3.500000000E+00 -9.500000000E-01 7.295434516E-01
 3.500000000E+00 -9.000000000E-01 7.302060742E-01
 3.500000000E+00 -8.500000000E-01 7.306861670E-01
 3.500000000E+00 -8.000000000E-01 7.310091551E-01
 3.500000000E+00 -7.500000000E-01 7.312648922E-01
 3.500000000E+00 -7.000000000E-01 7.315042757E-01
 3.500000000E+00 -6.500000000E-01 7.317560047E-01
 3.500000000E+00 -6.000000000E-01 7.320380713E-01
 3.500000000E+00 -5.500000000E-01 7.323280527E-01
 3.500000000E+00 -5.000000000E-01 7.326188446E-01
 3.500000000E+00 -4.500000000E-01 7.329113195E-01
 3.500000000E+00 -4.000000000E-01 7.332193512E-01
 3.500000000E+00 -3.500000000E-01 7.335187237E-01
 3.500000000E+00 -3.000000000E-01 7.338194938E-01
 3.500000000E+00 -2.500000000E-01 7.340759573E-01
 3.500000000E+00 -2.000000000E-01 7.342755284E-01
 3.500000000E+00 -1.500000000E-01 7.343882107E-01
 3.500000000E+00 -1.000000000E-01 7.344283269E-01
 3.500000000E+00 -5.000000000E-02 7.344331310E-01
 3.500000000E+00 -2.752242878E-12 7.344163389E-01
 3.500000000E+00 5.000000000E-02 7.343707154E-01
 3.500000000E+00 1.000000000E-01 7.342658631E-01
 3.500000000E+00 1.500000000E-01 7.340678539E-01
 3.500000000E+00 2.000000000E-01 7.337867611E-01
 3.500000000E+00 2.500000000E-01 7.334866206E-01
 3.500000000E+00 3.000000000E-01 7.331696270E-01
 3.500000000E+00 3.500000000E-01 7.328681343E-01
 3.500000000E+00 4.000000000E-01 7.325761398E-01
 3.500000000E+00 4.500000000E-01 7.322582068E-01
 3.500000000E+00 5.000000000E-01 7.318874342E-01
 3.500000000E+00 5.500000000E-01 7.315110611E-01
 3.500000000E+00 6.000000000E-01 7.313039694E-01
 3.500000000E+00 6.500000000E-01 7.314008222E-01
 3.500000000E+00 7.000000000E-01 7.317222133E-01
 3.500000000E+00 7.500000000E-01 7.319080524E-01
 3.500000000E+00 8.000000000E-01 7.312772422E-01
 3.500000000E+00 8.500000000E-01 7.290906731E-01
 3.500000000E+00 9.000000000E-01 7.254672319E-01
 3.500000000E+00 9.500000000E-01 7.206943692E-01
 3.450000000E+00 1.000000000E+00 7.050752661E-01
 3.400000000E+00 1.000000000E+00 7.012624379E-01
 3.350000000E+00 1.000000000E+00 7.003827716E-01
 3.300000000E+00 1.000000000E+00 6.999477198E-01
 3.250000000E+00 1.000000000E+00 7.000259660E-01
 3.200000000E+00 1.000000000E+00 7.002174214E-01
 3.150000000E+00 1.000000000E+00 7.004625589E-01
 3.100000000E+00 1.000000000E+00 7.005738785E-01
 3.050000000E+00 1.000000000E+00 7.007644428E-01
 3.000000000E+00 1.000000000E+00 7.011183119E-01
 2.950000000E+00 1.000000000E+00 7.015316762E-01
 2.900000000E+00 1.000000000E+00 7.019187297E-01
 2.850000000E+00 1.000000000E+00 7.024507244E-01
 2.800000000E+00 1.000000000E+00 7.028264093E-01
 2.750000000E+00 1.000000000E+00 7.030697892E-01
 2.700000000E+00 1.000000000E+00 7.033420976E-01
 2.650000000E+00 1.000000000E+00 7.036595265E-01
 2.600000000E+00 1.000000000E+00 7.041625178E-01
 2.550000000E+00 1.000000000E+00 7.044313678E-01
 2.500000000E+00 1.000000000E+00 7.047575120E-01
 2.450000000E+00 1.000000000E+00 7.050623872E-01
 2.400000000E+00 1.000000000E+00 7.058758844E-01
 2.350000000E+00 1.000000000E+00 7.061948667E-01
 2.300000000E+00 1.000000000E+00 7.069110977E-01
 2.250000000E+00 1.000000000E+00 7.070304795E-01
 2.200000000E+00 1.000000000E+00 7.074912886E-01
 2.150000000E+00 1.000000000E+00 7.080118131E-01
 2.100000000E+00 1.000000000E+00 7.085794309E-01
 2.050000000E+00 1.000000000E+00 7.090428582E-01
 2.000000000E+00 1.000000000E+00 7.097359720E-01
 1.950000000E+00 1.000000000E+00 7.104172662E-01
 1.900000000E+00 1.000000000E+00 7.111194011E-01
 1.850000000E+00 1.000000000E+00 7.117905598E-01
 1.800000000E+00 1.000000000E+00 7.125693472E-01
 1.750000000E+00 1.000000000E+00 7.133180942E-01
 1.700000000E+00 1.000000000E+00 7.141763331E-01
 1.650000000E+00 1.000000000E+00 7.152125764E-01
 1.600000000E+00 1.000000000E+00 7.164393268E-01
 1.550000000E+00 1.000000000E+00 7.182000749E-01
 1.500000000E+00 1.000000000E+00 7.195140158E-01
 1.450000000E+00 1.000000000E+00 7.213062039E-01
 1.400000000E+00 1.000000000E+00 7.233883799E-01
 1.350000000E+00 1.000000000E+00 7.255104806E-01
 1.300000000E+00 1.000000000E+00 7.283930550E-01
 1.250000000E+00 1.000000000E+00 7.306287095E-01
 1.200000000E+00 1.000000000E+00 7.331257490E-01
 1.150000000E+00 1.000000000E+00 7.353350668E-01
 1.100000000E+00 1.000000000E+00 7.379278479E-01
 1.050000000E+00 1.000000000E+00 7.430767813E-01
 1.000000000E+00 1.000000000E+00 7.471445569E-01
 9.500000000E-01 1.000000000E+00 7.506294455E-01
 9.000000000E-01 1.000000000E+00 7.544180694E-01
 8.500000000E-01 1.000000000E+00 7.574785925E-01
 8.000000000E-01 1.000000000E+00 7.592359019E-01
 7.500000000E-01 1.000000000E+00 7.597220512E-01
 7.000000000E-01 1.000000000E+00 7.634145215E-01
 6.500000000E-01 1.000000000E+00 7.630151246E-01
 6.000000000E-01 1.000000000E+00 7.646701974E-01
 5.500000000E-01 1.000000000E+00 7.638028221E-01
 5.000000000E-01 1.000000000E+00 7.622581882E-01
 4.500000000E-01 1.000000000E+00 7.599887994E-01
 4.000000000E-01 1.000000000E+00 7.564055467E-01
 3.500000000E-01 1.000000000E+00 7.524196074E-01
 3.000000000E-01 1.000000000E+00 7.479261394E-01
 2.500000000E-01 1.000000000E+00 7.432899320E-01
 2.000000000E-01 1.000000000E+00 7.385828988E-01
 1.500000000E-01 1.000000000E+00 7.340389460E-01
 1.000000000E-01 1.000000000E+00 7.297156092E-01
 5.000000000E-02 1.000000000E+00 7.258819955E-01
 1.733724275E-12 1.000000000E+00 7.226946040E-01
 -5.000000000E-02 1.000000000E+00 7.200693131E-01
 -1.000000000E-01 1.000000000E+00 7.181070575E-01
 -1.500000000E-01 1.000000000E+00 7.167995455E-01
 -2.000000000E-01 1.000000000E+00 7.162016598E-01
 -2.500000000E-01 1.000000000E+00 7.161483873E-01
 -3.000000000E-01 1.000000000E+00 7.166943504E-01
 -3.500000000E-01 1.000000000E+00 7.178671110E-01
 -4.000000000E-01 1.000000000E+00 7.197879696E-01
 -4.500000000E-01 1.000000000E+00 7.227289831E-01
 9.860319696E-01 -3.791425585E-03 5.917525753E-01
 9.022209260E-01 -4.302832301E-03 5.963610934E-01
 8.223669277E-01 -1.093233150E-02 6.288005087E-01
 7.516405043E-01 -1.933906472E-02 6.669608243E-01
 6.802409543E-01 -2.878056673E-02 7.102148396E-01
 6.106496703E-01 -3.965668749E-02 7.582225727E-01
 5.485714529E-01 -4.733983620E-02 8.167797037E-01
 4.820770178E-01 -5.559067648E-02 8.934344115E-01
 4.253448785E-01 -6.005330696E-02 9.593602986E-01
 3.654033391E-01 -6.146502859E-02 9.986938678E-01
 3.141598467E-01 -6.134450006E-02 9.757468816E-01
 2.585050334E-01 -5.945323163E-02 9.379414972E-01
 1.971332188E-01 -5.448194307E-02 9.002487433E-01
 1.385892847E-01 -4.781206299E-02 8.668452364E-01
 8.837095022E-02 -3.943940189E-02 8.378086947E-01
 5.069504011E-02 -3.495782534E-02 7.975744582E-01
 1.576204494E-02 -1.930492824E-02 6.958151311E-01
 1.973572085E+00 -9.597535227E-01 7.192249115E-01
 1.975342606E+00 9.569032471E-01 7.194432823E-01