TITLE     = "Visualization of the solution"
VARIABLES = "x"
"y"
"Mach"
ZONE T="Zone"
 STRANDID=0, SOLUTIONTIME=0
 Nodes=11714, Elements=22847, ZONETYPE=FEQuadrilateral
 DATAPACKING=POINT
 DT=(DOUBLE DOUBLE DOUBLE )
 9.998063445E-01 5.074037472E-04 5.416376904E-01
 9.850580692E-01 3.416192718E-03 6.171210126E-01
 9.716711044E-01 5.971476901E-03 6.522639873E-01
 9.556564689E-01 9.019493125E-03 6.748658245E-01
 9.417843223E-01 1.177383400E-02 7.043260612E-01
 9.289262295E-01 1.417834032E-02 7.133434902E-01
 9.175528884E-01 1.635660790E-02 7.313550097E-01
 9.054421186E-01 1.860762574E-02 7.425556035E-01
 8.936696053E-01 2.077799849E-02 7.541957233E-01
 8.816576600E-01 2.299589477E-02 7.737803428E-01
 8.694335818E-01 2.512281947E-02 7.804221110E-01
 8.571386337E-01 2.720884047E-02 7.858026423E-01
 8.449115157E-01 2.928065322E-02 7.964060196E-01
 8.335736394E-01 3.119711578E-02 8.119435103E-01
 8.218738437E-01 3.306712210E-02 8.149388009E-01
 8.096185923E-01 3.502334654E-02 8.270257864E-01
 7.966698408E-01 3.699423745E-02 8.303396368E-01
 7.848154902E-01 3.877674043E-02 8.359366440E-01
 7.727256417E-01 4.060003906E-02 8.493066984E-01
 7.611144781E-01 4.228752106E-02 8.559220363E-01
 7.483825088E-01 4.408980906E-02 8.622639244E-01
 7.350117564E-01 4.595282301E-02 8.719936645E-01
 7.243905067E-01 4.740438610E-02 8.826025400E-01
 7.134367824E-01 4.886192083E-02 8.908444521E-01
 7.018254399E-01 5.033638328E-02 8.933217518E-01
 6.889851093E-01 5.197230354E-02 9.095466022E-01
 6.764012575E-01 5.348349363E-02 9.150984204E-01
 6.658275127E-01 5.472332984E-02 9.246559795E-01
 6.545816064E-01 5.600603670E-02 9.351367028E-01
 6.436939836E-01 5.717777461E-02 9.409712887E-01
 6.320129633E-01 5.841895565E-02 9.557818422E-01
 6.207296252E-01 5.952138826E-02 9.593415143E-01
 6.103792191E-01 6.051689386E-02 9.689325332E-01
 5.983690023E-01 6.158242002E-02 9.768737022E-01
 5.868580937E-01 6.258111447E-02 9.960663960E-01
 5.733005404E-01 6.364220381E-02 9.970176763E-01
 5.604650378E-01 6.456244737E-02 9.945638413E-01
 5.475846529E-01 6.539313495E-02 1.017000145E+00
 5.363652706E-01 6.606996804E-02 1.057618029E+00
 5.242208838E-01 6.671373546E-02 1.064194940E+00
 5.110939145E-01 6.730797887E-02 1.064907307E+00
 5.002206564E-01 6.777282059E-02 1.063329532E+00
 4.867968261E-01 6.821993738E-02 1.054104838E+00
 4.737403095E-01 6.858174503E-02 1.052226476E+00
 4.594902396E-01 6.886859983E-02 1.048916847E+00
 4.455524087E-01 6.906870008E-02 1.047210142E+00
 4.324435890E-01 6.917117536E-02 1.039854563E+00
 4.191087484E-01 6.917980313E-02 1.032018370E+00
 4.065996706E-01 6.911541522E-02 1.027857567E+00
 3.935774565E-01 6.897446513E-02 1.023251659E+00
 3.813893497E-01 6.876163930E-02 1.017500240E+00
 3.697900772E-01 6.850209087E-02 1.011956765E+00
 3.562568128E-01 6.811523438E-02 1.002532366E+00
 3.436675668E-01 6.766708940E-02 9.970937363E-01
 3.310616910E-01 6.717508286E-02 9.984101364E-01
 3.206423819E-01 6.667991728E-02 9.871818132E-01
 3.082179129E-01 6.604829431E-02 9.827741054E-01
 2.954165041E-01 6.530142576E-02 9.753850460E-01
 2.817206085E-01 6.444010139E-02 9.736083897E-01
 2.690907717E-01 6.353150308E-02 9.638043719E-01
 2.572190166E-01 6.262569875E-02 9.607575550E-01
 2.445898354E-01 6.156281009E-02 9.516746054E-01
 2.319647372E-01 6.041822582E-02 9.447947719E-01
 2.196910530E-01 5.923049524E-02 9.409976813E-01
 2.077664584E-01 5.798718333E-02 9.345204228E-01
 1.961179674E-01 5.667617917E-02 9.250204146E-01
 1.838929355E-01 5.522686616E-02 9.206413653E-01
 1.722305715E-01 5.373923853E-02 9.116425548E-01
 1.606371105E-01 5.216995999E-02 9.040964421E-01
 1.491291076E-01 5.052188411E-02 8.988553841E-01
 1.383083463E-01 4.886974022E-02 8.910802060E-01
 1.272556931E-01 4.707154259E-02 8.819779071E-01
 1.162028983E-01 4.516998678E-02 8.753132870E-01
 1.056500524E-01 4.322729260E-02 8.643237206E-01
 9.594325721E-02 4.133684188E-02 8.580338925E-01
 8.533255756E-02 3.912621364E-02 8.464992512E-01
 7.391224056E-02 3.656839579E-02 8.343753517E-01
 6.408871710E-02 3.418698907E-02 8.207177034E-01
 5.443394184E-02 3.165627643E-02 8.083412394E-01
 4.527231678E-02 2.903106064E-02 7.935337766E-01
 3.745023534E-02 2.657010593E-02 7.766338697E-01
 3.061991930E-02 2.421898581E-02 7.598818591E-01
 2.484237403E-02 2.203655429E-02 7.458107799E-01
 2.063245513E-02 2.029632777E-02 7.271270449E-01
 1.656372100E-02 1.844783872E-02 7.055666879E-01
 1.358390879E-02 1.697301120E-02 6.874170805E-01
 1.097768079E-02 1.556453668E-02 6.690027221E-01
 9.009405971E-03 1.440437511E-02 6.494946110E-01
 7.239240687E-03 1.326698717E-02 6.270652429E-01
 5.614478607E-03 1.211761311E-02 5.952983850E-01
 3.489284776E-03 1.042226050E-02 5.526603212E-01
 1.736367820E-03 8.745494299E-03 5.027203695E-01
 2.678456658E-04 6.991774309E-03 4.139392208E-01
 -1.153657679E-03 4.577516112E-03 2.875525796E-01
 -1.787501853E-03 2.710614353E-03 1.830545880E-01
 -2.016224666E-03 1.222617575E-03 8.225283921E-02
 -1.978608081E-03 -6.000946159E-04 2.594057851E-02
 -1.522238948E-03 -2.701638034E-03 1.428063414E-01
 -4.783202894E-04 -5.130613688E-03 2.643070418E-01
 1.184715424E-03 -7.687673438E-03 3.677237222E-01
 3.476477694E-03 -1.032454334E-02 4.534917905E-01
 5.510105751E-03 -1.224716660E-02 5.147495877E-01
 7.915208116E-03 -1.421849430E-02 5.634234235E-01
 9.681232274E-03 -1.552429888E-02 5.971987222E-01
 1.186655648E-02 -1.700248942E-02 6.228520582E-01
 1.439851336E-02 -1.857910864E-02 6.542564189E-01
 1.777294651E-02 -2.048646659E-02 6.841653914E-01
 2.104528248E-02 -2.217466384E-02 7.109723898E-01
 2.526445873E-02 -2.417119406E-02 7.348996842E-01
 3.075401857E-02 -2.651573159E-02 7.601601793E-01
 3.659212962E-02 -2.877632901E-02 7.832751919E-01
 4.371675476E-02 -3.126827255E-02 8.032602419E-01
 5.135056749E-02 -3.368744999E-02 8.216946513E-01
 6.027581170E-02 -3.626047820E-02 8.371563512E-01
 6.910748035E-02 -3.856773302E-02 8.488214500E-01
 7.964859903E-02 -4.110891372E-02 8.629925446E-01
 8.950635046E-02 -4.328196868E-02 8.713309237E-01
 1.001860350E-01 -4.547034577E-02 8.844278166E-01
 1.114420518E-01 -4.759580269E-02 8.920039753E-01
 1.229588389E-01 -4.961749166E-02 9.009325022E-01
 1.346330792E-01 -5.152267590E-02 9.100595543E-01
 1.450138688E-01 -5.310682207E-02 9.174837910E-01
 1.563710272E-01 -5.473692343E-02 9.258860669E-01
 1.682519615E-01 -5.632395670E-02 9.338812641E-01
 1.799333543E-01 -5.777965486E-02 9.424749965E-01
 1.916048229E-01 -5.913655460E-02 9.525709738E-01
 2.020533085E-01 -6.025929749E-02 9.589923673E-01
 2.133339643E-01 -6.139893457E-02 9.685316286E-01
 2.255026549E-01 -6.252410263E-02 9.801638881E-01
 2.376647741E-01 -6.354545057E-02 9.917370149E-01
 2.494748384E-01 -6.442382932E-02 9.964392538E-01
 2.617517710E-01 -6.525877118E-02 1.008592336E+00
 2.725343406E-01 -6.588677317E-02 1.019045751E+00
 2.849207520E-01 -6.652334332E-02 1.028724163E+00
 2.969417572E-01 -6.702944636E-02 1.044560846E+00
 3.097107708E-01 -6.743869931E-02 1.057080313E+00
 3.210336864E-01 -6.769935787E-02 1.070313103E+00
 3.335351050E-01 -6.786590070E-02 1.077333541E+00
 3.439764082E-01 -6.792053580E-02 1.092691315E+00
 3.553861380E-01 -6.785560399E-02 1.104409224E+00
 3.662918508E-01 -6.769959629E-02 1.109954958E+00
 3.770569563E-01 -6.746077538E-02 1.121569970E+00
 3.885530829E-01 -6.707574427E-02 1.133806060E+00
 4.012211859E-01 -6.651014835E-02 1.139879906E+00
 4.133070111E-01 -6.586022675E-02 1.161178312E+00
 4.261920452E-01 -6.504382938E-02 1.055055165E+00
 4.384681284E-01 -6.410142034E-02 9.261694371E-01
 4.512023330E-01 -6.300263107E-02 9.411995618E-01
 4.633284807E-01 -6.184110045E-02 9.399294497E-01
 4.756975472E-01 -6.057967618E-02 9.263314490E-01
 4.876608253E-01 -5.926576629E-02 9.153145602E-01
 5.001022816E-01 -5.779080838E-02 8.975577851E-01
 5.136201382E-01 -5.609286949E-02 8.789390119E-01
 5.271281004E-01 -5.432578549E-02 8.646409488E-01
 5.397370458E-01 -5.259529129E-02 8.482594978E-01
 5.533747077E-01 -5.068178847E-02 8.348410606E-01
 5.663910508E-01 -4.878832772E-02 8.188156614E-01
 5.798603892E-01 -4.681873322E-02 8.082361981E-01
 5.925792456E-01 -4.492746666E-02 7.985658367E-01
 6.052045822E-01 -4.299240559E-02 7.842689241E-01
 6.186552644E-01 -4.092416167E-02 7.720647385E-01
 6.326584220E-01 -3.876865655E-02 7.614035411E-01
 6.466745138E-01 -3.662522882E-02 7.543017932E-01
 6.597700715E-01 -3.457279876E-02 7.418839824E-01
 6.733563542E-01 -3.246341273E-02 7.330355258E-01
 6.857246161E-01 -3.053171746E-02 7.223749566E-01
 6.981245875E-01 -2.864130214E-02 7.175956804E-01
 7.129145861E-01 -2.634091675E-02 7.047982207E-01
 7.260606289E-01 -2.433826774E-02 6.966811056E-01
 7.374525666E-01 -2.262724005E-02 6.900622483E-01
 7.504348159E-01 -2.067935281E-02 6.800160929E-01
 7.636835575E-01 -1.879060641E-02 6.783443883E-01
 7.765371203E-01 -1.688810810E-02 6.642885499E-01
 7.891294360E-01 -1.513087936E-02 6.602434222E-01
 8.018719554E-01 -1.336869970E-02 6.524402616E-01
 8.130120039E-01 -1.186031103E-02 6.458803847E-01
 8.239566684E-01 -1.037260052E-02 6.337632927E-01
 8.365467191E-01 -8.813928813E-03 6.306719481E-01
 8.489663601E-01 -7.317704614E-03 6.229154460E-01
 8.611729741E-01 -5.922425073E-03 6.158919354E-01
 8.721448183E-01 -4.737284500E-03 6.083990294E-01
 8.835650682E-01 -3.609865671E-03 6.024895990E-01
 8.965467811E-01 -2.485069446E-03 5.987250709E-01
 9.067189693E-01 -1.691236044E-03 5.939850973E-01
 9.174305201E-01 -9.793656645E-04 5.920985788E-01
 9.275594354E-01 -4.189196334E-04 5.903226575E-01
 9.370182157E-01 1.277009687E-05 5.897524242E-01
 9.494263530E-01 4.253105435E-04 5.896707476E-01
 9.629114270E-01 6.947511574E-04 5.912213522E-01
 9.771625996E-01 7.789111696E-04 5.936176969E-01
 9.897925854E-01 6.873566308E-04 5.972438405E-01
 -5.000000000E-01 -1.000000000E+00 7.235904400E-01
 3.500000000E+00 -1.000000000E+00 7.263754391E-01
 3.500000000E+00 1.000000000E+00 7.135230045E-01
 -5.000000000E-01 1.000000000E+00 7.236159453E-01
 9.924322069E-01 1.961798233E-03 5.940859937E-01
 9.783645868E-01 4.693834810E-03 6.379108204E-01
 9.636637866E-01 7.495485013E-03 6.644849725E-01
 9.487203956E-01 1.039666357E-02 6.910149552E-01
 9.353552759E-01 1.297608716E-02 7.088088490E-01
 9.232395589E-01 1.526747411E-02 7.227231017E-01
 9.114975035E-01 1.748211682E-02 7.371485066E-01
 8.995558619E-01 1.969281211E-02 7.477736845E-01
 8.876636326E-01 2.188694663E-02 7.647021881E-01
 8.755456209E-01 2.405935712E-02 7.776830539E-01
 8.632861078E-01 2.616582997E-02 7.827888196E-01
 8.510250747E-01 2.824474685E-02 7.901295860E-01
 8.392425776E-01 3.023888450E-02 8.057007792E-01
 8.277237415E-01 3.213211894E-02 8.126368481E-01
 8.157462180E-01 3.404523432E-02 8.216336887E-01
 8.031442165E-01 3.600879200E-02 8.288857458E-01
 7.907426655E-01 3.788548894E-02 8.321638730E-01
 7.787705660E-01 3.968838975E-02 8.430408593E-01
 7.669200599E-01 4.144378006E-02 8.530178133E-01
 7.547484934E-01 4.318866506E-02 8.587506271E-01
 7.416971326E-01 4.502131604E-02 8.668740160E-01
 7.297011316E-01 4.667860456E-02 8.771284836E-01
 7.189136446E-01 4.813315347E-02 8.882279016E-01
 7.076311111E-01 4.959915206E-02 8.900861815E-01
 6.954052746E-01 5.115434341E-02 9.022991930E-01
 6.826931834E-01 5.272789858E-02 9.122935614E-01
 6.711143851E-01 5.410341173E-02 9.192419001E-01
 6.602045596E-01 5.536468327E-02 9.312324030E-01
 6.491377950E-01 5.659190565E-02 9.361305539E-01
 6.378534734E-01 5.779836513E-02 9.503345744E-01
 6.263712943E-01 5.897017196E-02 9.559816009E-01
 6.155544221E-01 6.001914106E-02 9.661149883E-01
 6.043741107E-01 6.104965694E-02 9.698373569E-01
 5.926135480E-01 6.208176725E-02 9.889088797E-01
 5.800793171E-01 6.311165914E-02 9.975148394E-01
 5.668827891E-01 6.410232559E-02 9.953584713E-01
 5.540248454E-01 6.497779116E-02 1.000003318E+00
 5.419749618E-01 6.573155150E-02 1.040580436E+00
 5.302930772E-01 6.639185175E-02 1.064607072E+00
 5.176573992E-01 6.701085716E-02 1.062292245E+00
 5.056572855E-01 6.754039973E-02 1.067829657E+00
 4.935087413E-01 6.799637899E-02 1.056591575E+00
 4.802685678E-01 6.840084121E-02 1.053941431E+00
 4.666152745E-01 6.872517243E-02 1.049788689E+00
 4.525213242E-01 6.896864995E-02 1.048633567E+00
 4.389979988E-01 6.911993772E-02 1.044176267E+00
 4.257761687E-01 6.917548925E-02 1.035246456E+00
 4.128542095E-01 6.914760917E-02 1.029763363E+00
 4.000885636E-01 6.904494017E-02 1.025989341E+00
 3.874834031E-01 6.886805221E-02 1.019821200E+00
 3.755897135E-01 6.863186508E-02 1.015532821E+00
 3.630234450E-01 6.830866262E-02 1.007598538E+00
 3.499621898E-01 6.789116189E-02 9.976388175E-01
 3.373646289E-01 6.742108613E-02 9.997226901E-01
 3.258520365E-01 6.692750007E-02 9.917673765E-01
 3.144301474E-01 6.636410579E-02 9.860920161E-01
 3.018172085E-01 6.567486003E-02 9.775916153E-01
 2.885685563E-01 6.487076357E-02 9.759483007E-01
 2.754056901E-01 6.398580223E-02 9.675220117E-01
 2.631548941E-01 6.307860091E-02 9.630979183E-01
 2.509044260E-01 6.209425442E-02 9.562868171E-01
 2.382772863E-01 6.099051796E-02 9.476871912E-01
 2.258278951E-01 5.982436053E-02 9.428994794E-01
 2.137287557E-01 5.860883929E-02 9.384332796E-01
 2.019422129E-01 5.733168125E-02 9.291438149E-01
 1.900054514E-01 5.595152266E-02 9.231478274E-01
 1.780617535E-01 5.448305234E-02 9.162899925E-01
 1.664338410E-01 5.295459926E-02 9.075150552E-01
 1.548831090E-01 5.134592205E-02 9.015307863E-01
 1.437187269E-01 4.969581217E-02 8.953579807E-01
 1.327820197E-01 4.797064140E-02 8.863111393E-01
 1.217292957E-01 4.612076469E-02 8.788339801E-01
 1.109264754E-01 4.419863969E-02 8.704669723E-01
 9.063790739E-02 4.023152776E-02 8.527220317E-01
 7.962239906E-02 3.784730472E-02 8.397301690E-01
 6.900047883E-02 3.537769243E-02 8.294258749E-01
 7.437803969E-02 -3.983832337E-02 8.561993002E-01
 9.484619275E-02 -4.437615722E-02 8.790818609E-01
 1.058140434E-01 -4.653307423E-02 8.883933104E-01
 1.172004454E-01 -4.860664718E-02 8.962231109E-01
 1.287959591E-01 -5.057008378E-02 9.055444525E-01
 1.398234740E-01 -5.231474899E-02 9.144018758E-01
 1.506924480E-01 -5.392187275E-02 9.211832607E-01
 1.623114944E-01 -5.553044006E-02 9.300741668E-01
 1.740926579E-01 -5.705180578E-02 9.379877265E-01
 1.857690886E-01 -5.845810473E-02 9.474524322E-01
 1.968290657E-01 -5.969792604E-02 9.566089527E-01
 2.076936364E-01 -6.082911603E-02 9.627086617E-01
 2.194183096E-01 -6.196151860E-02 9.743920682E-01
 2.315837145E-01 -6.303477660E-02 9.860336436E-01
 2.435698062E-01 -6.398463994E-02 9.951079037E-01
 2.556133047E-01 -6.484130025E-02 1.000502905E+00
 2.671430558E-01 -6.557277218E-02 1.015872624E+00
 2.787275463E-01 -6.620505825E-02 1.022208032E+00
 2.909312546E-01 -6.677639484E-02 1.036731250E+00
 3.033262640E-01 -6.723407283E-02 1.050997774E+00
 3.153722286E-01 -6.756902859E-02 1.064054172E+00
 3.272843957E-01 -6.778262928E-02 1.074048210E+00
 3.387557566E-01 -6.789321825E-02 1.083865844E+00
 3.496812731E-01 -6.788806990E-02 1.099647773E+00
 3.608389944E-01 -6.777760014E-02 1.107715266E+00
 3.716744035E-01 -6.758018583E-02 1.114136705E+00
 3.828050196E-01 -6.726825982E-02 1.128715112E+00
 3.948871344E-01 -6.679294631E-02 1.136284270E+00
 4.072640985E-01 -6.618518755E-02 1.151684004E+00
 4.197495282E-01 -6.545202807E-02 1.139765498E+00
 4.323300868E-01 -6.457262486E-02 9.614968013E-01
 4.448352307E-01 -6.355202571E-02 9.288639582E-01
 4.572654068E-01 -6.242186576E-02 9.452632055E-01
 4.695130140E-01 -6.121038832E-02 9.322288915E-01
 4.816791862E-01 -5.992272124E-02 9.212421664E-01
 4.938815534E-01 -5.852828734E-02 9.071091515E-01
 5.068612099E-01 -5.694183894E-02 8.879383150E-01
 5.203741193E-01 -5.520932749E-02 8.714166597E-01
 5.334325731E-01 -5.346053839E-02 8.569150999E-01
 5.465558767E-01 -5.163853988E-02 8.409841402E-01
 5.598828793E-01 -4.973505810E-02 8.272509611E-01
 5.731257200E-01 -4.780353047E-02 8.128324384E-01
 5.862198174E-01 -4.587309994E-02 8.035765822E-01
 5.988919139E-01 -4.395993613E-02 7.918869712E-01
 6.119299233E-01 -4.195828363E-02 7.777939473E-01
 6.256568432E-01 -3.984640911E-02 7.665805186E-01
 6.396664679E-01 -3.769694269E-02 7.575704073E-01
 6.532222927E-01 -3.559901379E-02 7.487312493E-01
 6.665632129E-01 -3.351810575E-02 7.371085251E-01
 6.795404851E-01 -3.149756510E-02 7.276648122E-01
 6.919246018E-01 -2.958650980E-02 7.198533396E-01
 7.055195868E-01 -2.749110945E-02 7.116646978E-01
 7.194876075E-01 -2.533959225E-02 7.002804150E-01
 7.317565978E-01 -2.348275390E-02 6.933259663E-01
 7.439436913E-01 -2.165329643E-02 6.850584601E-01
 7.570591867E-01 -1.973497961E-02 6.788661938E-01
 7.701103389E-01 -1.783935726E-02 6.718765913E-01
 7.828332782E-01 -1.600949373E-02 6.617287380E-01
 7.955006957E-01 -1.424978953E-02 6.565483096E-01
 8.074419796E-01 -1.261450537E-02 6.493597970E-01
 8.184843361E-01 -1.111645577E-02 6.396763574E-01
 8.302516937E-01 -9.593264665E-03 6.320557376E-01
 8.427565396E-01 -8.065816713E-03 6.269374943E-01
 8.550696671E-01 -6.620064843E-03 6.194695137E-01
 8.666588962E-01 -5.329854786E-03 6.119787207E-01
 8.778549433E-01 -4.173575086E-03 6.051987212E-01
 8.900559247E-01 -3.047467559E-03 6.009086413E-01
 9.016328752E-01 -2.088152745E-03 5.958893150E-01
 9.120747447E-01 -1.335300854E-03 5.931117574E-01
 9.224949777E-01 -6.991426490E-04 5.909686821E-01
 9.432222843E-01 2.190403202E-04 5.898401779E-01
 9.561688900E-01 5.600308505E-04 5.903238342E-01
 9.700370133E-01 7.368311635E-04 5.926369946E-01
 9.834775925E-01 7.331339002E-04 5.939894651E-01
 -5.000000000E-01 9.500000000E-01 7.210338139E-01
 -5.000000000E-01 9.000000000E-01 7.169909224E-01
 -5.000000000E-01 8.500000000E-01 7.139130164E-01
 -5.000000000E-01 8.000000000E-01 7.112084458E-01
 -5.000000000E-01 7.500000000E-01 7.086160440E-01
 -5.000000000E-01 7.000000000E-01 7.060924666E-01
 -5.000000000E-01 6.500000000E-01 7.035456186E-01
 -5.000000000E-01 6.000000000E-01 7.009783182E-01
 -5.000000000E-01 5.500000000E-01 6.982958001E-01
 -5.000000000E-01 5.000000000E-01 6.955761660E-01
 -5.000000000E-01 4.500000000E-01 6.928495834E-01
 -5.000000000E-01 4.000000000E-01 6.901150772E-01
 -5.000000000E-01 3.500000000E-01 6.874288958E-01
 -5.000000000E-01 3.000000000E-01 6.848588593E-01
 -5.000000000E-01 2.500000000E-01 6.824962679E-01
 -5.000000000E-01 2.000000000E-01 6.803680548E-01
 -5.000000000E-01 1.500000000E-01 6.786275535E-01
 -5.000000000E-01 1.000000000E-01 6.772983669E-01
 -5.000000000E-01 5.000000000E-02 6.764710563E-01
 -5.000000000E-01 2.752242878E-12 6.761860684E-01
 -5.000000000E-01 -5.000000000E-02 6.764235464E-01
 -5.000000000E-01 -1.000000000E-01 6.772222756E-01
 -5.000000000E-01 -1.500000000E-01 6.785493618E-01
 -5.000000000E-01 -2.000000000E-01 6.802763062E-01
 -5.000000000E-01 -2.500000000E-01 6.823673490E-01
 -5.000000000E-01 -3.000000000E-01 6.847421492E-01
 -5.000000000E-01 -3.500000000E-01 6.873156564E-01
 -5.000000000E-01 -4.000000000E-01 6.899586585E-01
 -5.000000000E-01 -4.500000000E-01 6.926761631E-01
 -5.000000000E-01 -5.000000000E-01 6.954481878E-01
 -5.000000000E-01 -5.500000000E-01 6.981470533E-01
 -5.000000000E-01 -6.000000000E-01 7.008086627E-01
 -5.000000000E-01 -6.500000000E-01 7.033842976E-01
 -5.000000000E-01 -7.000000000E-01 7.059619339E-01
 -5.000000000E-01 -7.500000000E-01 7.084960563E-01
 -5.000000000E-01 -8.000000000E-01 7.110720565E-01
 -5.000000000E-01 -8.500000000E-01 7.137942840E-01
 -5.000000000E-01 -9.000000000E-01 7.168847815E-01
 -5.000000000E-01 -9.500000000E-01 7.209721026E-01
 -4.500000000E-01 -1.000000000E+00 7.207800882E-01
 -4.000000000E-01 -1.000000000E+00 7.169225070E-01
 -3.500000000E-01 -1.000000000E+00 7.144332256E-01
 -3.000000000E-01 -1.000000000E+00 7.128297545E-01
 -2.500000000E-01 -1.000000000E+00 7.119616644E-01
 -2.000000000E-01 -1.000000000E+00 7.118226952E-01
 -1.500000000E-01 -1.000000000E+00 7.123934881E-01
 -1.000000000E-01 -1.000000000E+00 7.137090372E-01
 -5.000000000E-02 -1.000000000E+00 7.156945829E-01
 -9.424683256E-13 -1.000000000E+00 7.184773691E-01
 5.000000000E-02 -1.000000000E+00 7.218116016E-01
 1.000000000E-01 -1.000000000E+00 7.256796395E-01
 1.500000000E-01 -1.000000000E+00 7.300692280E-01
 2.000000000E-01 -1.000000000E+00 7.346308891E-01
 2.500000000E-01 -1.000000000E+00 7.390606251E-01
 3.000000000E-01 -1.000000000E+00 7.431785010E-01
 3.500000000E-01 -1.000000000E+00 7.464662266E-01
 4.000000000E-01 -1.000000000E+00 7.488642802E-01
 4.500000000E-01 -1.000000000E+00 7.510774922E-01
 5.000000000E-01 -1.000000000E+00 7.521616896E-01
 5.500000000E-01 -1.000000000E+00 7.522074315E-01
 6.000000000E-01 -1.000000000E+00 7.511571850E-01
 6.500000000E-01 -1.000000000E+00 7.495157276E-01
 7.000000000E-01 -1.000000000E+00 7.468647329E-01
 7.500000000E-01 -1.000000000E+00 7.444056675E-01
 8.000000000E-01 -1.000000000E+00 7.418399250E-01
 8.500000000E-01 -1.000000000E+00 7.384892732E-01
 9.000000000E-01 -1.000000000E+00 7.355294235E-01
 9.500000000E-01 -1.000000000E+00 7.323842919E-01
 1.000000000E+00 -1.000000000E+00 7.298315311E-01
 1.050000000E+00 -1.000000000E+00 7.273637983E-01
 1.100000000E+00 -1.000000000E+00 7.247359520E-01
 1.150000000E+00 -1.000000000E+00 7.224581552E-01
 1.200000000E+00 -1.000000000E+00 7.206410412E-01
 1.250000000E+00 -1.000000000E+00 7.192041351E-01
 1.300000000E+00 -1.000000000E+00 7.178037289E-01
 1.350000000E+00 -1.000000000E+00 7.165718602E-01
 1.400000000E+00 -1.000000000E+00 7.156617811E-01
 1.450000000E+00 -1.000000000E+00 7.151200545E-01
 1.500000000E+00 -1.000000000E+00 7.147492264E-01
 1.550000000E+00 -1.000000000E+00 7.141354050E-01
 1.600000000E+00 -1.000000000E+00 7.139652951E-01
 1.650000000E+00 -1.000000000E+00 7.142043244E-01
 1.700000000E+00 -1.000000000E+00 7.144502808E-01
 1.750000000E+00 -1.000000000E+00 7.146540295E-01
 1.800000000E+00 -1.000000000E+00 7.148784557E-01
 1.850000000E+00 -1.000000000E+00 7.150622646E-01
 1.900000000E+00 -1.000000000E+00 7.153984186E-01
 1.950000000E+00 -1.000000000E+00 7.157879724E-01
 2.000000000E+00 -1.000000000E+00 7.160127773E-01
 2.050000000E+00 -1.000000000E+00 7.161910618E-01
 2.100000000E+00 -1.000000000E+00 7.165174864E-01
 2.150000000E+00 -1.000000000E+00 7.168355798E-01
 2.200000000E+00 -1.000000000E+00 7.171421497E-01
 2.250000000E+00 -1.000000000E+00 7.174463109E-01
 2.300000000E+00 -1.000000000E+00 7.176708120E-01
 2.350000000E+00 -1.000000000E+00 7.179658257E-01
 2.400000000E+00 -1.000000000E+00 7.182102143E-01
 2.450000000E+00 -1.000000000E+00 7.184292937E-01
 2.500000000E+00 -1.000000000E+00 7.186656582E-01
 2.550000000E+00 -1.000000000E+00 7.188559659E-01
 2.600000000E+00 -1.000000000E+00 7.190619479E-01
 2.650000000E+00 -1.000000000E+00 7.192161376E-01
 2.700000000E+00 -1.000000000E+00 7.194065420E-01
 2.750000000E+00 -1.000000000E+00 7.195425879E-01
 2.800000000E+00 -1.000000000E+00 7.196959635E-01
 2.850000000E+00 -1.000000000E+00 7.197319500E-01
 2.900000000E+00 -1.000000000E+00 7.197442769E-01
 2.950000000E+00 -1.000000000E+00 7.198837330E-01
 3.000000000E+00 -1.000000000E+00 7.199829835E-01
 3.050000000E+00 -1.000000000E+00 7.200919916E-01
 3.100000000E+00 -1.000000000E+00 7.200496460E-01
 3.150000000E+00 -1.000000000E+00 7.201929593E-01
 3.200000000E+00 -1.000000000E+00 7.203085904E-01
 3.250000000E+00 -1.000000000E+00 7.204934468E-01
 3.300000000E+00 -1.000000000E+00 7.206425200E-01
 3.350000000E+00 -1.000000000E+00 7.209869454E-01
 3.400000000E+00 -1.000000000E+00 7.215190462E-01
 3.450000000E+00 -1.000000000E+00 7.229898909E-01
 3.500000000E+00 -9.500000000E-01 7.286611455E-01
 3.500000000E+00 -9.000000000E-01 7.300989292E-01
 3.500000000E+00 -8.500000000E-01 7.310594983E-01
 3.500000000E+00 -8.000000000E-01 7.315614828E-01
 3.500000000E+00 -7.500000000E-01 7.317771508E-01
 3.500000000E+00 -7.000000000E-01 7.319594622E-01
 3.500000000E+00 -6.500000000E-01 7.322096523E-01
 3.500000000E+00 -6.000000000E-01 7.325417381E-01
 3.500000000E+00 -5.500000000E-01 7.329289191E-01
 3.500000000E+00 -5.000000000E-01 7.333221242E-01
 3.500000000E+00 -4.500000000E-01 7.336979402E-01
 3.500000000E+00 -4.000000000E-01 7.340748950E-01
 3.500000000E+00 -3.500000000E-01 7.344609820E-01
 3.500000000E+00 -3.000000000E-01 7.348559063E-01
 3.500000000E+00 -2.500000000E-01 7.352395207E-01
 3.500000000E+00 -2.000000000E-01 7.355438473E-01
 3.500000000E+00 -1.500000000E-01 7.357002194E-01
 3.500000000E+00 -1.000000000E-01 7.357471031E-01
 3.500000000E+00 -5.000000000E-02 7.357415369E-01
 3.500000000E+00 -2.752242878E-12 7.357506131E-01
 3.500000000E+00 5.000000000E-02 7.357504369E-01
 3.500000000E+00 1.000000000E-01 7.356705089E-01
 3.500000000E+00 1.500000000E-01 7.354684458E-01
 3.500000000E+00 2.000000000E-01 7.351427966E-01
 3.500000000E+00 2.500000000E-01 7.347262387E-01
 3.500000000E+00 3.000000000E-01 7.343276003E-01
 3.500000000E+00 3.500000000E-01 7.339549358E-01
 3.500000000E+00 4.000000000E-01 7.335744984E-01
 3.500000000E+00 4.500000000E-01 7.331894731E-01
 3.500000000E+00 5.000000000E-01 7.327531668E-01
 3.500000000E+00 5.500000000E-01 7.323166268E-01
 3.500000000E+00 6.000000000E-01 7.320133566E-01
 3.500000000E+00 6.500000000E-01 7.320098848E-01
 3.500000000E+00 7.000000000E-01 7.322848086E-01
 3.500000000E+00 7.500000000E-01 7.324067178E-01
 3.500000000E+00 8.000000000E-01 7.317110946E-01
 3.500000000E+00 8.500000000E-01 7.296288885E-01
 3.500000000E+00 9.000000000E-01 7.259266937E-01
 3.500000000E+00 9.500000000E-01 7.207533935E-01
 3.450000000E+00 1.000000000E+00 7.032716936E-01
 3.400000000E+00 1.000000000E+00 6.994677154E-01
 3.350000000E+00 1.000000000E+00 6.987939590E-01
 3.300000000E+00 1.000000000E+00 6.979322363E-01
 3.250000000E+00 1.000000000E+00 6.977404143E-01
 3.200000000E+00 1.000000000E+00 6.977520677E-01
 3.150000000E+00 1.000000000E+00 6.983293563E-01
 3.100000000E+00 1.000000000E+00 6.993068392E-01
 3.050000000E+00 1.000000000E+00 6.994177195E-01
 3.000000000E+00 1.000000000E+00 6.993680014E-01
 2.950000000E+00 1.000000000E+00 6.996911516E-01
 2.900000000E+00 1.000000000E+00 6.999252352E-01
 2.850000000E+00 1.000000000E+00 7.001818204E-01
 2.800000000E+00 1.000000000E+00 7.002180058E-01
 2.750000000E+00 1.000000000E+00 7.007423583E-01
 2.700000000E+00 1.000000000E+00 7.011594885E-01
 2.650000000E+00 1.000000000E+00 7.011761958E-01
 2.600000000E+00 1.000000000E+00 7.012034606E-01
 2.550000000E+00 1.000000000E+00 7.017501568E-01
 2.500000000E+00 1.000000000E+00 7.026029982E-01
 2.450000000E+00 1.000000000E+00 7.027261723E-01
 2.400000000E+00 1.000000000E+00 7.028783492E-01
 2.350000000E+00 1.000000000E+00 7.031742327E-01
 2.300000000E+00 1.000000000E+00 7.035673989E-01
 2.250000000E+00 1.000000000E+00 7.040146042E-01
 2.200000000E+00 1.000000000E+00 7.042241470E-01
 2.150000000E+00 1.000000000E+00 7.045484637E-01
 2.100000000E+00 1.000000000E+00 7.052528660E-01
 2.050000000E+00 1.000000000E+00 7.057955171E-01
 2.000000000E+00 1.000000000E+00 7.061725741E-01
 1.950000000E+00 1.000000000E+00 7.073151054E-01
 1.900000000E+00 1.000000000E+00 7.083213890E-01
 1.850000000E+00 1.000000000E+00 7.088946577E-01
 1.800000000E+00 1.000000000E+00 7.095128057E-01
 1.750000000E+00 1.000000000E+00 7.101495561E-01
 1.700000000E+00 1.000000000E+00 7.111436416E-01
 1.650000000E+00 1.000000000E+00 7.126081769E-01
 1.600000000E+00 1.000000000E+00 7.138792076E-01
 1.550000000E+00 1.000000000E+00 7.152514140E-01
 1.500000000E+00 1.000000000E+00 7.167429324E-01
 1.450000000E+00 1.000000000E+00 7.181321233E-01
 1.400000000E+00 1.000000000E+00 7.193169310E-01
 1.350000000E+00 1.000000000E+00 7.213380506E-01
 1.300000000E+00 1.000000000E+00 7.242547082E-01
 1.250000000E+00 1.000000000E+00 7.273231385E-01
 1.200000000E+00 1.000000000E+00 7.300933256E-01
 1.150000000E+00 1.000000000E+00 7.331617101E-01
 1.100000000E+00 1.000000000E+00 7.372454667E-01
 1.050000000E+00 1.000000000E+00 7.411389606E-01
 1.000000000E+00 1.000000000E+00 7.459328033E-01
 9.500000000E-01 1.000000000E+00 7.502020100E-01
 9.000000000E-01 1.000000000E+00 7.537362068E-01
 8.500000000E-01 1.000000000E+00 7.589386741E-01
 8.000000000E-01 1.000000000E+00 7.614589145E-01
 7.500000000E-01 1.000000000E+00 7.633363309E-01
 7.000000000E-01 1.000000000E+00 7.638303250E-01
 6.500000000E-01 1.000000000E+00 7.658265855E-01
 6.000000000E-01 1.000000000E+00 7.662751315E-01
 5.500000000E-01 1.000000000E+00 7.661303652E-01
 5.000000000E-01 1.000000000E+00 7.648426587E-01
 4.500000000E-01 1.000000000E+00 7.617810723E-01
 4.000000000E-01 1.000000000E+00 7.578303653E-01
 3.500000000E-01 1.000000000E+00 7.537630269E-01
 3.000000000E-01 1.000000000E+00 7.487010012E-01
 2.500000000E-01 1.000000000E+00 7.431390140E-01
 2.000000000E-01 1.000000000E+00 7.375187080E-01
 1.500000000E-01 1.000000000E+00 7.320668965E-01
 1.000000000E-01 1.000000000E+00 7.271287173E-01
 5.000000000E-02 1.000000000E+00 7.228559861E-01
 1.733724275E-12 1.000000000E+00 7.191647550E-01
 -5.000000000E-02 1.000000000E+00 7.162456039E-01
 -1.000000000E-01 1.000000000E+00 7.140930197E-01
 -1.500000000E-01 1.000000000E+00 7.127175116E-01
 -2.000000000E-01 1.000000000E+00 7.120817578E-01
 -2.500000000E-01 1.000000000E+00 7.121505258E-01
 -3.000000000E-01 1.000000000E+00 7.129836717E-01
 -3.500000000E-01 1.000000000E+00 7.145304515E-01
 -4.000000000E-01 1.000000000E+00 7.170066340E-01
 -4.500000000E-01 1.000000000E+00 7.208714646E-01
 9.150590290E-01 -5.385545105E-03 5.954218721E-01
 8.402833563E-01 -1.363586674E-02 6.313367399E-01
 7.672701488E-01 -2.436879090E-02 6.767260616E-01
 6.959974517E-01 -3.481193962E-02 7.199801977E-01
 9.864362249E-01 -4.594894126E-03 5.977142951E-01
 6.300909937E-01 -4.537107795E-02 7.654967273E-01
 5.577589312E-01 -5.624904084E-02 8.309554747E-01
 4.914176388E-01 -6.420921752E-02 9.096010328E-01
 4.300228488E-01 -7.015528282E-02 9.870237747E-01
 3.744690924E-01 -7.218190802E-02 1.110520699E+00
 3.240029506E-01 -7.282430300E-02 1.067419899E+00
 2.642421733E-01 -6.990200048E-02 1.008666754E+00
 2.094796050E-01 -6.572359767E-02 9.617561880E-01
 1.525694216E-01 -5.900429464E-02 9.191244214E-01
 1.017963000E-01 -5.081578961E-02 8.800223693E-01
 6.300069024E-02 -4.389792335E-02 8.304056239E-01
 2.613290329E-02 -2.968524427E-02 7.273608393E-01
 1.974323890E+00 -9.581928639E-01 7.192589401E-01
 1.975000000E+00 9.566987298E-01 7.172205559E-01