TITLE     = "Visualization of the solution"
VARIABLES = "x"
"y"
"Mach"
ZONE T="Zone"
 STRANDID=0, SOLUTIONTIME=0
 Nodes=12235, Elements=23886, ZONETYPE=FEQuadrilateral
 DATAPACKING=POINT
 DT=(DOUBLE DOUBLE DOUBLE )
 9.997249842E-01 5.138645647E-04 5.279704708E-01
 9.895930290E-01 2.715863287E-03 6.162715879E-01
 9.769566059E-01 5.334534217E-03 6.491366312E-01
 9.594854712E-01 9.064637125E-03 6.811813448E-01
 9.442079067E-01 1.232667733E-02 7.054597226E-01
 9.282281399E-01 1.570371725E-02 7.247748170E-01
 9.166847467E-01 1.816156507E-02 7.449041371E-01
 9.057344794E-01 2.042260394E-02 7.553414686E-01
 8.944262266E-01 2.277442813E-02 7.755991031E-01
 8.832277656E-01 2.499682643E-02 7.852147893E-01
 8.711409569E-01 2.734817564E-02 7.966988168E-01
 8.582507372E-01 2.978415973E-02 8.050649090E-01
 8.462299705E-01 3.206849098E-02 8.267186203E-01
 8.359199762E-01 3.390058875E-02 8.284953117E-01
 8.240185380E-01 3.598327562E-02 8.351616221E-01
 8.117092252E-01 3.812714666E-02 8.503224970E-01
 7.991417050E-01 4.021315649E-02 8.555258915E-01
 7.857468724E-01 4.237225279E-02 8.595131614E-01
 7.736133337E-01 4.433877394E-02 8.760096820E-01
 7.619053125E-01 4.615760595E-02 8.836221110E-01
 7.483034134E-01 4.819092527E-02 8.869734949E-01
 7.344461083E-01 5.023397505E-02 8.982177296E-01
 7.238129377E-01 5.177377164E-02 9.097333476E-01
 7.126349807E-01 5.333319679E-02 9.175060310E-01
 7.007894516E-01 5.494984612E-02 9.293200624E-01
 6.870754957E-01 5.672794953E-02 9.365460465E-01
 6.742258072E-01 5.832545087E-02 9.422407972E-01
 6.640070081E-01 5.954595655E-02 9.459524395E-01
 6.522355676E-01 6.092041731E-02 9.557434041E-01
 6.399357915E-01 6.227247417E-02 9.396043435E-01
 6.279815435E-01 6.353431940E-02 9.196798874E-01
 6.158413291E-01 6.470344961E-02 1.072933465E+00
 6.052638888E-01 6.571364403E-02 1.153970268E+00
 5.927850008E-01 6.679461896E-02 1.127863821E+00
 5.814992785E-01 6.771654636E-02 1.126264897E+00
 5.681276321E-01 6.871360540E-02 1.118048361E+00
 5.559145212E-01 6.950560957E-02 1.113785222E+00
 5.443479419E-01 7.023832947E-02 1.111674770E+00
 5.337052345E-01 7.080609351E-02 1.100303908E+00
 5.225785375E-01 7.136363536E-02 1.097230625E+00
 5.108477473E-01 7.186053693E-02 1.090218941E+00
 4.998438060E-01 7.228475809E-02 1.081322653E+00
 4.866367579E-01 7.266773283E-02 1.070986590E+00
 4.730580747E-01 7.300125808E-02 1.069307466E+00
 4.598175287E-01 7.324276865E-02 1.058010589E+00
 4.470306933E-01 7.336979359E-02 1.047657405E+00
 4.348294139E-01 7.343628258E-02 1.044830531E+00
 4.228565395E-01 7.343129069E-02 1.038541039E+00
 4.109621048E-01 7.336769998E-02 1.030768740E+00
 3.991179764E-01 7.322712243E-02 1.022604632E+00
 3.869883418E-01 7.303441316E-02 1.019071967E+00
 3.752293587E-01 7.277479023E-02 1.011130002E+00
 3.626907468E-01 7.243719697E-02 1.010303831E+00
 3.498147726E-01 7.203242183E-02 1.007210692E+00
 3.364417553E-01 7.150265574E-02 9.977617556E-01
 3.253182769E-01 7.101284713E-02 9.945611196E-01
 3.125376999E-01 7.037955523E-02 9.873637830E-01
 2.992775738E-01 6.962531805E-02 9.785396594E-01
 2.855514586E-01 6.878158450E-02 9.782935254E-01
 2.738006115E-01 6.797039509E-02 9.708135591E-01
 2.620525360E-01 6.709151715E-02 9.653429033E-01
 2.496895492E-01 6.609252840E-02 9.606956224E-01
 2.375575900E-01 6.502306461E-02 9.534145810E-01
 2.249911129E-01 6.383152306E-02 9.479425006E-01
 2.128897756E-01 6.259701401E-02 9.424031793E-01
 2.003189623E-01 6.120736897E-02 9.341745419E-01
 1.876537800E-01 5.970352143E-02 9.267497842E-01
 1.758164465E-01 5.819859356E-02 9.201676787E-01
 1.641815156E-01 5.661638826E-02 9.119155298E-01
 1.521281749E-01 5.486156419E-02 9.045306541E-01
 1.411652416E-01 5.315389857E-02 8.955449574E-01
 1.290949434E-01 5.114448816E-02 8.862624842E-01
 1.179117262E-01 4.913888499E-02 8.750456952E-01
 1.072247475E-01 4.709549621E-02 8.652971342E-01
 9.699124098E-02 4.499748722E-02 8.533475440E-01
 8.616077155E-02 4.262087494E-02 8.400083353E-01
 7.471921295E-02 3.989001736E-02 8.247840824E-01
 6.489326060E-02 3.733729199E-02 8.072059176E-01
 5.495314673E-02 3.452955186E-02 7.870372922E-01
 4.669862986E-02 3.199634701E-02 7.705294321E-01
 3.960840777E-02 2.961344831E-02 7.510357787E-01
 3.316122293E-02 2.727266587E-02 7.293361625E-01
 2.758713067E-02 2.505721338E-02 7.092954015E-01
 2.349199355E-02 2.330344915E-02 6.888470474E-01
 1.949603297E-02 2.145283855E-02 6.652386149E-01
 1.603128947E-02 1.970413513E-02 6.385836818E-01
 1.281342097E-02 1.793073118E-02 6.105067792E-01
 1.041790098E-02 1.648819074E-02 5.843422011E-01
 8.418885991E-03 1.517270971E-02 5.592798374E-01
 6.612182129E-03 1.387679577E-02 5.247658886E-01
 4.315785598E-03 1.201646402E-02 4.715891597E-01
 2.280944260E-03 1.004148088E-02 4.098861679E-01
 6.443774910E-04 8.044253103E-03 3.063853600E-01
 -9.966107318E-04 4.985942040E-03 1.581160777E-01
 -1.503121573E-03 2.818002133E-03 1.264863399E-02
 -1.518337987E-03 1.147884410E-03 1.116282246E-01
 -1.210782211E-03 -4.705809697E-04 2.264793845E-01
 -6.990433903E-04 -1.849219203E-03 3.256501631E-01
 2.932936768E-04 -3.610481974E-03 4.225749540E-01
 1.646228135E-03 -5.336824339E-03 5.108797722E-01
 3.456527833E-03 -7.128562778E-03 5.809055628E-01
 5.132198799E-03 -8.500404656E-03 6.318385056E-01
 6.974208169E-03 -9.808016941E-03 6.663893638E-01
 8.598801680E-03 -1.084024552E-02 6.938854050E-01
 1.068572421E-02 -1.204067655E-02 7.184035603E-01
 1.296841726E-02 -1.322568022E-02 7.396208082E-01
 1.622414403E-02 -1.474863756E-02 7.590045324E-01
 1.894474030E-02 -1.589707099E-02 7.777829358E-01
 2.249838226E-02 -1.727674156E-02 7.881601309E-01
 2.767132781E-02 -1.907995157E-02 8.000985300E-01
 3.323281184E-02 -2.082072198E-02 8.130485631E-01
 3.989082575E-02 -2.269267850E-02 8.210705239E-01
 4.737821221E-02 -2.459607646E-02 8.262562973E-01
 5.640479550E-02 -2.667317353E-02 8.320883201E-01
 6.502459198E-02 -2.848365158E-02 8.375628866E-01
 7.495734841E-02 -3.040506504E-02 8.421169149E-01
 8.516237140E-02 -3.223695233E-02 8.475878526E-01
 9.522676468E-02 -3.391399235E-02 8.512247755E-01
 1.066686064E-01 -3.569655493E-02 8.546910791E-01
 1.179284230E-01 -3.734555095E-02 8.603765589E-01
 1.298125535E-01 -3.897783533E-02 8.648812462E-01
 1.407329291E-01 -4.039380327E-02 8.705076009E-01
 1.521634609E-01 -4.178900272E-02 8.742698370E-01
 1.647444665E-01 -4.324699566E-02 8.805384501E-01
 1.766956747E-01 -4.455037415E-02 8.873911929E-01
 1.888919026E-01 -4.580169544E-02 8.937240973E-01
 2.001257390E-01 -4.687999934E-02 8.992800635E-01
 2.117607445E-01 -4.793371633E-02 9.054797027E-01
 2.244686782E-01 -4.901298508E-02 9.147408485E-01
 2.373051494E-01 -4.999904707E-02 9.192440400E-01
 2.497694790E-01 -5.089463294E-02 9.293621834E-01
 2.618245482E-01 -5.167281628E-02 9.380120263E-01
 2.732550800E-01 -5.233136937E-02 9.440505526E-01
 2.857384682E-01 -5.296865478E-02 9.508824644E-01
 2.981157899E-01 -5.351755396E-02 9.610078441E-01
 3.110970557E-01 -5.398165435E-02 9.680130910E-01
 3.233423233E-01 -5.432398245E-02 9.754776665E-01
 3.364125788E-01 -5.458030105E-02 9.833562467E-01
 3.477343917E-01 -5.470523611E-02 9.927329754E-01
 3.592945933E-01 -5.471905321E-02 9.930291094E-01
 3.700208962E-01 -5.464394391E-02 9.913078962E-01
 3.810711205E-01 -5.447937921E-02 9.906672304E-01
 3.930665553E-01 -5.419195443E-02 9.878404763E-01
 4.068834186E-01 -5.370629951E-02 9.774061026E-01
 4.197423458E-01 -5.311918259E-02 9.688365424E-01
 4.321233332E-01 -5.241361260E-02 9.540650597E-01
 4.445689321E-01 -5.160812289E-02 9.460713860E-01
 4.557771087E-01 -5.073975399E-02 9.280599129E-01
 4.670348167E-01 -4.979175702E-02 9.125542585E-01
 4.787818491E-01 -4.871212319E-02 8.985247082E-01
 4.901814759E-01 -4.758283868E-02 8.842674220E-01
 5.031820536E-01 -4.620488361E-02 8.676950852E-01
 5.168996453E-01 -4.466715828E-02 8.541519547E-01
 5.296990275E-01 -4.311917722E-02 8.336589357E-01
 5.429155231E-01 -4.150201008E-02 8.224932858E-01
 5.546416044E-01 -4.000195116E-02 8.075372234E-01
 5.683355331E-01 -3.824466467E-02 7.985323316E-01
 5.807115436E-01 -3.657252714E-02 7.817157980E-01
 5.926240087E-01 -3.499092162E-02 7.753020728E-01
 6.052153111E-01 -3.326468542E-02 7.618708823E-01
 6.204228997E-01 -3.117643297E-02 7.497737484E-01
 6.351729035E-01 -2.915468253E-02 7.396208521E-01
 6.513170600E-01 -2.692406438E-02 7.277499352E-01
 6.636822820E-01 -2.521198988E-02 7.172223863E-01
 6.769672036E-01 -2.342359535E-02 7.121765805E-01
 6.891560555E-01 -2.174852975E-02 7.011419781E-01
 7.015586495E-01 -2.008667961E-02 6.946942107E-01
 7.156444788E-01 -1.820914075E-02 6.856239471E-01
 7.287164927E-01 -1.649395935E-02 6.772362684E-01
 7.410844564E-01 -1.491475385E-02 6.711668584E-01
 7.552694678E-01 -1.313736383E-02 6.640194490E-01
 7.668381929E-01 -1.169387810E-02 6.549792571E-01
 7.801889181E-01 -1.010707393E-02 6.497517387E-01
 7.917306423E-01 -8.745097555E-03 6.409421650E-01
 8.046392202E-01 -7.295874879E-03 6.338592498E-01
 8.157624006E-01 -6.134402007E-03 6.312145777E-01
 8.271027803E-01 -4.938013386E-03 6.215195458E-01
 8.405109048E-01 -3.657254623E-03 6.166094666E-01
 8.529577851E-01 -2.541202120E-03 6.097373163E-01
 8.652996421E-01 -1.543572638E-03 6.046374645E-01
 8.763882518E-01 -7.230655174E-04 5.985078654E-01
 8.878752589E-01 1.055936173E-05 5.946350615E-01
 9.008311629E-01 6.859956775E-04 5.917812234E-01
 9.110637307E-01 1.114648650E-03 5.894213340E-01
 9.216136932E-01 1.451336662E-03 5.880093332E-01
 9.309220910E-01 1.657577348E-03 5.874614461E-01
 9.389201999E-01 1.766399248E-03 5.873451582E-01
 9.497904181E-01 1.812005299E-03 5.880778172E-01
 9.612523913E-01 1.740058186E-03 5.893443421E-01
 9.754446149E-01 1.489364658E-03 5.898827000E-01
 9.875718355E-01 1.115931082E-03 5.873308531E-01
 -5.000000000E-01 -1.000000000E+00 7.237161257E-01
 3.500000000E+00 -1.000000000E+00 7.285531421E-01
 3.500000000E+00 1.000000000E+00 7.084897717E-01
 -5.000000000E-01 1.000000000E+00 7.239849250E-01
 9.946590066E-01 1.614863926E-03 5.912790064E-01
 9.832748175E-01 4.025198752E-03 6.334012994E-01
 9.682210386E-01 7.199585671E-03 6.656584332E-01
 9.518466890E-01 1.069565723E-02 6.939042045E-01
 9.362180233E-01 1.401519729E-02 7.153338743E-01
 9.224564433E-01 1.693264116E-02 7.357689129E-01
 9.112096131E-01 1.929208450E-02 7.493910658E-01
 9.000803530E-01 2.159851603E-02 7.663321249E-01
 8.888269961E-01 2.388562728E-02 7.804295804E-01
 8.771843612E-01 2.617250104E-02 7.914743293E-01
 8.646958470E-01 2.856616769E-02 7.993773605E-01
 8.522403538E-01 3.092632536E-02 8.171918796E-01
 8.410749733E-01 3.298453987E-02 8.283208672E-01
 8.299692571E-01 3.494193219E-02 8.305617640E-01
 8.178638816E-01 3.705521114E-02 8.434523620E-01
 8.054254651E-01 3.917015158E-02 8.537244911E-01
 7.924442887E-01 4.129270464E-02 8.560884425E-01
 7.796801031E-01 4.335551336E-02 8.680006793E-01
 7.677593231E-01 4.524818994E-02 8.809170751E-01
 7.551043630E-01 4.717426561E-02 8.846985273E-01
 7.413747609E-01 4.921245016E-02 8.917269339E-01
 7.291295230E-01 5.100387335E-02 9.049847010E-01
 7.182239592E-01 5.255348422E-02 9.128498296E-01
 7.067122161E-01 5.414152145E-02 9.242233407E-01
 6.939324737E-01 5.583889782E-02 9.328198861E-01
 6.806506515E-01 5.752670020E-02 9.398672085E-01
 6.691164076E-01 5.893570371E-02 9.431592426E-01
 6.581212878E-01 6.023318693E-02 9.521517833E-01
 6.460856795E-01 6.159644574E-02 9.518292031E-01
 6.339586675E-01 6.290339679E-02 9.230536806E-01
 6.219114363E-01 6.411888450E-02 9.633130752E-01
 6.105526090E-01 6.520854682E-02 1.148788645E+00
 5.990244448E-01 6.625413150E-02 1.136452369E+00
 5.871421397E-01 6.725558266E-02 1.127317635E+00
 5.748134553E-01 6.821507588E-02 1.123486207E+00
 5.620210767E-01 6.910960749E-02 1.112464389E+00
 5.501312315E-01 6.987196952E-02 1.116875239E+00
 5.390265882E-01 7.052221149E-02 1.102811218E+00
 5.281418860E-01 7.108486444E-02 1.100858640E+00
 5.167131424E-01 7.161208615E-02 1.091836058E+00
 5.053457767E-01 7.207264751E-02 1.088659473E+00
 4.932402819E-01 7.247624546E-02 1.073454880E+00
 4.798474163E-01 7.283449546E-02 1.071103878E+00
 4.664378017E-01 7.312201336E-02 1.064930197E+00
 4.534241110E-01 7.330628112E-02 1.050793678E+00
 4.409300536E-01 7.340303808E-02 1.046838368E+00
 4.288429767E-01 7.343378663E-02 1.041559834E+00
 4.169093221E-01 7.339949533E-02 1.035468556E+00
 4.050400406E-01 7.329741120E-02 1.025409032E+00
 3.930531591E-01 7.313076779E-02 1.021563019E+00
 3.811088502E-01 7.290460169E-02 1.014818020E+00
 3.689600527E-01 7.260599360E-02 1.009711182E+00
 3.562527597E-01 7.223480940E-02 1.010881027E+00
 3.431282640E-01 7.176753879E-02 1.001051881E+00
 3.308800161E-01 7.125775144E-02 9.964506169E-01
 3.189279884E-01 7.069620118E-02 9.920161404E-01
 3.059076369E-01 7.000243664E-02 9.814821218E-01
 2.924145162E-01 6.920345128E-02 9.788104990E-01
 2.796760350E-01 6.837598979E-02 9.747799631E-01
 2.679265738E-01 6.753095612E-02 9.678315995E-01
 2.558710426E-01 6.659202278E-02 9.633151108E-01
 2.436235696E-01 6.555779651E-02 9.570490060E-01
 2.312743515E-01 6.442729384E-02 9.504071258E-01
 2.189404443E-01 6.321426854E-02 9.456624342E-01
 2.066043690E-01 6.190219149E-02 9.383623484E-01
 1.939863712E-01 6.045544520E-02 9.301289941E-01
 1.817351133E-01 5.895105749E-02 9.235069096E-01
 1.699989811E-01 5.740749091E-02 9.163284200E-01
 1.581548452E-01 5.573897623E-02 9.079284726E-01
 1.466467083E-01 5.400773138E-02 9.005261018E-01
 1.351300925E-01 5.214919336E-02 8.909246983E-01
 1.235033348E-01 5.014168657E-02 8.804846325E-01
 1.125682369E-01 4.811719060E-02 8.702843885E-01
 1.021079943E-01 4.604649171E-02 8.595291413E-01
 9.157600626E-02 4.380918108E-02 8.475093462E-01
 8.043999225E-02 4.125544615E-02 8.319093429E-01
 6.980623677E-02 3.861365467E-02 8.165841067E-01
 5.992320366E-02 3.593342192E-02 7.982606519E-01
 6.999097019E-02 -2.944435831E-02 8.404132151E-01
 8.005985990E-02 -3.132100869E-02 8.446382499E-01
 9.019456804E-02 -3.307547234E-02 8.500304970E-01
 1.009476855E-01 -3.480527364E-02 8.524122621E-01
 1.122985147E-01 -3.652105294E-02 8.576849425E-01
 1.238704883E-01 -3.816169314E-02 8.625032945E-01
 1.352727413E-01 -3.968581930E-02 8.679135532E-01
 1.464481950E-01 -4.109140299E-02 8.724982548E-01
 1.584539637E-01 -4.251799919E-02 8.768409534E-01
 1.707200706E-01 -4.389868490E-02 8.842611419E-01
 1.827937886E-01 -4.517603479E-02 8.903539116E-01
 1.945088208E-01 -4.634084739E-02 8.967857699E-01
 2.059432417E-01 -4.740685783E-02 9.020339462E-01
 2.181147113E-01 -4.847335070E-02 9.099092137E-01
 2.308869138E-01 -4.950601608E-02 9.175443943E-01
 2.435373142E-01 -5.044684000E-02 9.234688454E-01
 2.557970136E-01 -5.128372461E-02 9.342637048E-01
 2.675398141E-01 -5.200209282E-02 9.413013747E-01
 2.794967741E-01 -5.265001208E-02 9.469548251E-01
 2.919271290E-01 -5.324310437E-02 9.558735387E-01
 3.046064228E-01 -5.374960415E-02 9.647141392E-01
 3.172196895E-01 -5.415281840E-02 9.718923594E-01
 3.298774511E-01 -5.445214175E-02 9.788631165E-01
 3.420734853E-01 -5.464276858E-02 9.886867086E-01
 3.535144925E-01 -5.471214466E-02 9.938548045E-01
 3.646577448E-01 -5.468149856E-02 9.921839210E-01
 3.755460083E-01 -5.456166156E-02 9.909089888E-01
 3.870688379E-01 -5.433566682E-02 9.898850719E-01
 3.999749869E-01 -5.394912697E-02 9.828196236E-01
 4.133128822E-01 -5.341274105E-02 9.731807283E-01
 4.259328395E-01 -5.276639760E-02 9.622664427E-01
 4.383461326E-01 -5.201086774E-02 9.487642139E-01
 4.501730204E-01 -5.117393844E-02 9.392092564E-01
 4.614059627E-01 -5.026575550E-02 9.191782662E-01
 4.729083329E-01 -4.925194010E-02 9.056446213E-01
 4.844816625E-01 -4.814748093E-02 8.916796022E-01
 4.966817647E-01 -4.689386114E-02 8.758611574E-01
 5.100408494E-01 -4.543602094E-02 8.608386641E-01
 5.232993364E-01 -4.389316775E-02 8.445260613E-01
 5.363072753E-01 -4.231059365E-02 8.271823930E-01
 5.487785637E-01 -4.075198062E-02 8.156385781E-01
 5.614885688E-01 -3.912330791E-02 8.023736112E-01
 5.745235384E-01 -3.740859590E-02 7.907545689E-01
 5.866677761E-01 -3.578172438E-02 7.777034527E-01
 5.989196599E-01 -3.412780352E-02 7.693093535E-01
 6.128191054E-01 -3.222055919E-02 7.555874720E-01
 6.277979016E-01 -3.016555775E-02 7.447217701E-01
 6.432449818E-01 -2.803937346E-02 7.337594879E-01
 6.574996710E-01 -2.606802713E-02 7.221195372E-01
 6.703247428E-01 -2.431779262E-02 7.145311131E-01
 6.830616295E-01 -2.258606255E-02 7.069715121E-01
 6.953573525E-01 -2.091760468E-02 6.976228107E-01
 7.086015642E-01 -1.914791018E-02 6.903632795E-01
 7.221804857E-01 -1.735155005E-02 6.813191967E-01
 7.349004745E-01 -1.570435660E-02 6.739513467E-01
 7.481769621E-01 -1.402605884E-02 6.679002154E-01
 7.610538304E-01 -1.241562096E-02 6.592760318E-01
 7.735135555E-01 -1.090047602E-02 6.524653016E-01
 7.859597802E-01 -9.426085744E-03 6.452690189E-01
 7.981849313E-01 -8.020486217E-03 6.374283393E-01
 8.102008104E-01 -6.715138443E-03 6.324415081E-01
 8.214325905E-01 -5.536207696E-03 6.264396055E-01
 8.338068426E-01 -4.297634005E-03 6.191494744E-01
 8.467343450E-01 -3.099228372E-03 6.131582387E-01
 8.591287136E-01 -2.042387379E-03 6.071284251E-01
 8.708439469E-01 -1.133319078E-03 6.014757761E-01
 8.821317554E-01 -3.562530778E-04 5.962740304E-01
 8.943532109E-01 3.482775196E-04 5.934756764E-01
 9.059474468E-01 9.003221639E-04 5.901319872E-01
 9.163387120E-01 1.282992656E-03 5.886968803E-01
 9.443553090E-01 1.789202273E-03 5.879707590E-01
 9.555214047E-01 1.776031742E-03 5.885010999E-01
 9.683485031E-01 1.614711422E-03 5.902506459E-01
 9.815082252E-01 1.302647870E-03 5.882160694E-01
 9.936484098E-01 8.148978231E-04 5.936054598E-01
 -5.000000000E-01 9.500000000E-01 7.215529297E-01
 -5.000000000E-01 9.000000000E-01 7.178782371E-01
 -5.000000000E-01 8.500000000E-01 7.149299103E-01
 -5.000000000E-01 8.000000000E-01 7.124150205E-01
 -5.000000000E-01 7.500000000E-01 7.099903154E-01
 -5.000000000E-01 7.000000000E-01 7.076007881E-01
 -5.000000000E-01 6.500000000E-01 7.051836196E-01
 -5.000000000E-01 6.000000000E-01 7.027217056E-01
 -5.000000000E-01 5.500000000E-01 7.002187464E-01
 -5.000000000E-01 5.000000000E-01 6.976559351E-01
 -5.000000000E-01 4.500000000E-01 6.950574597E-01
 -5.000000000E-01 4.000000000E-01 6.924841224E-01
 -5.000000000E-01 3.500000000E-01 6.899752365E-01
 -5.000000000E-01 3.000000000E-01 6.875863124E-01
 -5.000000000E-01 2.500000000E-01 6.853692290E-01
 -5.000000000E-01 2.000000000E-01 6.834169076E-01
 -5.000000000E-01 1.500000000E-01 6.818389144E-01
 -5.000000000E-01 1.000000000E-01 6.806641144E-01
 -5.000000000E-01 5.000000000E-02 6.799295196E-01
 -5.000000000E-01 2.752242878E-12 6.796844234E-01
 -5.000000000E-01 -5.000000000E-02 6.799573774E-01
 -5.000000000E-01 -1.000000000E-01 6.807264505E-01
 -5.000000000E-01 -1.500000000E-01 6.819412314E-01
 -5.000000000E-01 -2.000000000E-01 6.835489741E-01
 -5.000000000E-01 -2.500000000E-01 6.854229335E-01
 -5.000000000E-01 -3.000000000E-01 6.875546400E-01
 -5.000000000E-01 -3.500000000E-01 6.898919726E-01
 -5.000000000E-01 -4.000000000E-01 6.923005956E-01
 -5.000000000E-01 -4.500000000E-01 6.947694709E-01
 -5.000000000E-01 -5.000000000E-01 6.972071665E-01
 -5.000000000E-01 -5.500000000E-01 6.996644426E-01
 -5.000000000E-01 -6.000000000E-01 7.021181053E-01
 -5.000000000E-01 -6.500000000E-01 7.044505933E-01
 -5.000000000E-01 -7.000000000E-01 7.068186135E-01
 -5.000000000E-01 -7.500000000E-01 7.091994521E-01
 -5.000000000E-01 -8.000000000E-01 7.116211594E-01
 -5.000000000E-01 -8.500000000E-01 7.142325641E-01
 -5.000000000E-01 -9.000000000E-01 7.172526194E-01
 -5.000000000E-01 -9.500000000E-01 7.211640299E-01
 -4.500000000E-01 -1.000000000E+00 7.209456718E-01
 -4.000000000E-01 -1.000000000E+00 7.171324508E-01
 -3.500000000E-01 -1.000000000E+00 7.146888532E-01
 -3.000000000E-01 -1.000000000E+00 7.129798734E-01
 -2.500000000E-01 -1.000000000E+00 7.119914462E-01
 -2.000000000E-01 -1.000000000E+00 7.115380824E-01
 -1.500000000E-01 -1.000000000E+00 7.115953180E-01
 -1.000000000E-01 -1.000000000E+00 7.122465704E-01
 -5.000000000E-02 -1.000000000E+00 7.135067501E-01
 -9.424683256E-13 -1.000000000E+00 7.153529535E-01
 5.000000000E-02 -1.000000000E+00 7.176112252E-01
 1.000000000E-01 -1.000000000E+00 7.202180683E-01
 1.500000000E-01 -1.000000000E+00 7.231881680E-01
 2.000000000E-01 -1.000000000E+00 7.263813410E-01
 2.500000000E-01 -1.000000000E+00 7.295298863E-01
 3.000000000E-01 -1.000000000E+00 7.324627483E-01
 3.500000000E-01 -1.000000000E+00 7.350044879E-01
 4.000000000E-01 -1.000000000E+00 7.370318835E-01
 4.500000000E-01 -1.000000000E+00 7.384670186E-01
 5.000000000E-01 -1.000000000E+00 7.391910943E-01
 5.500000000E-01 -1.000000000E+00 7.392296556E-01
 6.000000000E-01 -1.000000000E+00 7.386231065E-01
 6.500000000E-01 -1.000000000E+00 7.374422932E-01
 7.000000000E-01 -1.000000000E+00 7.357978880E-01
 7.500000000E-01 -1.000000000E+00 7.338184932E-01
 8.000000000E-01 -1.000000000E+00 7.315878326E-01
 8.500000000E-01 -1.000000000E+00 7.290711745E-01
 9.000000000E-01 -1.000000000E+00 7.265698117E-01
 9.500000000E-01 -1.000000000E+00 7.241403568E-01
 1.000000000E+00 -1.000000000E+00 7.218566968E-01
 1.050000000E+00 -1.000000000E+00 7.197750899E-01
 1.100000000E+00 -1.000000000E+00 7.179262010E-01
 1.150000000E+00 -1.000000000E+00 7.163815156E-01
 1.200000000E+00 -1.000000000E+00 7.150986241E-01
 1.250000000E+00 -1.000000000E+00 7.140839166E-01
 1.300000000E+00 -1.000000000E+00 7.133136604E-01
 1.350000000E+00 -1.000000000E+00 7.127917953E-01
 1.400000000E+00 -1.000000000E+00 7.124852256E-01
 1.450000000E+00 -1.000000000E+00 7.123375540E-01
 1.500000000E+00 -1.000000000E+00 7.123525139E-01
 1.550000000E+00 -1.000000000E+00 7.124913460E-01
 1.600000000E+00 -1.000000000E+00 7.127128364E-01
 1.650000000E+00 -1.000000000E+00 7.130507365E-01
 1.700000000E+00 -1.000000000E+00 7.134191464E-01
 1.750000000E+00 -1.000000000E+00 7.138409610E-01
 1.800000000E+00 -1.000000000E+00 7.143121553E-01
 1.850000000E+00 -1.000000000E+00 7.148173450E-01
 1.900000000E+00 -1.000000000E+00 7.153315827E-01
 1.950000000E+00 -1.000000000E+00 7.158384169E-01
 2.000000000E+00 -1.000000000E+00 7.163729000E-01
 2.050000000E+00 -1.000000000E+00 7.168710810E-01
 2.100000000E+00 -1.000000000E+00 7.174298411E-01
 2.150000000E+00 -1.000000000E+00 7.179396012E-01
 2.200000000E+00 -1.000000000E+00 7.184115011E-01
 2.250000000E+00 -1.000000000E+00 7.188663004E-01
 2.300000000E+00 -1.000000000E+00 7.193006178E-01
 2.350000000E+00 -1.000000000E+00 7.197191783E-01
 2.400000000E+00 -1.000000000E+00 7.201473818E-01
 2.450000000E+00 -1.000000000E+00 7.205197118E-01
 2.500000000E+00 -1.000000000E+00 7.208576161E-01
 2.550000000E+00 -1.000000000E+00 7.212241260E-01
 2.600000000E+00 -1.000000000E+00 7.215393306E-01
 2.650000000E+00 -1.000000000E+00 7.218133945E-01
 2.700000000E+00 -1.000000000E+00 7.220424223E-01
 2.750000000E+00 -1.000000000E+00 7.223104439E-01
 2.800000000E+00 -1.000000000E+00 7.225705561E-01
 2.850000000E+00 -1.000000000E+00 7.227850284E-01
 2.900000000E+00 -1.000000000E+00 7.229801243E-01
 2.950000000E+00 -1.000000000E+00 7.231554145E-01
 3.000000000E+00 -1.000000000E+00 7.233279900E-01
 3.050000000E+00 -1.000000000E+00 7.234954203E-01
 3.100000000E+00 -1.000000000E+00 7.235922043E-01
 3.150000000E+00 -1.000000000E+00 7.237686000E-01
 3.200000000E+00 -1.000000000E+00 7.239515983E-01
 3.250000000E+00 -1.000000000E+00 7.241221162E-01
 3.300000000E+00 -1.000000000E+00 7.243398663E-01
 3.350000000E+00 -1.000000000E+00 7.247252672E-01
 3.400000000E+00 -1.000000000E+00 7.252126734E-01
 3.450000000E+00 -1.000000000E+00 7.263688868E-01
 3.500000000E+00 -9.500000000E-01 7.298634161E-01
 3.500000000E+00 -9.000000000E-01 7.305181998E-01
 3.500000000E+00 -8.500000000E-01 7.309758306E-01
 3.500000000E+00 -8.000000000E-01 7.313472867E-01
 3.500000000E+00 -7.500000000E-01 7.316539474E-01
 3.500000000E+00 -7.000000000E-01 7.319447121E-01
 3.500000000E+00 -6.500000000E-01 7.322566294E-01
 3.500000000E+00 -6.000000000E-01 7.325748852E-01
 3.500000000E+00 -5.500000000E-01 7.328948278E-01
 3.500000000E+00 -5.000000000E-01 7.332439662E-01
 3.500000000E+00 -4.500000000E-01 7.335742148E-01
 3.500000000E+00 -4.000000000E-01 7.339193668E-01
 3.500000000E+00 -3.500000000E-01 7.342803524E-01
 3.500000000E+00 -3.000000000E-01 7.346192162E-01
 3.500000000E+00 -2.500000000E-01 7.349379855E-01
 3.500000000E+00 -2.000000000E-01 7.351648741E-01
 3.500000000E+00 -1.500000000E-01 7.352725771E-01
 3.500000000E+00 -1.000000000E-01 7.352968412E-01
 3.500000000E+00 -5.000000000E-02 7.352958911E-01
 3.500000000E+00 -2.752242878E-12 7.352826094E-01
 3.500000000E+00 5.000000000E-02 7.352402744E-01
 3.500000000E+00 1.000000000E-01 7.351302173E-01
 3.500000000E+00 1.500000000E-01 7.348942428E-01
 3.500000000E+00 2.000000000E-01 7.345594734E-01
 3.500000000E+00 2.500000000E-01 7.341859378E-01
 3.500000000E+00 3.000000000E-01 7.338236098E-01
 3.500000000E+00 3.500000000E-01 7.334717334E-01
 3.500000000E+00 4.000000000E-01 7.331385553E-01
 3.500000000E+00 4.500000000E-01 7.327613789E-01
 3.500000000E+00 5.000000000E-01 7.323026137E-01
 3.500000000E+00 5.500000000E-01 7.318847312E-01
 3.500000000E+00 6.000000000E-01 7.317345831E-01
 3.500000000E+00 6.500000000E-01 7.319834133E-01
 3.500000000E+00 7.000000000E-01 7.323925263E-01
 3.500000000E+00 7.500000000E-01 7.322383850E-01
 3.500000000E+00 8.000000000E-01 7.307562332E-01
 3.500000000E+00 8.500000000E-01 7.274351710E-01
 3.500000000E+00 9.000000000E-01 7.226044830E-01
 3.500000000E+00 9.500000000E-01 7.166037007E-01
 3.450000000E+00 1.000000000E+00 6.961148801E-01
 3.400000000E+00 1.000000000E+00 6.905028353E-01
 3.350000000E+00 1.000000000E+00 6.891684211E-01
 3.300000000E+00 1.000000000E+00 6.884386346E-01
 3.250000000E+00 1.000000000E+00 6.880434542E-01
 3.200000000E+00 1.000000000E+00 6.881493605E-01
 3.150000000E+00 1.000000000E+00 6.886673041E-01
 3.100000000E+00 1.000000000E+00 6.891784336E-01
 3.050000000E+00 1.000000000E+00 6.897982651E-01
 3.000000000E+00 1.000000000E+00 6.901430481E-01
 2.950000000E+00 1.000000000E+00 6.906998454E-01
 2.900000000E+00 1.000000000E+00 6.912624535E-01
 2.850000000E+00 1.000000000E+00 6.916880406E-01
 2.800000000E+00 1.000000000E+00 6.917888802E-01
 2.750000000E+00 1.000000000E+00 6.920633900E-01
 2.700000000E+00 1.000000000E+00 6.921880239E-01
 2.650000000E+00 1.000000000E+00 6.926115599E-01
 2.600000000E+00 1.000000000E+00 6.936165627E-01
 2.550000000E+00 1.000000000E+00 6.946010916E-01
 2.500000000E+00 1.000000000E+00 6.949662594E-01
 2.450000000E+00 1.000000000E+00 6.952809830E-01
 2.400000000E+00 1.000000000E+00 6.957907306E-01
 2.350000000E+00 1.000000000E+00 6.960010468E-01
 2.300000000E+00 1.000000000E+00 6.965313290E-01
 2.250000000E+00 1.000000000E+00 6.972073842E-01
 2.200000000E+00 1.000000000E+00 6.974303549E-01
 2.150000000E+00 1.000000000E+00 6.977829886E-01
 2.100000000E+00 1.000000000E+00 6.981786884E-01
 2.050000000E+00 1.000000000E+00 6.991559921E-01
 2.000000000E+00 1.000000000E+00 7.002793599E-01
 1.950000000E+00 1.000000000E+00 7.009569309E-01
 1.900000000E+00 1.000000000E+00 7.014164375E-01
 1.850000000E+00 1.000000000E+00 7.020346847E-01
 1.800000000E+00 1.000000000E+00 7.027764500E-01
 1.750000000E+00 1.000000000E+00 7.040334163E-01
 1.700000000E+00 1.000000000E+00 7.054721985E-01
 1.650000000E+00 1.000000000E+00 7.067005827E-01
 1.600000000E+00 1.000000000E+00 7.080702069E-01
 1.550000000E+00 1.000000000E+00 7.098845410E-01
 1.500000000E+00 1.000000000E+00 7.116933122E-01
 1.450000000E+00 1.000000000E+00 7.134680054E-01
 1.400000000E+00 1.000000000E+00 7.154733218E-01
 1.350000000E+00 1.000000000E+00 7.183556996E-01
 1.300000000E+00 1.000000000E+00 7.213219370E-01
 1.250000000E+00 1.000000000E+00 7.245657633E-01
 1.200000000E+00 1.000000000E+00 7.279150217E-01
 1.150000000E+00 1.000000000E+00 7.319559550E-01
 1.100000000E+00 1.000000000E+00 7.358462186E-01
 1.050000000E+00 1.000000000E+00 7.399726701E-01
 1.000000000E+00 1.000000000E+00 7.432073377E-01
 9.500000000E-01 1.000000000E+00 7.474300455E-01
 9.000000000E-01 1.000000000E+00 7.527061556E-01
 8.500000000E-01 1.000000000E+00 7.580572589E-01
 8.000000000E-01 1.000000000E+00 7.626449275E-01
 7.500000000E-01 1.000000000E+00 7.660438767E-01
 7.000000000E-01 1.000000000E+00 7.678125547E-01
 6.500000000E-01 1.000000000E+00 7.700870916E-01
 6.000000000E-01 1.000000000E+00 7.710715928E-01
 5.500000000E-01 1.000000000E+00 7.696864770E-01
 5.000000000E-01 1.000000000E+00 7.685310170E-01
 4.500000000E-01 1.000000000E+00 7.657866205E-01
 4.000000000E-01 1.000000000E+00 7.617016134E-01
 3.500000000E-01 1.000000000E+00 7.567209122E-01
 3.000000000E-01 1.000000000E+00 7.519841716E-01
 2.500000000E-01 1.000000000E+00 7.461431008E-01
 2.000000000E-01 1.000000000E+00 7.403522891E-01
 1.500000000E-01 1.000000000E+00 7.347747774E-01
 1.000000000E-01 1.000000000E+00 7.295315951E-01
 5.000000000E-02 1.000000000E+00 7.249505546E-01
 1.733724275E-12 1.000000000E+00 7.211113341E-01
 -5.000000000E-02 1.000000000E+00 7.179669810E-01
 -1.000000000E-01 1.000000000E+00 7.157165818E-01
 -1.500000000E-01 1.000000000E+00 7.142478803E-01
 -2.000000000E-01 1.000000000E+00 7.135215934E-01
 -2.500000000E-01 1.000000000E+00 7.135448125E-01
 -3.000000000E-01 1.000000000E+00 7.142374362E-01
 -3.500000000E-01 1.000000000E+00 7.156536588E-01
 -4.000000000E-01 1.000000000E+00 7.178774104E-01
 -4.500000000E-01 1.000000000E+00 7.213867607E-01
 9.843855199E-01 -3.834589556E-03 5.931994645E-01
 8.852349084E-01 -6.001925336E-03 5.992008073E-01
 8.079229478E-01 -1.182198505E-02 6.343589822E-01
 7.387577522E-01 -2.073175709E-02 6.736819731E-01
 6.677512902E-01 -3.031968873E-02 7.166514457E-01
 5.965834134E-01 -4.014406078E-02 7.718686069E-01
 5.344114553E-01 -4.779784214E-02 8.284173284E-01
 4.698420039E-01 -5.505095239E-02 9.064466467E-01
 4.170090642E-01 -5.864518443E-02 9.660091880E-01
 3.562739597E-01 -5.933808298E-02 9.894295796E-01
 3.012175488E-01 -5.878515382E-02 9.596729784E-01
 2.400581158E-01 -5.494203857E-02 9.194468102E-01
 1.792913481E-01 -5.018942503E-02 8.865833009E-01
 1.200734025E-01 -4.260530568E-02 8.585297876E-01
 7.154905959E-02 -3.454049539E-02 8.367091833E-01
 3.530630503E-02 -2.716431945E-02 8.011508379E-01