TITLE     = "Visualization of the solution"
VARIABLES = "x"
"y"
"Mach"
ZONE T="Zone"
 STRANDID=0, SOLUTIONTIME=0
 Nodes=12069, Elements=23559, ZONETYPE=FEQuadrilateral
 DATAPACKING=POINT
 DT=(DOUBLE DOUBLE DOUBLE )
 1.000208855E+00 5.386546836E-04 5.606802319E-01
 9.895682931E-01 2.496930771E-03 6.485783757E-01
 9.785215855E-01 4.484404810E-03 6.800472845E-01
 9.649990797E-01 6.900290027E-03 7.015866738E-01
 9.524022937E-01 9.213869460E-03 7.295449216E-01
 9.391340017E-01 1.154653728E-02 7.477023623E-01
 9.283447266E-01 1.339688059E-02 7.618772216E-01
 9.158706069E-01 1.549573056E-02 7.792475438E-01
 9.045425653E-01 1.732437313E-02 7.907467209E-01
 8.927477598E-01 1.920702681E-02 8.121068275E-01
 8.799954057E-01 2.104188502E-02 8.147126467E-01
 8.681577444E-01 2.270930447E-02 8.257538070E-01
 8.551890850E-01 2.441639453E-02 8.299312123E-01
 8.434019089E-01 2.588458546E-02 8.294105737E-01
 8.314379454E-01 2.735235728E-02 8.328578714E-01
 8.181601167E-01 2.895296738E-02 8.392201332E-01
 8.048359156E-01 3.052428924E-02 8.476782541E-01
 7.921935916E-01 3.193288296E-02 8.481854789E-01
 7.795167565E-01 3.333223611E-02 8.536783684E-01
 7.664790750E-01 3.472023457E-02 8.560113282E-01
 7.528528571E-01 3.616653010E-02 8.643584581E-01
 7.381321788E-01 3.766388819E-02 8.696571708E-01
 7.270333767E-01 3.878032044E-02 8.779629729E-01
 7.152908444E-01 3.988735750E-02 8.768319303E-01
 7.034221888E-01 4.102315381E-02 8.869119982E-01
 6.889275312E-01 4.233695194E-02 8.923972541E-01
 6.750560999E-01 4.355158657E-02 9.007031488E-01
 6.651604176E-01 4.438211769E-02 9.042931426E-01
 6.532813311E-01 4.534180835E-02 9.111595613E-01
 6.417680979E-01 4.624201357E-02 9.187021725E-01
 6.296465397E-01 4.711665213E-02 9.207725183E-01
 6.184939742E-01 4.790559411E-02 9.282850201E-01
 6.071681976E-01 4.864010960E-02 9.304669723E-01
 5.942054987E-01 4.946951196E-02 9.438168110E-01
 5.820366740E-01 5.014706030E-02 9.433668799E-01
 5.684176683E-01 5.086458102E-02 9.518842657E-01
 5.557776093E-01 5.145529285E-02 9.564101004E-01
 5.434882641E-01 5.195970461E-02 9.574943807E-01
 5.326051712E-01 5.235121027E-02 9.572889647E-01
 5.209588408E-01 5.273374915E-02 9.625367117E-01
 5.080485940E-01 5.309059471E-02 9.650631354E-01
 4.967198968E-01 5.332379788E-02 9.612873248E-01
 4.834959209E-01 5.355726555E-02 9.636971701E-01
 4.701239169E-01 5.369361117E-02 9.568059872E-01
 4.553971589E-01 5.378005281E-02 9.570600873E-01
 4.418780506E-01 5.379351974E-02 9.563194205E-01
 4.287141860E-01 5.371332914E-02 9.499452046E-01
 4.158445299E-01 5.358803272E-02 9.482190553E-01
 4.037333429E-01 5.340205878E-02 9.433454329E-01
 3.916986585E-01 5.317023024E-02 9.393927938E-01
 3.794358373E-01 5.287352204E-02 9.352008127E-01
 3.690253496E-01 5.259292945E-02 9.338992434E-01
 3.562068939E-01 5.217567086E-02 9.276473840E-01
 3.444434702E-01 5.174118653E-02 9.223810609E-01
 3.320927918E-01 5.124723539E-02 9.206166098E-01
 3.214653134E-01 5.076468736E-02 9.146711925E-01
 3.094061315E-01 5.018754676E-02 9.123712535E-01
 2.961808145E-01 4.947471619E-02 9.049347557E-01
 2.822840512E-01 4.868153483E-02 9.026975787E-01
 2.695213258E-01 4.787569866E-02 8.960745084E-01
 2.576840222E-01 4.708264396E-02 8.914844126E-01
 2.453410476E-01 4.621560127E-02 8.894939626E-01
 2.325361669E-01 4.523749277E-02 8.828377831E-01
 2.203903347E-01 4.425672814E-02 8.777724346E-01
 2.090728879E-01 4.330211133E-02 8.755094172E-01
 1.981071234E-01 4.232400283E-02 8.712697653E-01
 1.857263893E-01 4.115182906E-02 8.653802345E-01
 1.738155782E-01 3.996851668E-02 8.614307406E-01
 1.624439657E-01 3.877373785E-02 8.559428300E-01
 1.502283961E-01 3.743228316E-02 8.532605655E-01
 1.395796686E-01 3.618850932E-02 8.474432478E-01
 1.278969496E-01 3.475446627E-02 8.424117660E-01
 1.161020771E-01 3.322639689E-02 8.384776478E-01
 1.053108498E-01 3.173857555E-02 8.325358147E-01
 9.551147372E-02 3.031351045E-02 8.288234236E-01
 8.403202891E-02 2.853481472E-02 8.228523490E-01
 7.163573056E-02 2.645149082E-02 8.137404978E-01
 6.177716330E-02 2.466133237E-02 8.094353674E-01
 5.181706697E-02 2.269474044E-02 8.009433795E-01
 4.306339473E-02 2.078837343E-02 7.923986335E-01
 3.559346870E-02 1.901171915E-02 7.827057019E-01
 2.908792719E-02 1.729743555E-02 7.730131160E-01
 2.353970334E-02 1.567084901E-02 7.624834786E-01
 1.958457753E-02 1.439835038E-02 7.490364804E-01
 1.594618894E-02 1.310296822E-02 7.356930446E-01
 1.335675921E-02 1.209941879E-02 7.220480137E-01
 1.101321820E-02 1.110301912E-02 7.055498234E-01
 9.298800491E-03 1.030700561E-02 6.885200942E-01
 7.758471649E-03 9.537662379E-03 6.738170756E-01
 6.326705683E-03 8.758436888E-03 6.477632788E-01
 4.386405461E-03 7.564728614E-03 6.098977749E-01
 2.645487431E-03 6.307289470E-03 5.638536514E-01
 1.102213981E-03 4.926198628E-03 4.813145343E-01
 -3.679479414E-04 3.106950317E-03 3.651541065E-01
 -1.085932599E-03 1.677604625E-03 2.380832479E-01
 -1.385475625E-03 5.459912354E-04 1.151969105E-01
 -1.449147239E-03 -7.687007892E-04 2.628350161E-02
 -1.147268806E-03 -2.244294854E-03 1.777880303E-01
 -3.768244642E-04 -3.879672149E-03 3.178853098E-01
 9.476316627E-04 -5.618168041E-03 4.330399652E-01
 2.901185071E-03 -7.436193991E-03 5.309105777E-01
 4.668122157E-03 -8.747760206E-03 5.875362838E-01
 6.693763193E-03 -1.002743933E-02 6.268586726E-01
 8.223006502E-03 -1.088830549E-02 6.568607929E-01
 1.017354708E-02 -1.188847702E-02 6.774892717E-01
 1.251098234E-02 -1.297308598E-02 6.982696127E-01
 1.567904837E-02 -1.429624669E-02 7.199689735E-01
 1.863912679E-02 -1.541388314E-02 7.385207211E-01
 2.238921076E-02 -1.670768857E-02 7.509932178E-01
 2.775201574E-02 -1.837234199E-02 7.646393030E-01
 3.350353613E-02 -1.997875609E-02 7.784141850E-01
 4.099670053E-02 -2.185391448E-02 7.879847481E-01
 4.850070179E-02 -2.355563268E-02 7.963656860E-01
 5.739491433E-02 -2.539724857E-02 8.031083628E-01
 6.610904634E-02 -2.705289796E-02 8.095272735E-01
 7.614018768E-02 -2.882022597E-02 8.160095418E-01
 8.605872840E-02 -3.043849394E-02 8.199335536E-01
 9.642543644E-02 -3.202889115E-02 8.262675899E-01
 1.070459709E-01 -3.356280178E-02 8.320712173E-01
 1.186267138E-01 -3.513048962E-02 8.369946713E-01
 1.299754679E-01 -3.657720238E-02 8.419750889E-01
 1.407635808E-01 -3.788302094E-02 8.474947275E-01
 1.516196579E-01 -3.913448378E-02 8.535242772E-01
 1.635388285E-01 -4.042944312E-02 8.585687556E-01
 1.751630306E-01 -4.162247106E-02 8.637660826E-01
 1.873420328E-01 -4.281413555E-02 8.716997826E-01
 1.979700476E-01 -4.378686473E-02 8.771001835E-01
 2.091482282E-01 -4.475449771E-02 8.822038213E-01
 2.215683460E-01 -4.577124491E-02 8.906328940E-01
 2.343704551E-01 -4.673427343E-02 8.978584592E-01
 2.469994575E-01 -4.760243744E-02 9.033343656E-01
 2.601537108E-01 -4.844269902E-02 9.135039626E-01
 2.716592848E-01 -4.909869656E-02 9.216549383E-01
 2.848888934E-01 -4.976343736E-02 9.282772504E-01
 2.979132235E-01 -5.032553151E-02 9.364767699E-01
 3.109062910E-01 -5.079483241E-02 9.451639595E-01
 3.228407800E-01 -5.113519356E-02 9.538431796E-01
 3.350932002E-01 -5.138617009E-02 9.598697044E-01
 3.460479975E-01 -5.152038857E-02 9.634530928E-01
 3.574592173E-01 -5.159148201E-02 9.721470428E-01
 3.683446348E-01 -5.154688284E-02 9.732076997E-01
 3.789962530E-01 -5.143909156E-02 9.778791864E-01
 3.902579248E-01 -5.119970068E-02 9.738453902E-01
 4.027677476E-01 -5.083336309E-02 9.704956573E-01
 4.151034057E-01 -5.033043772E-02 9.632895657E-01
 4.283520579E-01 -4.965581745E-02 9.522383286E-01
 4.408946931E-01 -4.887367412E-02 9.386807541E-01
 4.533063173E-01 -4.799167067E-02 9.277249206E-01
 4.655706882E-01 -4.698925838E-02 9.120269193E-01
 4.780116379E-01 -4.586594179E-02 8.962137628E-01
 4.893591404E-01 -4.475663975E-02 8.842858648E-01
 5.015419722E-01 -4.346850514E-02 8.680643230E-01
 5.150307417E-01 -4.194006324E-02 8.494925383E-01
 5.288364887E-01 -4.029954970E-02 8.336152166E-01
 5.424947143E-01 -3.859723359E-02 8.173187295E-01
 5.556737185E-01 -3.690870106E-02 8.036575101E-01
 5.681485534E-01 -3.526400775E-02 7.900742877E-01
 5.811572075E-01 -3.352874517E-02 7.787273340E-01
 5.925657749E-01 -3.197420016E-02 7.670666760E-01
 6.042128205E-01 -3.037569672E-02 7.555439637E-01
 6.175206900E-01 -2.855753154E-02 7.452332323E-01
 6.318999529E-01 -2.660672553E-02 7.362324897E-01
 6.456453204E-01 -2.472671308E-02 7.252699136E-01
 6.589316726E-01 -2.293526754E-02 7.179466007E-01
 6.719886065E-01 -2.115309052E-02 7.064793230E-01
 6.844376326E-01 -1.949814521E-02 6.990235775E-01
 6.969718933E-01 -1.785414107E-02 6.916789909E-01
 7.110160589E-01 -1.602610014E-02 6.817207523E-01
 7.239558101E-01 -1.441698987E-02 6.773065871E-01
 7.357402444E-01 -1.296664495E-02 6.714536677E-01
 7.474758625E-01 -1.151405182E-02 6.618102931E-01
 7.597993612E-01 -1.005296782E-02 6.549841775E-01
 7.725461721E-01 -8.625309914E-03 6.516414649E-01
 7.840011716E-01 -7.351420354E-03 6.442704549E-01
 7.965991497E-01 -6.010314915E-03 6.377798809E-01
 8.075569868E-01 -4.884183872E-03 6.304758180E-01
 8.194124103E-01 -3.759791143E-03 6.266828927E-01
 8.319452405E-01 -2.633089432E-03 6.206997738E-01
 8.441443443E-01 -1.611732878E-03 6.141239992E-01
 8.563308120E-01 -7.081881049E-04 6.101313772E-01
 8.689355254E-01 1.238524274E-04 6.057708798E-01
 8.815957308E-01 8.377836784E-04 6.018461003E-01
 8.951348066E-01 1.448094146E-03 5.982926630E-01
 9.058480859E-01 1.794510870E-03 5.983344926E-01
 9.158796668E-01 2.038792474E-03 5.979156509E-01
 9.251256585E-01 2.180770738E-03 5.977719839E-01
 9.339596033E-01 2.242317656E-03 5.986396109E-01
 9.462033510E-01 2.214836190E-03 6.003573155E-01
 9.593954086E-01 2.040239982E-03 6.030740397E-01
 9.753842354E-01 1.644860604E-03 6.052646362E-01
 9.886007905E-01 1.138134976E-03 6.048121192E-01
 -5.000000000E-01 -1.000000000E+00 7.249827933E-01
 3.500000000E+00 -1.000000000E+00 7.284065799E-01
 3.500000000E+00 1.000000000E+00 7.165175181E-01
 -5.000000000E-01 1.000000000E+00 7.253855324E-01
 9.948885739E-01 1.517792727E-03 6.255446492E-01
 9.840449393E-01 3.490667790E-03 6.654552862E-01
 9.717603326E-01 5.692347419E-03 6.907028641E-01
 9.587006867E-01 8.057079744E-03 7.163762169E-01
 9.457681477E-01 1.038020337E-02 7.392077215E-01
 9.337393641E-01 1.247170893E-02 7.547635142E-01
 9.221076667E-01 1.444630558E-02 7.709537028E-01
 9.102065861E-01 1.641005185E-02 7.841948651E-01
 8.986451626E-01 1.826569997E-02 8.033315473E-01
 8.863715827E-01 2.012445591E-02 8.126897554E-01
 8.740765750E-01 2.187559474E-02 8.209211314E-01
 8.616734147E-01 2.356284950E-02 8.283256955E-01
 8.492954969E-01 2.515048999E-02 8.295081738E-01
 8.374199271E-01 2.661847137E-02 8.308506652E-01
 8.247990310E-01 2.815266233E-02 8.354576586E-01
 8.114980161E-01 2.973862831E-02 8.443597568E-01
 7.985147536E-01 3.122858610E-02 8.475010649E-01
 7.858551741E-01 3.263255954E-02 8.513374543E-01
 7.729979157E-01 3.402623534E-02 8.540709547E-01
 7.596659660E-01 3.544338234E-02 8.607627397E-01
 7.454925179E-01 3.691520914E-02 8.660896467E-01
 7.325827777E-01 3.822210431E-02 8.754423098E-01
 7.211621106E-01 3.933383897E-02 8.760702804E-01
 7.093565166E-01 4.045525566E-02 8.824430548E-01
 6.961748600E-01 4.168005288E-02 8.893686109E-01
 6.819918156E-01 4.294426925E-02 8.962968100E-01
 6.592208743E-01 4.486196302E-02 9.071935080E-01
 6.475247145E-01 4.579191096E-02 9.162451568E-01
 6.357073188E-01 4.667933285E-02 9.184318245E-01
 6.240702569E-01 4.751112312E-02 9.260390256E-01
 6.128310859E-01 4.827285185E-02 9.273858767E-01
 6.006868482E-01 4.905481078E-02 9.387954645E-01
 5.881210864E-01 4.980828613E-02 9.430276644E-01
 5.752271712E-01 5.050582066E-02 9.475062978E-01
 5.620976388E-01 5.115993693E-02 9.547062165E-01
 5.496329367E-01 5.170749873E-02 9.572311319E-01
 5.380467176E-01 5.215545744E-02 9.569157396E-01
 5.267820060E-01 5.254247971E-02 9.597680981E-01
 5.145037174E-01 5.291217193E-02 9.649419453E-01
 5.023842454E-01 5.320719630E-02 9.621846240E-01
 4.901079088E-01 5.344053172E-02 9.636965774E-01
 4.768099189E-01 5.362543836E-02 9.600340695E-01
 4.627605379E-01 5.373683199E-02 9.561014198E-01
 4.486376047E-01 5.378678627E-02 9.579228750E-01
 4.352961183E-01 5.375342444E-02 9.523770322E-01
 4.222793579E-01 5.365068093E-02 9.494530338E-01
 4.097889364E-01 5.349504575E-02 9.454915527E-01
 3.977160007E-01 5.328614451E-02 9.418633205E-01
 3.855672479E-01 5.302187614E-02 9.362732059E-01
 3.742305934E-01 5.273322575E-02 9.355979996E-01
 3.626161218E-01 5.238430016E-02 9.307110347E-01
 3.503251821E-01 5.195842870E-02 9.244977186E-01
 3.382681310E-01 5.149421096E-02 9.219091314E-01
 3.267790526E-01 5.100596137E-02 9.171191619E-01
 3.154357225E-01 5.047611706E-02 9.144535247E-01
 3.027934730E-01 4.983113147E-02 9.079549028E-01
 2.892324328E-01 4.907812551E-02 9.041326205E-01
 2.759026885E-01 4.827861674E-02 8.993366439E-01
 2.636026740E-01 4.747917131E-02 8.932835018E-01
 2.515125349E-01 4.664912261E-02 8.910332456E-01
 2.389386073E-01 4.572654702E-02 8.861301596E-01
 2.264632508E-01 4.474711046E-02 8.798679594E-01
 2.147316113E-01 4.377941974E-02 8.766042938E-01
 2.035900056E-01 4.281305708E-02 8.739460801E-01
 1.919167563E-01 4.173791595E-02 8.679958653E-01
 1.797709838E-01 4.056017287E-02 8.634890489E-01
 1.681297719E-01 3.937112726E-02 8.586483110E-01
 1.563361809E-01 3.810301051E-02 8.544533273E-01
 1.449040323E-01 3.681039624E-02 8.507239904E-01
 1.337383091E-01 3.547148779E-02 8.447962547E-01
 1.219995134E-01 3.399043158E-02 8.403748694E-01
 1.107064635E-01 3.248248622E-02 8.359508299E-01
 8.977175131E-02 2.942416258E-02 8.261938680E-01
 7.783387974E-02 2.749315277E-02 8.188671285E-01
 5.679711513E-02 2.367803641E-02 8.071161519E-01
 7.112461701E-02 -2.793656196E-02 8.134276460E-01
 9.124208242E-02 -3.123369254E-02 8.239659834E-01
 1.017357036E-01 -3.279584646E-02 8.289617684E-01
 1.128363423E-01 -3.434664570E-02 8.345383200E-01
 1.243010908E-01 -3.585384600E-02 8.395310751E-01
 1.353695244E-01 -3.723011166E-02 8.447153601E-01
 1.461916193E-01 -3.850875236E-02 8.504949071E-01
 1.575792432E-01 -3.978196345E-02 8.559651219E-01
 1.693509296E-01 -4.102595709E-02 8.612097836E-01
 1.812525317E-01 -4.221830331E-02 8.672893232E-01
 1.926560402E-01 -4.330050014E-02 8.751194943E-01
 2.035591379E-01 -4.427068122E-02 8.793096617E-01
 2.153582871E-01 -4.526287131E-02 8.860717727E-01
 2.279694006E-01 -4.625275917E-02 8.944860680E-01
 2.406849563E-01 -4.716835544E-02 9.006693926E-01
 2.535765842E-01 -4.802256823E-02 9.077180955E-01
 2.659064978E-01 -4.877069779E-02 9.184812383E-01
 2.782740891E-01 -4.943106696E-02 9.244722456E-01
 2.914010584E-01 -5.004448444E-02 9.325144707E-01
 3.044097573E-01 -5.056018196E-02 9.406172276E-01
 3.168735355E-01 -5.096501298E-02 9.498536406E-01
 3.289669901E-01 -5.126068182E-02 9.569452707E-01
 3.405705988E-01 -5.145327933E-02 9.621707685E-01
 3.517536074E-01 -5.155593529E-02 9.668064094E-01
 3.629019260E-01 -5.156918243E-02 9.742871443E-01
 3.736704439E-01 -5.149298720E-02 9.745077952E-01
 3.846270889E-01 -5.131939612E-02 9.777545623E-01
 3.965128362E-01 -5.101653188E-02 9.710328460E-01
 4.089355767E-01 -5.058190040E-02 9.683945157E-01
 4.217277318E-01 -4.999312758E-02 9.573945718E-01
 4.346233755E-01 -4.926474579E-02 9.460282150E-01
 4.471005052E-01 -4.843267240E-02 9.328306548E-01
 4.594385028E-01 -4.749046452E-02 9.207092012E-01
 4.717911631E-01 -4.642760009E-02 9.034746108E-01
 4.836853892E-01 -4.531129077E-02 8.904695053E-01
 4.954505563E-01 -4.411257245E-02 8.767012749E-01
 5.082863569E-01 -4.270428419E-02 8.586804145E-01
 5.219336152E-01 -4.111980647E-02 8.413812626E-01
 5.356656015E-01 -3.944839165E-02 8.253704807E-01
 5.490842164E-01 -3.775296733E-02 8.102441611E-01
 5.619111359E-01 -3.608635440E-02 7.969176156E-01
 5.746528804E-01 -3.439637646E-02 7.842003208E-01
 5.868614912E-01 -3.275147267E-02 7.731031577E-01
 5.983892977E-01 -3.117494844E-02 7.611870535E-01
 6.108667552E-01 -2.946661413E-02 7.503000963E-01
 6.247103214E-01 -2.758212853E-02 7.406368279E-01
 6.387726367E-01 -2.566671930E-02 7.308921783E-01
 6.522884965E-01 -2.383099031E-02 7.213815128E-01
 6.654601395E-01 -2.204417903E-02 7.124064557E-01
 6.782131195E-01 -2.032561786E-02 7.023241265E-01
 6.907047629E-01 -1.867614314E-02 6.955083534E-01
 7.039939761E-01 -1.694012061E-02 6.867892674E-01
 7.174859345E-01 -1.522154501E-02 6.790301166E-01
 7.298480272E-01 -1.369181741E-02 6.747950881E-01
 7.416080534E-01 -1.224034838E-02 6.666303615E-01
 7.536376119E-01 -1.078350982E-02 6.581814154E-01
 7.661727667E-01 -9.339138865E-03 6.531549251E-01
 7.782736719E-01 -7.988365134E-03 6.482214990E-01
 7.903001606E-01 -6.680867635E-03 6.410708608E-01
 8.020780683E-01 -5.447249394E-03 6.338695686E-01
 8.134846985E-01 -4.321987508E-03 6.285384699E-01
 8.256788254E-01 -3.196440288E-03 6.238517562E-01
 8.380447924E-01 -2.122411155E-03 6.173988838E-01
 8.502375782E-01 -1.159960491E-03 6.118916601E-01
 8.626331687E-01 -2.921678388E-04 6.080765082E-01
 8.752656281E-01 4.808180529E-04 6.036196966E-01
 8.883652687E-01 1.142938912E-03 6.002874430E-01
 9.004914463E-01 1.621302508E-03 5.976896978E-01
 9.400814772E-01 2.228576923E-03 5.996184241E-01
 9.527993798E-01 2.127538086E-03 6.015038135E-01
 9.673898220E-01 1.842550293E-03 6.047805546E-01
 9.819925129E-01 1.391497790E-03 6.055717051E-01
 9.944048226E-01 8.383948298E-04 6.098043211E-01
 -5.000000000E-01 9.500000000E-01 7.236402061E-01
 -5.000000000E-01 9.000000000E-01 7.209164417E-01
 -5.000000000E-01 8.500000000E-01 7.187505160E-01
 -5.000000000E-01 8.000000000E-01 7.169013343E-01
 -5.000000000E-01 7.500000000E-01 7.150780676E-01
 -5.000000000E-01 7.000000000E-01 7.133753091E-01
 -5.000000000E-01 6.500000000E-01 7.115552967E-01
 -5.000000000E-01 6.000000000E-01 7.096855729E-01
 -5.000000000E-01 5.500000000E-01 7.077849301E-01
 -5.000000000E-01 5.000000000E-01 7.058613383E-01
 -5.000000000E-01 4.500000000E-01 7.038758085E-01
 -5.000000000E-01 4.000000000E-01 7.018977162E-01
 -5.000000000E-01 3.500000000E-01 6.999113739E-01
 -5.000000000E-01 3.000000000E-01 6.980572299E-01
 -5.000000000E-01 2.500000000E-01 6.963029442E-01
 -5.000000000E-01 2.000000000E-01 6.947346070E-01
 -5.000000000E-01 1.500000000E-01 6.934133536E-01
 -5.000000000E-01 1.000000000E-01 6.924119425E-01
 -5.000000000E-01 5.000000000E-02 6.917593116E-01
 -5.000000000E-01 2.752242878E-12 6.914560000E-01
 -5.000000000E-01 -5.000000000E-02 6.915685122E-01
 -5.000000000E-01 -1.000000000E-01 6.920504875E-01
 -5.000000000E-01 -1.500000000E-01 6.928928753E-01
 -5.000000000E-01 -2.000000000E-01 6.940374648E-01
 -5.000000000E-01 -2.500000000E-01 6.954551743E-01
 -5.000000000E-01 -3.000000000E-01 6.970736430E-01
 -5.000000000E-01 -3.500000000E-01 6.988249172E-01
 -5.000000000E-01 -4.000000000E-01 7.006952028E-01
 -5.000000000E-01 -4.500000000E-01 7.025952118E-01
 -5.000000000E-01 -5.000000000E-01 7.045003292E-01
 -5.000000000E-01 -5.500000000E-01 7.064142194E-01
 -5.000000000E-01 -6.000000000E-01 7.082935719E-01
 -5.000000000E-01 -6.500000000E-01 7.101597333E-01
 -5.000000000E-01 -7.000000000E-01 7.119958665E-01
 -5.000000000E-01 -7.500000000E-01 7.138337182E-01
 -5.000000000E-01 -8.000000000E-01 7.157306876E-01
 -5.000000000E-01 -8.500000000E-01 7.177384717E-01
 -5.000000000E-01 -9.000000000E-01 7.200297388E-01
 -5.000000000E-01 -9.500000000E-01 7.230495643E-01
 -4.500000000E-01 -1.000000000E+00 7.229260889E-01
 -4.000000000E-01 -1.000000000E+00 7.199817991E-01
 -3.500000000E-01 -1.000000000E+00 7.180771067E-01
 -3.000000000E-01 -1.000000000E+00 7.168261143E-01
 -2.500000000E-01 -1.000000000E+00 7.160424044E-01
 -2.000000000E-01 -1.000000000E+00 7.157548575E-01
 -1.500000000E-01 -1.000000000E+00 7.159690479E-01
 -1.000000000E-01 -1.000000000E+00 7.166683029E-01
 -5.000000000E-02 -1.000000000E+00 7.178456952E-01
 -9.424683256E-13 -1.000000000E+00 7.194367864E-01
 5.000000000E-02 -1.000000000E+00 7.214527452E-01
 1.000000000E-01 -1.000000000E+00 7.238794101E-01
 1.500000000E-01 -1.000000000E+00 7.265854448E-01
 2.000000000E-01 -1.000000000E+00 7.292844615E-01
 2.500000000E-01 -1.000000000E+00 7.318601613E-01
 3.000000000E-01 -1.000000000E+00 7.344634114E-01
 3.500000000E-01 -1.000000000E+00 7.368534045E-01
 4.000000000E-01 -1.000000000E+00 7.386683615E-01
 4.500000000E-01 -1.000000000E+00 7.398710457E-01
 5.000000000E-01 -1.000000000E+00 7.405721646E-01
 5.500000000E-01 -1.000000000E+00 7.405800927E-01
 6.000000000E-01 -1.000000000E+00 7.399470062E-01
 6.500000000E-01 -1.000000000E+00 7.388114218E-01
 7.000000000E-01 -1.000000000E+00 7.372317508E-01
 7.500000000E-01 -1.000000000E+00 7.354228055E-01
 8.000000000E-01 -1.000000000E+00 7.333270333E-01
 8.500000000E-01 -1.000000000E+00 7.310784866E-01
 9.000000000E-01 -1.000000000E+00 7.287726250E-01
 9.500000000E-01 -1.000000000E+00 7.265770508E-01
 1.000000000E+00 -1.000000000E+00 7.245004937E-01
 1.050000000E+00 -1.000000000E+00 7.226193531E-01
 1.100000000E+00 -1.000000000E+00 7.209504844E-01
 1.150000000E+00 -1.000000000E+00 7.195523623E-01
 1.200000000E+00 -1.000000000E+00 7.183732113E-01
 1.250000000E+00 -1.000000000E+00 7.174659387E-01
 1.300000000E+00 -1.000000000E+00 7.167962258E-01
 1.350000000E+00 -1.000000000E+00 7.163215319E-01
 1.400000000E+00 -1.000000000E+00 7.160137951E-01
 1.450000000E+00 -1.000000000E+00 7.158405208E-01
 1.500000000E+00 -1.000000000E+00 7.158533761E-01
 1.550000000E+00 -1.000000000E+00 7.158168628E-01
 1.600000000E+00 -1.000000000E+00 7.160176502E-01
 1.650000000E+00 -1.000000000E+00 7.162669916E-01
 1.700000000E+00 -1.000000000E+00 7.165769889E-01
 1.750000000E+00 -1.000000000E+00 7.168607811E-01
 1.800000000E+00 -1.000000000E+00 7.172124319E-01
 1.850000000E+00 -1.000000000E+00 7.176257094E-01
 1.900000000E+00 -1.000000000E+00 7.180359816E-01
 1.950000000E+00 -1.000000000E+00 7.184480380E-01
 2.000000000E+00 -1.000000000E+00 7.188576249E-01
 2.050000000E+00 -1.000000000E+00 7.192519529E-01
 2.100000000E+00 -1.000000000E+00 7.196159930E-01
 2.150000000E+00 -1.000000000E+00 7.199879102E-01
 2.200000000E+00 -1.000000000E+00 7.204007811E-01
 2.250000000E+00 -1.000000000E+00 7.207897564E-01
 2.300000000E+00 -1.000000000E+00 7.211175214E-01
 2.350000000E+00 -1.000000000E+00 7.214241156E-01
 2.400000000E+00 -1.000000000E+00 7.217259206E-01
 2.450000000E+00 -1.000000000E+00 7.220206474E-01
 2.500000000E+00 -1.000000000E+00 7.223066695E-01
 2.550000000E+00 -1.000000000E+00 7.225553431E-01
 2.600000000E+00 -1.000000000E+00 7.227668779E-01
 2.650000000E+00 -1.000000000E+00 7.229792098E-01
 2.700000000E+00 -1.000000000E+00 7.231799131E-01
 2.750000000E+00 -1.000000000E+00 7.233731675E-01
 2.800000000E+00 -1.000000000E+00 7.235588463E-01
 2.850000000E+00 -1.000000000E+00 7.237369775E-01
 2.900000000E+00 -1.000000000E+00 7.238616373E-01
 2.950000000E+00 -1.000000000E+00 7.240377222E-01
 3.000000000E+00 -1.000000000E+00 7.241996420E-01
 3.050000000E+00 -1.000000000E+00 7.243165521E-01
 3.100000000E+00 -1.000000000E+00 7.244246984E-01
 3.150000000E+00 -1.000000000E+00 7.245268121E-01
 3.200000000E+00 -1.000000000E+00 7.246496796E-01
 3.250000000E+00 -1.000000000E+00 7.248301800E-01
 3.300000000E+00 -1.000000000E+00 7.250013095E-01
 3.350000000E+00 -1.000000000E+00 7.252869337E-01
 3.400000000E+00 -1.000000000E+00 7.256905646E-01
 3.450000000E+00 -1.000000000E+00 7.266187903E-01
 3.500000000E+00 -9.500000000E-01 7.294802215E-01
 3.500000000E+00 -9.000000000E-01 7.300379107E-01
 3.500000000E+00 -8.500000000E-01 7.304376645E-01
 3.500000000E+00 -8.000000000E-01 7.307463373E-01
 3.500000000E+00 -7.500000000E-01 7.309751212E-01
 3.500000000E+00 -7.000000000E-01 7.311786891E-01
 3.500000000E+00 -6.500000000E-01 7.314003478E-01
 3.500000000E+00 -6.000000000E-01 7.316455186E-01
 3.500000000E+00 -5.500000000E-01 7.319012268E-01
 3.500000000E+00 -5.000000000E-01 7.321532903E-01
 3.500000000E+00 -4.500000000E-01 7.324023276E-01
 3.500000000E+00 -4.000000000E-01 7.326598466E-01
 3.500000000E+00 -3.500000000E-01 7.329217059E-01
 3.500000000E+00 -3.000000000E-01 7.331665760E-01
 3.500000000E+00 -2.500000000E-01 7.334102168E-01
 3.500000000E+00 -2.000000000E-01 7.335876285E-01
 3.500000000E+00 -1.500000000E-01 7.336670655E-01
 3.500000000E+00 -1.000000000E-01 7.336896347E-01
 3.500000000E+00 -5.000000000E-02 7.336831237E-01
 3.500000000E+00 -2.752242878E-12 7.336640084E-01
 3.500000000E+00 5.000000000E-02 7.336410074E-01
 3.500000000E+00 1.000000000E-01 7.335743429E-01
 3.500000000E+00 1.500000000E-01 7.334127755E-01
 3.500000000E+00 2.000000000E-01 7.331754588E-01
 3.500000000E+00 2.500000000E-01 7.329114012E-01
 3.500000000E+00 3.000000000E-01 7.326283762E-01
 3.500000000E+00 3.500000000E-01 7.323588180E-01
 3.500000000E+00 4.000000000E-01 7.321001896E-01
 3.500000000E+00 4.500000000E-01 7.318388555E-01
 3.500000000E+00 5.000000000E-01 7.315335234E-01
 3.500000000E+00 5.500000000E-01 7.312055396E-01
 3.500000000E+00 6.000000000E-01 7.309886567E-01
 3.500000000E+00 6.500000000E-01 7.310259210E-01
 3.500000000E+00 7.000000000E-01 7.312707611E-01
 3.500000000E+00 7.500000000E-01 7.314034262E-01
 3.500000000E+00 8.000000000E-01 7.309548068E-01
 3.500000000E+00 8.500000000E-01 7.293004625E-01
 3.500000000E+00 9.000000000E-01 7.263224572E-01
 3.500000000E+00 9.500000000E-01 7.221665110E-01
 3.450000000E+00 1.000000000E+00 7.086229498E-01
 3.400000000E+00 1.000000000E+00 7.055928192E-01
 3.350000000E+00 1.000000000E+00 7.050485560E-01
 3.300000000E+00 1.000000000E+00 7.047655189E-01
 3.250000000E+00 1.000000000E+00 7.047765444E-01
 3.200000000E+00 1.000000000E+00 7.049438551E-01
 3.150000000E+00 1.000000000E+00 7.050305804E-01
 3.100000000E+00 1.000000000E+00 7.054023748E-01
 3.050000000E+00 1.000000000E+00 7.058840893E-01
 3.000000000E+00 1.000000000E+00 7.059340525E-01
 2.950000000E+00 1.000000000E+00 7.065169822E-01
 2.900000000E+00 1.000000000E+00 7.071047487E-01
 2.850000000E+00 1.000000000E+00 7.073769639E-01
 2.800000000E+00 1.000000000E+00 7.074997957E-01
 2.750000000E+00 1.000000000E+00 7.077604707E-01
 2.700000000E+00 1.000000000E+00 7.081139716E-01
 2.650000000E+00 1.000000000E+00 7.084937649E-01
 2.600000000E+00 1.000000000E+00 7.087969317E-01
 2.550000000E+00 1.000000000E+00 7.090237720E-01
 2.500000000E+00 1.000000000E+00 7.093732529E-01
 2.450000000E+00 1.000000000E+00 7.097521892E-01
 2.400000000E+00 1.000000000E+00 7.101859711E-01
 2.350000000E+00 1.000000000E+00 7.107209330E-01
 2.300000000E+00 1.000000000E+00 7.111254303E-01
 2.250000000E+00 1.000000000E+00 7.111163101E-01
 2.200000000E+00 1.000000000E+00 7.113739126E-01
 2.150000000E+00 1.000000000E+00 7.114601293E-01
 2.100000000E+00 1.000000000E+00 7.125039390E-01
 2.050000000E+00 1.000000000E+00 7.130031806E-01
 2.000000000E+00 1.000000000E+00 7.136669870E-01
 1.950000000E+00 1.000000000E+00 7.140723711E-01
 1.900000000E+00 1.000000000E+00 7.148595380E-01
 1.850000000E+00 1.000000000E+00 7.159192722E-01
 1.800000000E+00 1.000000000E+00 7.170117929E-01
 1.750000000E+00 1.000000000E+00 7.174186800E-01
 1.700000000E+00 1.000000000E+00 7.175537094E-01
 1.650000000E+00 1.000000000E+00 7.183924100E-01
 1.600000000E+00 1.000000000E+00 7.195467623E-01
 1.550000000E+00 1.000000000E+00 7.216881560E-01
 1.500000000E+00 1.000000000E+00 7.235780296E-01
 1.450000000E+00 1.000000000E+00 7.251450512E-01
 1.400000000E+00 1.000000000E+00 7.268536102E-01
 1.350000000E+00 1.000000000E+00 7.285945290E-01
 1.300000000E+00 1.000000000E+00 7.303896646E-01
 1.250000000E+00 1.000000000E+00 7.326531794E-01
 1.200000000E+00 1.000000000E+00 7.357265062E-01
 1.150000000E+00 1.000000000E+00 7.390869858E-01
 1.100000000E+00 1.000000000E+00 7.420731121E-01
 1.050000000E+00 1.000000000E+00 7.451581644E-01
 1.000000000E+00 1.000000000E+00 7.478207872E-01
 9.500000000E-01 1.000000000E+00 7.503480814E-01
 9.000000000E-01 1.000000000E+00 7.528823108E-01
 8.500000000E-01 1.000000000E+00 7.556405475E-01
 8.000000000E-01 1.000000000E+00 7.579707874E-01
 7.500000000E-01 1.000000000E+00 7.600017431E-01
 7.000000000E-01 1.000000000E+00 7.607653748E-01
 6.500000000E-01 1.000000000E+00 7.621319741E-01
 6.000000000E-01 1.000000000E+00 7.618236457E-01
 5.500000000E-01 1.000000000E+00 7.607787215E-01
 5.000000000E-01 1.000000000E+00 7.591111090E-01
 4.500000000E-01 1.000000000E+00 7.567828541E-01
 4.000000000E-01 1.000000000E+00 7.535656548E-01
 3.500000000E-01 1.000000000E+00 7.500920351E-01
 3.000000000E-01 1.000000000E+00 7.461288099E-01
 2.500000000E-01 1.000000000E+00 7.418880437E-01
 2.000000000E-01 1.000000000E+00 7.375739205E-01
 1.500000000E-01 1.000000000E+00 7.333527776E-01
 1.000000000E-01 1.000000000E+00 7.296529805E-01
 5.000000000E-02 1.000000000E+00 7.263696032E-01
 1.733724275E-12 1.000000000E+00 7.235878455E-01
 -5.000000000E-02 1.000000000E+00 7.212225311E-01
 -1.000000000E-01 1.000000000E+00 7.194981019E-01
 -1.500000000E-01 1.000000000E+00 7.183743090E-01
 -2.000000000E-01 1.000000000E+00 7.177956159E-01
 -2.500000000E-01 1.000000000E+00 7.177626177E-01
 -3.000000000E-01 1.000000000E+00 7.182493823E-01
 -3.500000000E-01 1.000000000E+00 7.192939517E-01
 -4.000000000E-01 1.000000000E+00 7.209532422E-01
 -4.500000000E-01 1.000000000E+00 7.235402584E-01
 8.980037590E-01 -2.889159732E-03 6.009535095E-01
 8.174763521E-01 -9.093702585E-03 6.293040621E-01
 7.393031402E-01 -1.768516838E-02 6.705527414E-01
 9.862544706E-01 -3.294374857E-03 6.110262818E-01
 6.699070883E-01 -2.704908129E-02 7.092950328E-01
 5.961625776E-01 -3.656593462E-02 7.646928317E-01
 5.329220457E-01 -4.579972774E-02 8.282951532E-01
 4.689935946E-01 -5.212359600E-02 9.050070588E-01
 4.125406678E-01 -5.570913979E-02 9.611942375E-01
 3.552244521E-01 -5.646385343E-02 9.661016476E-01
 3.009582771E-01 -5.606902000E-02 9.358399522E-01
 2.376891379E-01 -5.301208999E-02 8.972809386E-01
 1.774434594E-01 -4.728756187E-02 8.637695880E-01
 1.199127758E-01 -4.015364150E-02 8.355895497E-01
 7.272446696E-02 -3.298833423E-02 8.107094420E-01
 3.503744671E-02 -2.699380551E-02 7.663080542E-01
 1.046677576E-02 -1.437921676E-02 6.714221763E-01
 1.975135187E+00 -9.596860756E-01 7.198943387E-01
 1.976723483E+00 9.577663853E-01 7.225100457E-01
 9.876516983E-01 7.690904593E-03 6.613337051E-01
 9.258536552E-01 1.809166564E-02 7.651480599E-01