TITLE     = "Visualization of the solution"
VARIABLES = "x"
"y"
"Mach"
ZONE T="Zone"
 STRANDID=0, SOLUTIONTIME=0
 Nodes=11814, Elements=23045, ZONETYPE=FEQuadrilateral
 DATAPACKING=POINT
 DT=(DOUBLE DOUBLE DOUBLE )
 9.997459054E-01 5.087541067E-04 5.290649453E-01
 9.849097133E-01 3.386738012E-03 6.493622926E-01
 9.715626240E-01 6.059035193E-03 6.815516912E-01
 9.549965858E-01 9.276755154E-03 7.021185273E-01
 9.404848218E-01 1.209305786E-02 7.193090051E-01
 9.272755384E-01 1.463556848E-02 7.311868639E-01
 9.160789847E-01 1.685048640E-02 7.529269734E-01
 9.040436745E-01 1.910219342E-02 7.580732809E-01
 8.922894001E-01 2.133933455E-02 7.732947987E-01
 8.803262115E-01 2.358519100E-02 7.896574604E-01
 8.681635261E-01 2.576956339E-02 7.978307676E-01
 8.561345339E-01 2.789501660E-02 8.079640868E-01
 8.443130255E-01 2.993891202E-02 8.189679376E-01
 8.330820203E-01 3.182377294E-02 8.258765301E-01
 8.216255307E-01 3.370305896E-02 8.324428612E-01
 8.094639778E-01 3.566354141E-02 8.401032105E-01
 7.970651388E-01 3.761966154E-02 8.472174220E-01
 7.853953838E-01 3.945344687E-02 8.600517037E-01
 7.733594775E-01 4.127322510E-02 8.666501094E-01
 7.618934512E-01 4.297140986E-02 8.739680206E-01
 7.491833568E-01 4.481121525E-02 8.828085503E-01
 7.361295819E-01 4.665302113E-02 8.922465155E-01
 7.253977060E-01 4.812102392E-02 8.976618504E-01
 7.142145038E-01 4.963397980E-02 9.104848204E-01
 7.027143240E-01 5.114270374E-02 9.212206038E-01
 6.895605326E-01 5.276731029E-02 9.211473064E-01
 6.769364476E-01 5.430715531E-02 9.352833668E-01
 6.661926508E-01 5.559569597E-02 9.497532723E-01
 6.541973948E-01 5.691963434E-02 9.507416038E-01
 6.431401372E-01 5.813836306E-02 9.643747856E-01
 6.311919093E-01 5.935434625E-02 9.696136836E-01
 6.197421551E-01 6.050409004E-02 9.864554256E-01
 6.089783907E-01 6.149603799E-02 9.780470062E-01
 5.971759558E-01 6.253629178E-02 9.627054998E-01
 5.854183435E-01 6.349969655E-02 9.958600398E-01
 5.719031692E-01 6.452398002E-02 1.096139795E+00
 5.592221022E-01 6.540120393E-02 1.102790659E+00
 5.464834571E-01 6.619245559E-02 1.090947958E+00
 5.352091789E-01 6.682029366E-02 1.089948116E+00
 5.230752230E-01 6.744618714E-02 1.087353559E+00
 5.104073882E-01 6.799566001E-02 1.080657650E+00
 4.994653463E-01 6.841804832E-02 1.077240700E+00
 4.863942266E-01 6.883959472E-02 1.069242083E+00
 4.733939469E-01 6.914743781E-02 1.064131901E+00
 4.599536061E-01 6.942122430E-02 1.063648376E+00
 4.465765655E-01 6.958790869E-02 1.052956788E+00
 4.337199330E-01 6.966850907E-02 1.046225293E+00
 4.206501544E-01 6.966782361E-02 1.041053980E+00
 4.082669318E-01 6.960186362E-02 1.033970504E+00
 3.951699138E-01 6.944230944E-02 1.024138961E+00
 3.828814924E-01 6.921985000E-02 1.020157574E+00
 3.709477484E-01 6.895790249E-02 1.014233365E+00
 3.575837314E-01 6.855753064E-02 1.003410821E+00
 3.449107409E-01 6.812468916E-02 1.003696716E+00
 3.322970867E-01 6.762550771E-02 1.004628525E+00
 3.216097057E-01 6.713344157E-02 9.941747294E-01
 3.092009127E-01 6.647788733E-02 9.846365786E-01
 2.963123918E-01 6.575246155E-02 9.827330633E-01
 2.826054990E-01 6.486158818E-02 9.737147253E-01
 2.702456415E-01 6.399516761E-02 9.694902987E-01
 2.583574951E-01 6.307632476E-02 9.609603466E-01
 2.457216382E-01 6.203133240E-02 9.561113113E-01
 2.333268672E-01 6.092094257E-02 9.507758679E-01
 2.210214585E-01 5.973879993E-02 9.456421173E-01
 2.090639621E-01 5.849009007E-02 9.362738300E-01
 1.970897913E-01 5.716703087E-02 9.300393693E-01
 1.849280894E-01 5.572845042E-02 9.240278427E-01
 1.731609851E-01 5.425577238E-02 9.196401699E-01
 1.612576842E-01 5.263933539E-02 9.080720129E-01
 1.495241672E-01 5.096688122E-02 9.040468209E-01
 1.386171281E-01 4.930624738E-02 8.965284579E-01
 1.272300184E-01 4.745037854E-02 8.862519658E-01
 1.161996797E-01 4.554383084E-02 8.771022805E-01
 1.053538769E-01 4.355426505E-02 8.704690585E-01
 9.535127878E-02 4.158714414E-02 8.600350531E-01
 8.461463451E-02 3.934081644E-02 8.505305888E-01
 7.341197133E-02 3.679814190E-02 8.346824688E-01
 6.367689371E-02 3.442615643E-02 8.254428580E-01
 5.427033827E-02 3.193646297E-02 8.132156541E-01
 4.544392228E-02 2.938735858E-02 7.987619039E-01
 3.781359270E-02 2.698860504E-02 7.835591663E-01
 3.115990758E-02 2.469685674E-02 7.673937562E-01
 2.539394610E-02 2.252110280E-02 7.509717175E-01
 2.115441859E-02 2.076635323E-02 7.330168301E-01
 1.712604426E-02 1.895237342E-02 7.160293744E-01
 1.401141658E-02 1.741939597E-02 6.980253706E-01
 1.124392450E-02 1.592717320E-02 6.762020057E-01
 9.196242318E-03 1.471623220E-02 6.559756971E-01
 7.366008125E-03 1.354541536E-02 6.378823046E-01
 5.629299674E-03 1.231449563E-02 6.049254410E-01
 3.402350005E-03 1.051410008E-02 5.534615951E-01
 1.580597484E-03 8.725634776E-03 4.979761069E-01
 1.456907921E-04 6.946261972E-03 4.136017237E-01
 -1.221929677E-03 4.486223217E-03 2.997732761E-01
 -1.815907774E-03 2.570644021E-03 1.804907771E-01
 -2.008587122E-03 9.875831893E-04 7.351562952E-02
 -1.906182035E-03 -8.607182535E-04 3.738096364E-02
 -1.405295799E-03 -2.916936297E-03 1.549043861E-01
 -3.506878274E-04 -5.303366575E-03 2.662828007E-01
 1.283744350E-03 -7.815384306E-03 3.641423483E-01
 3.477948485E-03 -1.037858333E-02 4.458749789E-01
 5.454952829E-03 -1.229374018E-02 5.052438491E-01
 7.763511036E-03 -1.424262021E-02 5.514914809E-01
 9.573838674E-03 -1.561823208E-02 5.865494131E-01
 1.176884212E-02 -1.714380644E-02 6.145824957E-01
 1.426547952E-02 -1.873928495E-02 6.450109428E-01
 1.760405116E-02 -2.067624591E-02 6.742648371E-01
 2.082805336E-02 -2.238711715E-02 7.032142192E-01
 2.486211248E-02 -2.435542457E-02 7.285436614E-01
 3.015721962E-02 -2.668962628E-02 7.541379664E-01
 3.575294465E-02 -2.891638502E-02 7.775847818E-01
 4.252792150E-02 -3.136925772E-02 7.974089681E-01
 5.008358881E-02 -3.385329247E-02 8.157183009E-01
 5.890738964E-02 -3.646341711E-02 8.323894068E-01
 6.771285087E-02 -3.885278851E-02 8.468112626E-01
 7.800910622E-02 -4.139456525E-02 8.613560493E-01
 8.789371699E-02 -4.363225028E-02 8.704027970E-01
 9.862667322E-02 -4.588624090E-02 8.809914541E-01
 1.098522469E-01 -4.805364087E-02 8.894122660E-01
 1.214792207E-01 -5.013358220E-02 8.972461151E-01
 1.332627684E-01 -5.209805444E-02 9.063367834E-01
 1.440356672E-01 -5.377684161E-02 9.162991703E-01
 1.555191725E-01 -5.544158444E-02 9.225636101E-01
 1.676848084E-01 -5.708944798E-02 9.310467738E-01
 1.795153469E-01 -5.857773125E-02 9.387762879E-01
 1.914110333E-01 -5.997506157E-02 9.482929283E-01
 2.023068517E-01 -6.116278097E-02 9.575625683E-01
 2.139378786E-01 -6.233598664E-02 9.649326583E-01
 2.263561189E-01 -6.349362433E-02 9.759744684E-01
 2.386478186E-01 -6.452844292E-02 9.884224960E-01
 2.505437434E-01 -6.541953236E-02 9.961419176E-01
 2.627841234E-01 -6.623155624E-02 9.987570030E-01
 2.740617394E-01 -6.691361219E-02 1.013155947E+00
 2.866188288E-01 -6.755710393E-02 1.033306677E+00
 2.986689508E-01 -6.803821027E-02 1.042941312E+00
 3.113324344E-01 -6.844833493E-02 1.048158667E+00
 3.230192959E-01 -6.872120500E-02 1.059234854E+00
 3.356455863E-01 -6.889014691E-02 1.064396565E+00
 3.463115394E-01 -6.894692779E-02 1.082792869E+00
 3.578696549E-01 -6.886362284E-02 1.093252111E+00
 3.689883351E-01 -6.870056689E-02 1.099532603E+00
 3.799841404E-01 -6.843475997E-02 1.112088809E+00
 3.918600380E-01 -6.801241636E-02 1.122422406E+00
 4.047241509E-01 -6.744281948E-02 1.139794140E+00
 4.168249071E-01 -6.675912440E-02 1.051265145E+00
 4.295487702E-01 -6.592929363E-02 9.484108763E-01
 4.418945909E-01 -6.498520076E-02 9.642528331E-01
 4.543182254E-01 -6.387058645E-02 9.545449897E-01
 4.662747383E-01 -6.273373961E-02 9.387458538E-01
 4.785279334E-01 -6.146707386E-02 9.283317057E-01
 4.905038476E-01 -6.010976061E-02 9.091646711E-01
 5.026789308E-01 -5.865410343E-02 8.923401869E-01
 5.160123706E-01 -5.697434023E-02 8.757160370E-01
 5.290635824E-01 -5.525950342E-02 8.614007496E-01
 5.413575768E-01 -5.357335135E-02 8.462715361E-01
 5.544984341E-01 -5.173150450E-02 8.354482475E-01
 5.674311519E-01 -4.982892424E-02 8.187981771E-01
 5.804222822E-01 -4.787553474E-02 8.030764385E-01
 5.932834148E-01 -4.594031721E-02 7.931177370E-01
 6.059467196E-01 -4.399133101E-02 7.797773230E-01
 6.194408536E-01 -4.191724584E-02 7.700793261E-01
 6.330221891E-01 -3.980930150E-02 7.602898717E-01
 6.467489600E-01 -3.765137121E-02 7.500983353E-01
 6.593797207E-01 -3.560726345E-02 7.340641722E-01
 6.729743481E-01 -3.349667788E-02 7.297034227E-01
 6.852201223E-01 -3.155725822E-02 7.183655047E-01
 6.977586150E-01 -2.961221337E-02 7.125716283E-01
 7.122217417E-01 -2.734471858E-02 7.014922641E-01
 7.252544165E-01 -2.533494867E-02 6.953524688E-01
 7.365057468E-01 -2.355577052E-02 6.821169165E-01
 7.500122786E-01 -2.152520977E-02 6.780198566E-01
 7.626538277E-01 -1.961023919E-02 6.684705828E-01
 7.759082317E-01 -1.763505302E-02 6.597295595E-01
 7.879815102E-01 -1.585443877E-02 6.492398608E-01
 8.009988070E-01 -1.404697355E-02 6.461751770E-01
 8.121073246E-01 -1.250428241E-02 6.390038975E-01
 8.229259253E-01 -1.097655296E-02 6.254864970E-01
 8.356202245E-01 -9.357328527E-03 6.229732903E-01
 8.477857709E-01 -7.813197561E-03 6.120706456E-01
 8.602045178E-01 -6.353296805E-03 6.057152033E-01
 8.712869287E-01 -5.130627193E-03 5.992955325E-01
 8.824345469E-01 -3.982387017E-03 5.925235948E-01
 8.951246738E-01 -2.807701938E-03 5.857141641E-01
 9.051643610E-01 -1.971406629E-03 5.805617183E-01
 9.165897369E-01 -1.192282070E-03 5.790567982E-01
 9.270603061E-01 -5.748312105E-04 5.751412210E-01
 9.371780753E-01 -9.940086602E-05 5.738412139E-01
 9.499847293E-01 3.383892472E-04 5.731247478E-01
 9.636185765E-01 6.229749415E-04 5.715516176E-01
 9.769520760E-01 7.244140143E-04 5.682929433E-01
 9.889599085E-01 6.638979539E-04 5.570605841E-01
 -5.000000000E-01 -1.000000000E+00 7.233319813E-01
 3.500000000E+00 -1.000000000E+00 7.273149414E-01
 3.500000000E+00 1.000000000E+00 7.105968247E-01
 -5.000000000E-01 1.000000000E+00 7.235926898E-01
 9.923278093E-01 1.947746059E-03 6.366169970E-01
 9.782361686E-01 4.722886602E-03 6.675690625E-01
 9.632796049E-01 7.667895174E-03 6.923491100E-01
 9.477407038E-01 1.068490651E-02 7.112865371E-01
 9.338801801E-01 1.336431317E-02 7.247068326E-01
 9.216772616E-01 1.574302744E-02 7.431917690E-01
 9.100613296E-01 1.797633991E-02 7.552913837E-01
 8.981665373E-01 2.022076398E-02 7.651787626E-01
 8.863078058E-01 2.246226277E-02 7.823133772E-01
 8.742448688E-01 2.467737719E-02 7.937894779E-01
 8.621490300E-01 2.683228999E-02 8.027015589E-01
 8.502237797E-01 2.891696431E-02 8.137447790E-01
 8.386975229E-01 3.088134248E-02 8.226616476E-01
 8.273537755E-01 3.276341595E-02 8.289860065E-01
 8.155447543E-01 3.468330018E-02 8.364880781E-01
 8.032645583E-01 3.664160147E-02 8.428362235E-01
 7.912302613E-01 3.853655420E-02 8.542959948E-01
 7.793774307E-01 4.036333598E-02 8.633301792E-01
 7.676264644E-01 4.212231748E-02 8.703503560E-01
 7.555384040E-01 4.389131255E-02 8.781245783E-01
 7.426564693E-01 4.573211819E-02 8.878647788E-01
 7.307636440E-01 4.738702253E-02 8.946153012E-01
 7.198061049E-01 4.887750186E-02 9.033857370E-01
 7.084644139E-01 5.038834177E-02 9.177376917E-01
 6.961374283E-01 5.195500702E-02 9.204328688E-01
 6.832484901E-01 5.353723280E-02 9.260361012E-01
 6.715645492E-01 5.495142564E-02 9.460947912E-01
 6.601950228E-01 5.625766516E-02 9.475306145E-01
 6.486687660E-01 5.752899870E-02 9.599195489E-01
 6.371660233E-01 5.874635465E-02 9.641391597E-01
 6.254670322E-01 5.992921814E-02 9.806465274E-01
 6.143602729E-01 6.100006402E-02 9.840665943E-01
 6.030771732E-01 6.201616488E-02 9.706648567E-01
 5.912971497E-01 6.301799417E-02 9.649867024E-01
 5.786607563E-01 6.401183829E-02 1.052977245E+00
 5.655626357E-01 6.496259198E-02 1.107493193E+00
 5.528527796E-01 6.579682976E-02 1.095281809E+00
 5.408463180E-01 6.650637463E-02 1.089179476E+00
 5.291422009E-01 6.713324040E-02 1.090726963E+00
 5.167413056E-01 6.772092357E-02 1.082439893E+00
 5.049363673E-01 6.820685416E-02 1.079795170E+00
 4.929297864E-01 6.862882152E-02 1.074103664E+00
 4.798940867E-01 6.899351627E-02 1.064203218E+00
 4.666737765E-01 6.928433105E-02 1.066217345E+00
 4.532650858E-01 6.950456649E-02 1.057705029E+00
 4.401482493E-01 6.962820888E-02 1.049471503E+00
 4.271850437E-01 6.966816634E-02 1.043217161E+00
 4.144585431E-01 6.963484362E-02 1.038509656E+00
 4.017184228E-01 6.952208653E-02 1.028523561E+00
 3.890257031E-01 6.933107972E-02 1.021032487E+00
 3.769146204E-01 6.908887625E-02 1.019434926E+00
 3.642657399E-01 6.875771657E-02 1.007064718E+00
 3.512472361E-01 6.834110990E-02 1.003051410E+00
 3.386039138E-01 6.787509844E-02 1.004695825E+00
 3.269533962E-01 6.737947464E-02 1.001252851E+00
 3.154053092E-01 6.680566445E-02 9.871378093E-01
 3.027566522E-01 6.611517444E-02 9.854298901E-01
 2.894589454E-01 6.530702487E-02 9.770531301E-01
 2.764255702E-01 6.442837790E-02 9.722745401E-01
 2.643015683E-01 6.353574619E-02 9.649060053E-01
 2.520395666E-01 6.255382858E-02 9.585736317E-01
 2.395242527E-01 6.147613749E-02 9.530551364E-01
 2.271741629E-01 6.032987125E-02 9.489673758E-01
 2.150427103E-01 5.911444500E-02 9.405468654E-01
 2.030768767E-01 5.782856047E-02 9.333668093E-01
 1.910089403E-01 5.644774064E-02 9.263014732E-01
 1.790445372E-01 5.499211140E-02 9.231455879E-01
 1.672093347E-01 5.344755389E-02 9.130658824E-01
 1.553909257E-01 5.180310830E-02 9.059452222E-01
 1.440706477E-01 5.013656430E-02 9.009783672E-01
 1.329235733E-01 4.837831296E-02 8.913772208E-01
 1.217148490E-01 4.649710469E-02 8.813202686E-01
 1.107767783E-01 4.454904795E-02 8.739587524E-01
 1.003525779E-01 4.257070459E-02 8.655187320E-01
 8.998295665E-02 4.046398029E-02 8.559637954E-01
 7.901330292E-02 3.806947917E-02 8.431747053E-01
 7.286097854E-02 -4.012367688E-02 8.560361379E-01
 8.295141160E-02 -4.251340777E-02 8.663983200E-01
 9.326019511E-02 -4.475924559E-02 8.752999762E-01
 1.042394601E-01 -4.696994089E-02 8.856832620E-01
 1.156657338E-01 -4.909361154E-02 8.932045817E-01
 1.273709945E-01 -5.111581832E-02 9.015956789E-01
 1.386492178E-01 -5.293744802E-02 9.117583468E-01
 1.497774199E-01 -5.460921302E-02 9.194627451E-01
 1.616019905E-01 -5.626551621E-02 9.265577308E-01
 1.736000776E-01 -5.783358961E-02 9.351300128E-01
 1.854631901E-01 -5.927639641E-02 9.431470891E-01
 1.968589425E-01 -6.056892127E-02 9.534048421E-01
 2.081223652E-01 -6.174938381E-02 9.612363649E-01
 2.201469988E-01 -6.291480549E-02 9.696177411E-01
 2.325019687E-01 -6.401103362E-02 9.824705569E-01
 2.445957810E-01 -6.497398764E-02 9.931680644E-01
 2.566639334E-01 -6.582554430E-02 9.973846566E-01
 2.684229314E-01 -6.657258421E-02 1.004214159E+00
 2.803402841E-01 -6.723535806E-02 1.023003210E+00
 2.926438898E-01 -6.779765710E-02 1.040513915E+00
 3.050006926E-01 -6.824327260E-02 1.044441733E+00
 3.171758652E-01 -6.858476996E-02 1.053916134E+00
 3.293324411E-01 -6.880567595E-02 1.062011786E+00
 3.409785628E-01 -6.891853735E-02 1.071617682E+00
 3.520905972E-01 -6.890527532E-02 1.090575260E+00
 3.634289950E-01 -6.878209487E-02 1.095390741E+00
 3.744862378E-01 -6.856766343E-02 1.105439130E+00
 3.859220892E-01 -6.822358817E-02 1.117253041E+00
 3.982920945E-01 -6.772761792E-02 1.131991933E+00
 4.107745290E-01 -6.710097194E-02 1.120371512E+00
 4.231868386E-01 -6.634420902E-02 9.766895188E-01
 4.357216805E-01 -6.545724720E-02 9.524214637E-01
 4.481064081E-01 -6.442789361E-02 9.652998547E-01
 4.602964818E-01 -6.330216303E-02 9.444344219E-01
 4.724013358E-01 -6.210040674E-02 9.340563986E-01
 4.845158905E-01 -6.078841724E-02 9.196266920E-01
 4.965913892E-01 -5.938193202E-02 9.002827359E-01
 5.093456507E-01 -5.781422183E-02 8.840041626E-01
 5.225379765E-01 -5.611692183E-02 8.682974333E-01
 5.352105796E-01 -5.441642739E-02 8.540243179E-01
 5.479280055E-01 -5.265242793E-02 8.403352171E-01
 5.609647930E-01 -5.078021437E-02 8.279129000E-01
 5.739267170E-01 -4.885222949E-02 8.104638466E-01
 5.868528485E-01 -4.690792598E-02 7.977523485E-01
 5.996150672E-01 -4.496582411E-02 7.866825053E-01
 6.126937866E-01 -4.295428842E-02 7.745557354E-01
 6.262315214E-01 -4.086327367E-02 7.652549014E-01
 6.398855746E-01 -3.873033635E-02 7.554036948E-01
 6.530643404E-01 -3.662931733E-02 7.422017839E-01
 6.661770344E-01 -3.455197066E-02 7.311492890E-01
 6.790972352E-01 -3.252696805E-02 7.244466213E-01
 6.914893687E-01 -3.058473580E-02 7.152095557E-01
 7.049901783E-01 -2.847846597E-02 7.073295530E-01
 7.187380791E-01 -2.633983363E-02 6.981489153E-01
 7.308800817E-01 -2.444535960E-02 6.890327008E-01
 7.432590127E-01 -2.254049014E-02 6.797372982E-01
 7.563330531E-01 -2.056772448E-02 6.735225233E-01
 7.692810297E-01 -1.862264611E-02 6.642233029E-01
 7.819448709E-01 -1.674474590E-02 6.541661808E-01
 7.944901586E-01 -1.495070616E-02 6.475007005E-01
 8.065530658E-01 -1.327562798E-02 6.431306038E-01
 8.175166249E-01 -1.174041769E-02 6.321359382E-01
 8.292730749E-01 -1.016694074E-02 6.240859440E-01
 8.417029977E-01 -8.585263044E-03 6.177887593E-01
 8.539951444E-01 -7.083247183E-03 6.088069165E-01
 8.657457232E-01 -5.741961999E-03 6.023140761E-01
 8.768607378E-01 -4.556507105E-03 5.957801438E-01
 8.887796104E-01 -3.395044478E-03 5.898830547E-01
 9.108770490E-01 -1.581844350E-03 5.791381628E-01
 9.218250215E-01 -8.835566405E-04 5.770565722E-01
 9.321191907E-01 -3.371160383E-04 5.740254275E-01
 9.435814023E-01 1.194941906E-04 5.738128563E-01
 9.568016529E-01 4.806820943E-04 5.725560546E-01
 9.702853262E-01 6.736944779E-04 5.701111289E-01
 9.829559922E-01 6.941559841E-04 5.628652739E-01
 9.943529069E-01 5.863260303E-04 5.535265547E-01
 -5.000000000E-01 9.500000000E-01 7.210038861E-01
 -5.000000000E-01 9.000000000E-01 7.169393388E-01
 -5.000000000E-01 8.500000000E-01 7.138283441E-01
 -5.000000000E-01 8.000000000E-01 7.110807710E-01
 -5.000000000E-01 7.500000000E-01 7.085630700E-01
 -5.000000000E-01 7.000000000E-01 7.059530664E-01
 -5.000000000E-01 6.500000000E-01 7.033680344E-01
 -5.000000000E-01 6.000000000E-01 7.007360300E-01
 -5.000000000E-01 5.500000000E-01 6.980219797E-01
 -5.000000000E-01 5.000000000E-01 6.952771271E-01
 -5.000000000E-01 4.500000000E-01 6.924796082E-01
 -5.000000000E-01 4.000000000E-01 6.896784250E-01
 -5.000000000E-01 3.500000000E-01 6.869186343E-01
 -5.000000000E-01 3.000000000E-01 6.842702323E-01
 -5.000000000E-01 2.500000000E-01 6.818303869E-01
 -5.000000000E-01 2.000000000E-01 6.796566326E-01
 -5.000000000E-01 1.500000000E-01 6.778037560E-01
 -5.000000000E-01 1.000000000E-01 6.764237865E-01
 -5.000000000E-01 5.000000000E-02 6.755287319E-01
 -5.000000000E-01 2.752242878E-12 6.751659757E-01
 -5.000000000E-01 -5.000000000E-02 6.753634289E-01
 -5.000000000E-01 -1.000000000E-01 6.761212302E-01
 -5.000000000E-01 -1.500000000E-01 6.773832796E-01
 -5.000000000E-01 -2.000000000E-01 6.790855382E-01
 -5.000000000E-01 -2.500000000E-01 6.811517063E-01
 -5.000000000E-01 -3.000000000E-01 6.835169307E-01
 -5.000000000E-01 -3.500000000E-01 6.860886087E-01
 -5.000000000E-01 -4.000000000E-01 6.887723928E-01
 -5.000000000E-01 -4.500000000E-01 6.915215746E-01
 -5.000000000E-01 -5.000000000E-01 6.942936126E-01
 -5.000000000E-01 -5.500000000E-01 6.970230597E-01
 -5.000000000E-01 -6.000000000E-01 6.997237396E-01
 -5.000000000E-01 -6.500000000E-01 7.023757348E-01
 -5.000000000E-01 -7.000000000E-01 7.049934870E-01
 -5.000000000E-01 -7.500000000E-01 7.076027498E-01
 -5.000000000E-01 -8.000000000E-01 7.102663917E-01
 -5.000000000E-01 -8.500000000E-01 7.130730690E-01
 -5.000000000E-01 -9.000000000E-01 7.163151799E-01
 -5.000000000E-01 -9.500000000E-01 7.205913322E-01
 -4.500000000E-01 -1.000000000E+00 7.204358549E-01
 -4.000000000E-01 -1.000000000E+00 7.163722423E-01
 -3.500000000E-01 -1.000000000E+00 7.137280165E-01
 -3.000000000E-01 -1.000000000E+00 7.119972698E-01
 -2.500000000E-01 -1.000000000E+00 7.109879669E-01
 -2.000000000E-01 -1.000000000E+00 7.107251165E-01
 -1.500000000E-01 -1.000000000E+00 7.111810881E-01
 -1.000000000E-01 -1.000000000E+00 7.123849833E-01
 -5.000000000E-02 -1.000000000E+00 7.142852698E-01
 -9.424683256E-13 -1.000000000E+00 7.168387030E-01
 5.000000000E-02 -1.000000000E+00 7.199513876E-01
 1.000000000E-01 -1.000000000E+00 7.236656157E-01
 1.500000000E-01 -1.000000000E+00 7.277973085E-01
 2.000000000E-01 -1.000000000E+00 7.321194528E-01
 2.500000000E-01 -1.000000000E+00 7.364241372E-01
 3.000000000E-01 -1.000000000E+00 7.404712544E-01
 3.500000000E-01 -1.000000000E+00 7.440085777E-01
 4.000000000E-01 -1.000000000E+00 7.467748772E-01
 4.500000000E-01 -1.000000000E+00 7.485020981E-01
 5.000000000E-01 -1.000000000E+00 7.495142055E-01
 5.500000000E-01 -1.000000000E+00 7.489707155E-01
 6.000000000E-01 -1.000000000E+00 7.483386787E-01
 6.500000000E-01 -1.000000000E+00 7.469086478E-01
 7.000000000E-01 -1.000000000E+00 7.447101585E-01
 7.500000000E-01 -1.000000000E+00 7.420326533E-01
 8.000000000E-01 -1.000000000E+00 7.389983203E-01
 8.500000000E-01 -1.000000000E+00 7.360903172E-01
 9.000000000E-01 -1.000000000E+00 7.331331820E-01
 9.500000000E-01 -1.000000000E+00 7.300567218E-01
 1.000000000E+00 -1.000000000E+00 7.271158856E-01
 1.050000000E+00 -1.000000000E+00 7.243879891E-01
 1.100000000E+00 -1.000000000E+00 7.219473336E-01
 1.150000000E+00 -1.000000000E+00 7.199088229E-01
 1.200000000E+00 -1.000000000E+00 7.182557460E-01
 1.250000000E+00 -1.000000000E+00 7.166894204E-01
 1.300000000E+00 -1.000000000E+00 7.155042320E-01
 1.350000000E+00 -1.000000000E+00 7.145312337E-01
 1.400000000E+00 -1.000000000E+00 7.139398492E-01
 1.450000000E+00 -1.000000000E+00 7.135227380E-01
 1.500000000E+00 -1.000000000E+00 7.132472776E-01
 1.550000000E+00 -1.000000000E+00 7.131488803E-01
 1.600000000E+00 -1.000000000E+00 7.131955338E-01
 1.650000000E+00 -1.000000000E+00 7.133748465E-01
 1.700000000E+00 -1.000000000E+00 7.135259122E-01
 1.750000000E+00 -1.000000000E+00 7.138075990E-01
 1.800000000E+00 -1.000000000E+00 7.141896694E-01
 1.850000000E+00 -1.000000000E+00 7.145233617E-01
 1.900000000E+00 -1.000000000E+00 7.148757335E-01
 1.950000000E+00 -1.000000000E+00 7.152711192E-01
 2.000000000E+00 -1.000000000E+00 7.157102412E-01
 2.050000000E+00 -1.000000000E+00 7.161268358E-01
 2.100000000E+00 -1.000000000E+00 7.165444468E-01
 2.150000000E+00 -1.000000000E+00 7.168772401E-01
 2.200000000E+00 -1.000000000E+00 7.172430997E-01
 2.250000000E+00 -1.000000000E+00 7.176914885E-01
 2.300000000E+00 -1.000000000E+00 7.180481046E-01
 2.350000000E+00 -1.000000000E+00 7.184046577E-01
 2.400000000E+00 -1.000000000E+00 7.187336507E-01
 2.450000000E+00 -1.000000000E+00 7.190418766E-01
 2.500000000E+00 -1.000000000E+00 7.194008262E-01
 2.550000000E+00 -1.000000000E+00 7.197073490E-01
 2.600000000E+00 -1.000000000E+00 7.199435036E-01
 2.650000000E+00 -1.000000000E+00 7.200806206E-01
 2.700000000E+00 -1.000000000E+00 7.202626148E-01
 2.750000000E+00 -1.000000000E+00 7.204848156E-01
 2.800000000E+00 -1.000000000E+00 7.206544939E-01
 2.850000000E+00 -1.000000000E+00 7.209774082E-01
 2.900000000E+00 -1.000000000E+00 7.210501480E-01
 2.950000000E+00 -1.000000000E+00 7.211054474E-01
 3.000000000E+00 -1.000000000E+00 7.212609916E-01
 3.050000000E+00 -1.000000000E+00 7.213939936E-01
 3.100000000E+00 -1.000000000E+00 7.215108364E-01
 3.150000000E+00 -1.000000000E+00 7.216324080E-01
 3.200000000E+00 -1.000000000E+00 7.217774374E-01
 3.250000000E+00 -1.000000000E+00 7.219524380E-01
 3.300000000E+00 -1.000000000E+00 7.221938468E-01
 3.350000000E+00 -1.000000000E+00 7.225310641E-01
 3.400000000E+00 -1.000000000E+00 7.230389333E-01
 3.450000000E+00 -1.000000000E+00 7.243601990E-01
 3.500000000E+00 -9.500000000E-01 7.292911491E-01
 3.500000000E+00 -9.000000000E-01 7.304461831E-01
 3.500000000E+00 -8.500000000E-01 7.311635416E-01
 3.500000000E+00 -8.000000000E-01 7.316138526E-01
 3.500000000E+00 -7.500000000E-01 7.318868864E-01
 3.500000000E+00 -7.000000000E-01 7.321377781E-01
 3.500000000E+00 -6.500000000E-01 7.324208297E-01
 3.500000000E+00 -6.000000000E-01 7.327808648E-01
 3.500000000E+00 -5.500000000E-01 7.331766961E-01
 3.500000000E+00 -5.000000000E-01 7.335614333E-01
 3.500000000E+00 -4.500000000E-01 7.339467328E-01
 3.500000000E+00 -4.000000000E-01 7.343267731E-01
 3.500000000E+00 -3.500000000E-01 7.347131198E-01
 3.500000000E+00 -3.000000000E-01 7.351205369E-01
 3.500000000E+00 -2.500000000E-01 7.354736388E-01
 3.500000000E+00 -2.000000000E-01 7.357292819E-01
 3.500000000E+00 -1.500000000E-01 7.358743979E-01
 3.500000000E+00 -1.000000000E-01 7.359231373E-01
 3.500000000E+00 -5.000000000E-02 7.359412557E-01
 3.500000000E+00 -2.752242878E-12 7.359304405E-01
 3.500000000E+00 5.000000000E-02 7.358891749E-01
 3.500000000E+00 1.000000000E-01 7.357441099E-01
 3.500000000E+00 1.500000000E-01 7.354775329E-01
 3.500000000E+00 2.000000000E-01 7.351219179E-01
 3.500000000E+00 2.500000000E-01 7.347240695E-01
 3.500000000E+00 3.000000000E-01 7.343105354E-01
 3.500000000E+00 3.500000000E-01 7.339420550E-01
 3.500000000E+00 4.000000000E-01 7.335752023E-01
 3.500000000E+00 4.500000000E-01 7.331604432E-01
 3.500000000E+00 5.000000000E-01 7.326898156E-01
 3.500000000E+00 5.500000000E-01 7.322116796E-01
 3.500000000E+00 6.000000000E-01 7.319246185E-01
 3.500000000E+00 6.500000000E-01 7.320666534E-01
 3.500000000E+00 7.000000000E-01 7.324814885E-01
 3.500000000E+00 7.500000000E-01 7.324674355E-01
 3.500000000E+00 8.000000000E-01 7.313853964E-01
 3.500000000E+00 8.500000000E-01 7.286310816E-01
 3.500000000E+00 9.000000000E-01 7.242224135E-01
 3.500000000E+00 9.500000000E-01 7.184360982E-01
 3.450000000E+00 1.000000000E+00 6.990139927E-01
 3.400000000E+00 1.000000000E+00 6.940608242E-01
 3.350000000E+00 1.000000000E+00 6.930820384E-01
 3.300000000E+00 1.000000000E+00 6.927844771E-01
 3.250000000E+00 1.000000000E+00 6.928632724E-01
 3.200000000E+00 1.000000000E+00 6.925870852E-01
 3.150000000E+00 1.000000000E+00 6.926352909E-01
 3.100000000E+00 1.000000000E+00 6.929497355E-01
 3.050000000E+00 1.000000000E+00 6.932618437E-01
 3.000000000E+00 1.000000000E+00 6.938043885E-01
 2.950000000E+00 1.000000000E+00 6.942231237E-01
 2.900000000E+00 1.000000000E+00 6.948849280E-01
 2.850000000E+00 1.000000000E+00 6.951851922E-01
 2.800000000E+00 1.000000000E+00 6.955129479E-01
 2.750000000E+00 1.000000000E+00 6.958435522E-01
 2.700000000E+00 1.000000000E+00 6.961685488E-01
 2.650000000E+00 1.000000000E+00 6.964994577E-01
 2.600000000E+00 1.000000000E+00 6.968488907E-01
 2.550000000E+00 1.000000000E+00 6.974327409E-01
 2.500000000E+00 1.000000000E+00 6.978263485E-01
 2.450000000E+00 1.000000000E+00 6.985117127E-01
 2.400000000E+00 1.000000000E+00 6.989832971E-01
 2.350000000E+00 1.000000000E+00 6.993566049E-01
 2.300000000E+00 1.000000000E+00 6.999373332E-01
 2.250000000E+00 1.000000000E+00 7.004347589E-01
 2.200000000E+00 1.000000000E+00 7.008780047E-01
 2.150000000E+00 1.000000000E+00 7.012345920E-01
 2.100000000E+00 1.000000000E+00 7.018043441E-01
 2.050000000E+00 1.000000000E+00 7.023695771E-01
 2.000000000E+00 1.000000000E+00 7.029443897E-01
 1.950000000E+00 1.000000000E+00 7.037237224E-01
 1.900000000E+00 1.000000000E+00 7.045407229E-01
 1.850000000E+00 1.000000000E+00 7.052732487E-01
 1.800000000E+00 1.000000000E+00 7.063125628E-01
 1.750000000E+00 1.000000000E+00 7.070149566E-01
 1.700000000E+00 1.000000000E+00 7.083521561E-01
 1.650000000E+00 1.000000000E+00 7.103159251E-01
 1.600000000E+00 1.000000000E+00 7.111519312E-01
 1.550000000E+00 1.000000000E+00 7.127664082E-01
 1.500000000E+00 1.000000000E+00 7.145652672E-01
 1.450000000E+00 1.000000000E+00 7.164200255E-01
 1.400000000E+00 1.000000000E+00 7.186024548E-01
 1.350000000E+00 1.000000000E+00 7.210308756E-01
 1.300000000E+00 1.000000000E+00 7.234525440E-01
 1.250000000E+00 1.000000000E+00 7.263799690E-01
 1.200000000E+00 1.000000000E+00 7.297300274E-01
 1.150000000E+00 1.000000000E+00 7.330519683E-01
 1.100000000E+00 1.000000000E+00 7.366050028E-01
 1.050000000E+00 1.000000000E+00 7.407978313E-01
 1.000000000E+00 1.000000000E+00 7.448117397E-01
 9.500000000E-01 1.000000000E+00 7.498817736E-01
 9.000000000E-01 1.000000000E+00 7.540880011E-01
 8.500000000E-01 1.000000000E+00 7.584005016E-01
 8.000000000E-01 1.000000000E+00 7.618079038E-01
 7.500000000E-01 1.000000000E+00 7.651571637E-01
 7.000000000E-01 1.000000000E+00 7.673841008E-01
 6.500000000E-01 1.000000000E+00 7.691459775E-01
 6.000000000E-01 1.000000000E+00 7.696391864E-01
 5.500000000E-01 1.000000000E+00 7.691550131E-01
 5.000000000E-01 1.000000000E+00 7.673632812E-01
 4.500000000E-01 1.000000000E+00 7.644724240E-01
 4.000000000E-01 1.000000000E+00 7.603925732E-01
 3.500000000E-01 1.000000000E+00 7.553910225E-01
 3.000000000E-01 1.000000000E+00 7.500411862E-01
 2.500000000E-01 1.000000000E+00 7.444642783E-01
 2.000000000E-01 1.000000000E+00 7.386682772E-01
 1.500000000E-01 1.000000000E+00 7.331463450E-01
 1.000000000E-01 1.000000000E+00 7.278443772E-01
 5.000000000E-02 1.000000000E+00 7.231625804E-01
 1.733724275E-12 1.000000000E+00 7.193328016E-01
 -5.000000000E-02 1.000000000E+00 7.163683801E-01
 -1.000000000E-01 1.000000000E+00 7.143012527E-01
 -1.500000000E-01 1.000000000E+00 7.128659809E-01
 -2.000000000E-01 1.000000000E+00 7.121742296E-01
 -2.500000000E-01 1.000000000E+00 7.122330705E-01
 -3.000000000E-01 1.000000000E+00 7.130399213E-01
 -3.500000000E-01 1.000000000E+00 7.144972291E-01
 -4.000000000E-01 1.000000000E+00 7.169706953E-01
 -4.500000000E-01 1.000000000E+00 7.208460840E-01
 9.248880824E-01 -5.352529201E-03 5.797847371E-01
 8.456442250E-01 -1.364714232E-02 6.174627076E-01
 7.728209159E-01 -2.321705960E-02 6.634714248E-01
 7.021964767E-01 -3.443165843E-02 7.104362914E-01
 6.306968947E-01 -4.664227406E-02 7.628962660E-01
 5.583624609E-01 -5.733088862E-02 8.299877566E-01
 4.941370558E-01 -6.471878703E-02 9.025198210E-01
 4.392244327E-01 -7.035619415E-02 9.545831308E-01
 3.832043372E-01 -7.324810432E-02 1.108645834E+00
 3.264802580E-01 -7.393020650E-02 1.056048653E+00
 2.709469965E-01 -7.162644918E-02 1.004750107E+00
 2.165568824E-01 -6.783406733E-02 9.633182416E-01
 1.577302150E-01 -6.123793389E-02 9.195799249E-01
 1.005835843E-01 -5.094707999E-02 8.771056632E-01
 9.858333013E-01 -4.389078235E-03 5.681757814E-01
 6.167418033E-02 -4.368697116E-02 8.242810310E-01
 2.567951991E-02 -2.990692441E-02 7.191929019E-01