TITLE     = "Visualization of the solution"
VARIABLES = "x"
"y"
"Mach"
ZONE T="Zone"
 STRANDID=0, SOLUTIONTIME=0
 Nodes=11792, Elements=23005, ZONETYPE=FEQuadrilateral
 DATAPACKING=POINT
 DT=(DOUBLE DOUBLE DOUBLE )
 9.996141791E-01 5.134650273E-04 5.468585013E-01
 9.859068394E-01 3.279117169E-03 6.108411771E-01
 9.729768038E-01 5.820498336E-03 6.477607124E-01
 9.571110606E-01 8.946224116E-03 6.743991549E-01
 9.429830909E-01 1.176874340E-02 6.980445348E-01
 9.301059246E-01 1.431807596E-02 7.174750823E-01
 9.187919497E-01 1.649980806E-02 7.290411440E-01
 9.069263339E-01 1.878405176E-02 7.423350715E-01
 8.958344460E-01 2.094085142E-02 7.633754288E-01
 8.839429021E-01 2.313308977E-02 7.742723312E-01
 8.716668487E-01 2.532002516E-02 7.825496328E-01
 8.595183492E-01 2.744419314E-02 7.913300903E-01
 8.475573063E-01 2.952669002E-02 8.071173366E-01
 8.361036777E-01 3.143120930E-02 8.153152770E-01
 8.242471814E-01 3.330722451E-02 8.148713268E-01
 8.117221594E-01 3.531327099E-02 8.263718443E-01
 7.988873124E-01 3.732167557E-02 8.361524866E-01
 7.868678570E-01 3.915589675E-02 8.447407094E-01
 7.745103836E-01 4.099798575E-02 8.528535927E-01
 7.627580166E-01 4.269545525E-02 8.576265654E-01
 7.501140833E-01 4.452438280E-02 8.717045038E-01
 7.364244461E-01 4.640332609E-02 8.770923300E-01
 7.258402109E-01 4.784625024E-02 8.877641691E-01
 7.146413326E-01 4.930924997E-02 8.926368099E-01
 7.031019926E-01 5.081213638E-02 9.065992270E-01
 6.895464659E-01 5.247748643E-02 9.131625678E-01
 6.766409278E-01 5.401498079E-02 9.218487546E-01
 6.662604809E-01 5.519469827E-02 9.254050998E-01
 6.549854279E-01 5.647824705E-02 9.435927981E-01
 6.437607408E-01 5.767970905E-02 9.515112882E-01
 6.320920587E-01 5.886331946E-02 9.574190307E-01
 6.207486391E-01 5.996682867E-02 9.690470845E-01
 6.101791859E-01 6.094738469E-02 9.792598426E-01
 5.979549289E-01 6.200380623E-02 9.888209834E-01
 5.863285661E-01 6.295143068E-02 9.912010790E-01
 5.728127360E-01 6.395454705E-02 9.891495505E-01
 5.603991151E-01 6.483493000E-02 1.009316156E+00
 5.478104353E-01 6.561072916E-02 1.039384484E+00
 5.365436673E-01 6.623622775E-02 1.065324798E+00
 5.249081254E-01 6.684632599E-02 1.070210017E+00
 5.119660497E-01 6.741306931E-02 1.057975505E+00
 5.007032752E-01 6.781803817E-02 1.054916636E+00
 4.874222279E-01 6.825000793E-02 1.057703003E+00
 4.738667607E-01 6.858144701E-02 1.050438874E+00
 4.596187472E-01 6.885273755E-02 1.044187793E+00
 4.455939829E-01 6.900057942E-02 1.033767811E+00
 4.323724806E-01 6.906621903E-02 1.028335475E+00
 4.192339778E-01 6.904528290E-02 1.022026316E+00
 4.067147672E-01 6.895642728E-02 1.016298829E+00
 3.937912881E-01 6.878942996E-02 1.013068406E+00
 3.816006184E-01 6.857325137E-02 1.009934521E+00
 3.701027036E-01 6.829136610E-02 1.003247762E+00
 3.567374945E-01 6.791188568E-02 1.001335303E+00
 3.441379070E-01 6.745364517E-02 9.921763180E-01
 3.311541975E-01 6.691955775E-02 9.882409036E-01
 3.205361962E-01 6.641381234E-02 9.790085428E-01
 3.080469966E-01 6.576616317E-02 9.758507874E-01
 2.949857116E-01 6.501489133E-02 9.710836791E-01
 2.809697986E-01 6.410645694E-02 9.656539041E-01
 2.684559524E-01 6.321995705E-02 9.604038271E-01
 2.564072311E-01 6.227274239E-02 9.503554778E-01
 2.440494299E-01 6.124278158E-02 9.460628102E-01
 2.313814014E-01 6.010374427E-02 9.411484560E-01
 2.191028446E-01 5.891186371E-02 9.346522341E-01
 2.072740048E-01 5.768017471E-02 9.287357064E-01
 1.957770437E-01 5.640846491E-02 9.234120237E-01
 1.833494306E-01 5.493016168E-02 9.155387975E-01
 1.716398150E-01 5.344302207E-02 9.081275731E-01
 1.602122188E-01 5.190082639E-02 9.001820333E-01
 1.485768706E-01 5.023016036E-02 8.926587451E-01
 1.380444020E-01 4.864148796E-02 8.879916006E-01
 1.267798096E-01 4.681677371E-02 8.775216271E-01
 1.156991646E-01 4.491809756E-02 8.711782731E-01
 1.052650809E-01 4.300777242E-02 8.604156323E-01
 9.572482109E-02 4.115303606E-02 8.537927617E-01
 8.508113772E-02 3.894630075E-02 8.424414337E-01
 7.360293716E-02 3.637976572E-02 8.285602368E-01
 6.391182542E-02 3.403321654E-02 8.168951114E-01
 5.424321443E-02 3.150437027E-02 8.035321745E-01
 4.527806863E-02 2.894338407E-02 7.891171167E-01
 3.761537373E-02 2.654100396E-02 7.724037638E-01
 3.082941286E-02 2.421754785E-02 7.553973380E-01
 2.511073835E-02 2.207423002E-02 7.396187275E-01
 2.091368288E-02 2.035075612E-02 7.208287300E-01
 1.687780395E-02 1.854140870E-02 7.021085035E-01
 1.388420630E-02 1.707418635E-02 6.836612768E-01
 1.123689581E-02 1.565572992E-02 6.625272635E-01
 9.268140420E-03 1.450728811E-02 6.417943787E-01
 7.526147179E-03 1.340813935E-02 6.227243657E-01
 5.919886753E-03 1.230337936E-02 5.923169583E-01
 3.839229234E-03 1.067881472E-02 5.485502328E-01
 2.036214806E-03 9.010400623E-03 5.040404767E-01
 4.978617071E-04 7.234779652E-03 4.183281392E-01
 -9.961903561E-04 4.779528361E-03 3.000351645E-01
 -1.639786991E-03 2.936369274E-03 1.885023991E-01
 -1.869524131E-03 1.447296003E-03 7.714360997E-02
 -1.829294953E-03 -3.296756186E-04 3.897296688E-02
 -1.398255583E-03 -2.274739789E-03 1.599764645E-01
 -4.124039551E-04 -4.547453951E-03 2.748889778E-01
 1.133744023E-03 -6.919556763E-03 3.830462550E-01
 3.331430256E-03 -9.427246638E-03 4.667678927E-01
 5.287824199E-03 -1.125645172E-02 5.270099030E-01
 7.535238750E-03 -1.307358220E-02 5.694709042E-01
 9.245039895E-03 -1.431777421E-02 6.043062829E-01
 1.139213797E-02 -1.575296558E-02 6.322391137E-01
 1.387493405E-02 -1.726566255E-02 6.615071955E-01
 1.724721678E-02 -1.913739927E-02 6.914977926E-01
 2.040741593E-02 -2.073399164E-02 7.185476478E-01
 2.448485605E-02 -2.261578478E-02 7.412614393E-01
 3.000314161E-02 -2.492341213E-02 7.651388955E-01
 3.589732945E-02 -2.713824995E-02 7.877909926E-01
 4.312264547E-02 -2.960074134E-02 8.072092187E-01
 5.084313825E-02 -3.196637705E-02 8.237385165E-01
 5.971365795E-02 -3.444050997E-02 8.374176629E-01
 6.851775199E-02 -3.667829931E-02 8.492525863E-01
 7.894216478E-02 -3.910950944E-02 8.614904331E-01
 8.872896433E-02 -4.120471701E-02 8.684454225E-01
 9.911914170E-02 -4.327049479E-02 8.788349173E-01
 1.102022976E-01 -4.532540962E-02 8.886341223E-01
 1.216063350E-01 -4.727698117E-02 8.961710524E-01
 1.331977695E-01 -4.912431538E-02 9.027506313E-01
 1.435061991E-01 -5.066940933E-02 9.117441950E-01
 1.544503868E-01 -5.220711976E-02 9.188119480E-01
 1.661747098E-01 -5.375110731E-02 9.271481887E-01
 1.776712239E-01 -5.515550449E-02 9.334525224E-01
 1.892379820E-01 -5.648750812E-02 9.436167475E-01
 1.996853799E-01 -5.760181695E-02 9.514377003E-01
 2.106033266E-01 -5.869217589E-02 9.596751873E-01
 2.226719409E-01 -5.980221555E-02 9.691485924E-01
 2.350796163E-01 -6.084063277E-02 9.791603710E-01
 2.470194548E-01 -6.173542887E-02 9.863344021E-01
 2.594302297E-01 -6.258174777E-02 9.980125838E-01
 2.703019679E-01 -6.322985888E-02 1.012218237E+00
 2.826848328E-01 -6.386049092E-02 1.023001194E+00
 2.948736250E-01 -6.436917186E-02 1.029097525E+00
 3.078274727E-01 -6.480795145E-02 1.038695727E+00
 3.193176389E-01 -6.508665532E-02 1.055640661E+00
 3.318459094E-01 -6.526159495E-02 1.063501953E+00
 3.426162601E-01 -6.532511860E-02 1.074115206E+00
 3.540648818E-01 -6.528846174E-02 1.086330898E+00
 3.649335802E-01 -6.514061987E-02 1.093053906E+00
 3.756559491E-01 -6.491619349E-02 1.106369100E+00
 3.870338500E-01 -6.453209370E-02 1.113624143E+00
 4.000743628E-01 -6.400609016E-02 1.131305871E+00
 4.123819470E-01 -6.333437562E-02 1.056783813E+00
 4.251932204E-01 -6.252200156E-02 9.495353923E-01
 4.378019869E-01 -6.159708276E-02 9.627248038E-01
 4.504198134E-01 -6.051765010E-02 9.582141333E-01
 4.627919197E-01 -5.936813354E-02 9.387152155E-01
 4.755895734E-01 -5.809156597E-02 9.301728702E-01
 4.875328541E-01 -5.676647276E-02 9.096806009E-01
 5.004519224E-01 -5.526598915E-02 8.933316404E-01
 5.143357515E-01 -5.355485529E-02 8.781375886E-01
 5.281068087E-01 -5.174240097E-02 8.560916421E-01
 5.413466096E-01 -4.996677488E-02 8.426896987E-01
 5.550172329E-01 -4.808735475E-02 8.310535033E-01
 5.682938099E-01 -4.619523510E-02 8.169293471E-01
 5.815870166E-01 -4.424646497E-02 8.008820768E-01
 5.943394303E-01 -4.238068685E-02 7.907554070E-01
 6.071281433E-01 -4.049268365E-02 7.807724929E-01
 6.212137938E-01 -3.837274760E-02 7.676048943E-01
 6.356545687E-01 -3.620607033E-02 7.570973796E-01
 6.500473022E-01 -3.405060619E-02 7.481568747E-01
 6.634396315E-01 -3.203355148E-02 7.391877179E-01
 6.769434214E-01 -2.996646985E-02 7.259191121E-01
 6.895247698E-01 -2.810727246E-02 7.220912309E-01
 7.017493844E-01 -2.624766156E-02 7.083832500E-01
 7.169163227E-01 -2.404368855E-02 7.037828171E-01
 7.300383449E-01 -2.212721854E-02 6.946688149E-01
 7.417303920E-01 -2.045554854E-02 6.895886254E-01
 7.545896769E-01 -1.860231720E-02 6.794646282E-01
 7.672794461E-01 -1.682461053E-02 6.729951994E-01
 7.802713513E-01 -1.502444688E-02 6.645697189E-01
 7.921930552E-01 -1.340701524E-02 6.566727281E-01
 8.048613667E-01 -1.173684373E-02 6.484695844E-01
 8.160735965E-01 -1.033620536E-02 6.443784549E-01
 8.275172710E-01 -8.931605145E-03 6.371611487E-01
 8.401433825E-01 -7.460637484E-03 6.320208044E-01
 8.521443605E-01 -6.084313150E-03 6.215885814E-01
 8.644602299E-01 -4.811718594E-03 6.181030594E-01
 8.754787445E-01 -3.710628254E-03 6.088322065E-01
 8.871643543E-01 -2.695139265E-03 6.065407090E-01
 8.997293115E-01 -1.702500856E-03 6.002078130E-01
 9.098840356E-01 -1.028834027E-03 5.980249367E-01
 9.202097058E-01 -4.469146952E-04 5.965475827E-01
 9.296858311E-01 -7.870638910E-06 5.958307144E-01
 9.384481907E-01 3.267134889E-04 5.950364953E-01
 9.503325224E-01 6.429182831E-04 5.964581859E-01
 9.630825520E-01 8.342791116E-04 5.981365284E-01
 9.776274562E-01 8.619447472E-04 6.005370393E-01
 9.897792339E-01 7.277385448E-04 6.055971699E-01
 -5.000000000E-01 -1.000000000E+00 7.237201800E-01
 3.500000000E+00 -1.000000000E+00 7.269070425E-01
 3.500000000E+00 1.000000000E+00 7.131406028E-01
 -5.000000000E-01 1.000000000E+00 7.237483904E-01
 9.927605093E-01 1.896291098E-03 5.823981971E-01
 9.794418216E-01 4.549807752E-03 6.306148188E-01
 9.650439322E-01 7.383361226E-03 6.617382964E-01
 9.500470757E-01 1.035748376E-02 6.867765146E-01
 9.365445077E-01 1.304340968E-02 7.083849850E-01
 9.244489372E-01 1.540894201E-02 7.236311030E-01
 9.128591418E-01 1.764192991E-02 7.348296251E-01
 9.013803899E-01 1.986245159E-02 7.537125725E-01
 8.898886740E-01 2.203697059E-02 7.693321868E-01
 8.778048754E-01 2.422655746E-02 7.785187998E-01
 8.655925989E-01 2.638210915E-02 7.862671286E-01
 8.535378277E-01 2.848544158E-02 7.994578378E-01
 8.418304920E-01 3.047894966E-02 8.127130319E-01
 8.301754296E-01 3.236921690E-02 8.139745509E-01
 8.179846704E-01 3.431024775E-02 8.203671309E-01
 8.053047359E-01 3.631747328E-02 8.314808046E-01
 7.928775847E-01 3.823878616E-02 8.403553289E-01
 7.806891203E-01 4.007694125E-02 8.494913790E-01
 7.686342001E-01 4.184672050E-02 8.539065828E-01
 7.564360499E-01 4.360991903E-02 8.657936751E-01
 7.432692647E-01 4.546385445E-02 8.734260926E-01
 7.311323285E-01 4.712478817E-02 8.836952266E-01
 7.202407718E-01 4.857775010E-02 8.886867271E-01
 7.088716626E-01 5.006069317E-02 9.008961278E-01
 6.963242292E-01 5.164481141E-02 9.092772709E-01
 6.830936968E-01 5.324623361E-02 9.184691283E-01
 6.714507043E-01 5.460483953E-02 9.218847323E-01
 6.606229544E-01 5.583647266E-02 9.350457758E-01
 6.493730843E-01 5.707897805E-02 9.483974164E-01
 6.379263997E-01 5.827151425E-02 9.539906217E-01
 6.264203489E-01 5.941507407E-02 9.626525444E-01
 6.154639125E-01 6.045710668E-02 9.750950470E-01
 6.040670574E-01 6.147559546E-02 9.832391873E-01
 5.921417475E-01 6.247761846E-02 9.928480594E-01
 5.795706511E-01 6.345298886E-02 9.873994512E-01
 5.666059256E-01 6.439473853E-02 9.980652034E-01
 5.541047752E-01 6.522282958E-02 1.022963230E+00
 5.421770513E-01 6.592347845E-02 1.053805495E+00
 5.307258964E-01 6.654127687E-02 1.072133628E+00
 5.184370875E-01 6.712969765E-02 1.063679844E+00
 5.063346624E-01 6.761555374E-02 1.054055111E+00
 4.940627515E-01 6.803402305E-02 1.058452545E+00
 4.806444943E-01 6.841572747E-02 1.053446459E+00
 4.667427540E-01 6.871709228E-02 1.048624507E+00
 4.526063651E-01 6.892665848E-02 1.037864248E+00
 4.389832318E-01 6.903339922E-02 1.031475803E+00
 4.258032292E-01 6.905575097E-02 1.024829328E+00
 4.129743725E-01 6.900085509E-02 1.019302001E+00
 4.002530277E-01 6.887292862E-02 1.013930520E+00
 3.876959532E-01 6.868134066E-02 1.012587552E+00
 3.758516610E-01 6.843230873E-02 1.005498109E+00
 3.634200990E-01 6.810162589E-02 1.003566298E+00
 3.504377007E-01 6.768276542E-02 9.959839089E-01
 3.376460522E-01 6.718660146E-02 9.906072501E-01
 3.258451968E-01 6.666668504E-02 9.834390951E-01
 3.142915964E-01 6.608998775E-02 9.770475593E-01
 3.015163541E-01 6.539052725E-02 9.742741383E-01
 2.879777551E-01 6.456067413E-02 9.675348410E-01
 2.747128755E-01 6.366320699E-02 9.640499000E-01
 2.624315917E-01 6.274634972E-02 9.547630263E-01
 2.502283305E-01 6.175776199E-02 9.481721661E-01
 2.377154157E-01 6.067326292E-02 9.437274256E-01
 2.252421230E-01 5.950780399E-02 9.380184815E-01
 2.131884247E-01 5.829601921E-02 9.312715204E-01
 2.015255243E-01 5.704431981E-02 9.267516958E-01
 1.895632371E-01 5.566931330E-02 9.193444706E-01
 1.774946228E-01 5.418659188E-02 9.117038726E-01
 1.659260169E-01 5.267192423E-02 9.046145494E-01
 1.543945447E-01 5.106549338E-02 8.954058701E-01
 1.433106363E-01 4.943582416E-02 8.914247077E-01
 1.324121058E-01 4.772913083E-02 8.824174995E-01
 1.212394871E-01 4.586743563E-02 8.741851268E-01
 1.104821227E-01 4.396293499E-02 8.669482330E-01
 9.040297940E-02 4.004966840E-02 8.486393269E-01
 7.934203744E-02 3.766303323E-02 8.364876400E-01
 7.372995839E-02 -3.789390437E-02 8.564351756E-01
 9.392405301E-02 -4.223760590E-02 8.749242409E-01
 1.046607196E-01 -4.429795220E-02 8.832090511E-01
 1.159043163E-01 -4.630119540E-02 8.930130111E-01
 1.274020523E-01 -4.820064828E-02 8.991263286E-01
 1.383519843E-01 -4.989686236E-02 9.075433511E-01
 1.489782929E-01 -5.143826455E-02 9.152867317E-01
 1.603125483E-01 -5.297911353E-02 9.227029804E-01
 1.719229668E-01 -5.445330590E-02 9.306823646E-01
 1.834546030E-01 -5.582150631E-02 9.377511859E-01
 1.944616809E-01 -5.704466254E-02 9.484799973E-01
 2.051443532E-01 -5.814699642E-02 9.550337600E-01
 2.166376337E-01 -5.924719572E-02 9.643250559E-01
 2.288757786E-01 -6.032142416E-02 9.741543784E-01
 2.410495356E-01 -6.128803082E-02 9.832510220E-01
 2.532248423E-01 -6.215858832E-02 9.909019826E-01
 2.648660988E-01 -6.290580332E-02 1.005908669E+00
 2.764934003E-01 -6.354517490E-02 1.017573802E+00
 2.887792289E-01 -6.411483139E-02 1.027007524E+00
 3.013505489E-01 -6.458856165E-02 1.032042396E+00
 3.135725558E-01 -6.494730338E-02 1.047713230E+00
 3.255817741E-01 -6.517412513E-02 1.060247504E+00
 3.372310847E-01 -6.529335678E-02 1.068419743E+00
 3.483405709E-01 -6.530679017E-02 1.079897261E+00
 3.594992310E-01 -6.521454081E-02 1.091066957E+00
 3.702947646E-01 -6.502840668E-02 1.097499439E+00
 3.813448995E-01 -6.472414359E-02 1.111971341E+00
 3.935541064E-01 -6.426909193E-02 1.120199112E+00
 4.062281549E-01 -6.367023289E-02 1.116941930E+00
 4.187875837E-01 -6.292818859E-02 9.824763834E-01
 4.314976037E-01 -6.205954216E-02 9.502537139E-01
 4.441109002E-01 -6.105736643E-02 9.662949291E-01
 4.566058666E-01 -5.994289182E-02 9.471843970E-01
 4.691907465E-01 -5.872984976E-02 9.338882131E-01
 4.815612137E-01 -5.742901936E-02 9.216862581E-01
 4.939923882E-01 -5.601623096E-02 9.003118717E-01
 5.073938370E-01 -5.441042222E-02 8.861619165E-01
 5.212212801E-01 -5.264862813E-02 8.673752264E-01
 5.347267091E-01 -5.085458793E-02 8.485059767E-01
 5.481819212E-01 -4.902706482E-02 8.369260503E-01
 5.616555214E-01 -4.714129493E-02 8.243403227E-01
 5.749404132E-01 -4.522085004E-02 8.088718941E-01
 5.879632235E-01 -4.331357591E-02 7.952820812E-01
 6.007337868E-01 -4.143668525E-02 7.859476117E-01
 6.141709685E-01 -3.943271562E-02 7.743374715E-01
 6.284341812E-01 -3.728940897E-02 7.620656805E-01
 6.428509355E-01 -3.512833826E-02 7.524947978E-01
 6.567434669E-01 -3.304207884E-02 7.438306187E-01
 6.701915264E-01 -3.100001067E-02 7.326322227E-01
 6.832340956E-01 -2.903687116E-02 7.234676665E-01
 6.956370771E-01 -2.717746701E-02 7.156601465E-01
 7.093328536E-01 -2.514567506E-02 7.057525498E-01
 7.234773338E-01 -2.308545355E-02 6.993582253E-01
 7.358843684E-01 -2.129138354E-02 6.919668403E-01
 7.481600344E-01 -1.952893287E-02 6.847744450E-01
 7.609345615E-01 -1.771346387E-02 6.761063661E-01
 7.737753987E-01 -1.592452871E-02 6.688903308E-01
 7.862322032E-01 -1.421573106E-02 6.605559806E-01
 7.985272110E-01 -1.257192949E-02 6.526465526E-01
 8.104674816E-01 -1.103652455E-02 6.461483921E-01
 8.217954338E-01 -9.633905254E-03 6.408659561E-01
 8.338303268E-01 -8.196121315E-03 6.348126101E-01
 8.461438715E-01 -6.772475317E-03 6.267610079E-01
 8.583022952E-01 -5.448015872E-03 6.197363079E-01
 8.699694872E-01 -4.261173424E-03 6.134484535E-01
 8.813215494E-01 -3.202883760E-03 6.075018519E-01
 8.934468329E-01 -2.198820061E-03 6.038645244E-01
 9.048066735E-01 -1.365667442E-03 5.983641784E-01
 9.150468707E-01 -7.378743612E-04 5.971426659E-01
 9.443903565E-01 4.848158860E-04 5.956691964E-01
 9.567075372E-01 7.385986974E-04 5.971612650E-01
 9.703550041E-01 8.481119294E-04 6.000889656E-01
 9.837033451E-01 7.948416460E-04 6.042626939E-01
 -5.000000000E-01 9.500000000E-01 7.212281850E-01
 -5.000000000E-01 9.000000000E-01 7.172852968E-01
 -5.000000000E-01 8.500000000E-01 7.142656848E-01
 -5.000000000E-01 8.000000000E-01 7.116479537E-01
 -5.000000000E-01 7.500000000E-01 7.091338602E-01
 -5.000000000E-01 7.000000000E-01 7.065881196E-01
 -5.000000000E-01 6.500000000E-01 7.041586593E-01
 -5.000000000E-01 6.000000000E-01 7.016479350E-01
 -5.000000000E-01 5.500000000E-01 6.990345049E-01
 -5.000000000E-01 5.000000000E-01 6.963692035E-01
 -5.000000000E-01 4.500000000E-01 6.937096231E-01
 -5.000000000E-01 4.000000000E-01 6.910331546E-01
 -5.000000000E-01 3.500000000E-01 6.884243361E-01
 -5.000000000E-01 3.000000000E-01 6.859228896E-01
 -5.000000000E-01 2.500000000E-01 6.835965949E-01
 -5.000000000E-01 2.000000000E-01 6.815613215E-01
 -5.000000000E-01 1.500000000E-01 6.799100017E-01
 -5.000000000E-01 1.000000000E-01 6.786114284E-01
 -5.000000000E-01 5.000000000E-02 6.778114319E-01
 -5.000000000E-01 2.752242878E-12 6.775486518E-01
 -5.000000000E-01 -5.000000000E-02 6.777647125E-01
 -5.000000000E-01 -1.000000000E-01 6.785782569E-01
 -5.000000000E-01 -1.500000000E-01 6.798604801E-01
 -5.000000000E-01 -2.000000000E-01 6.815556205E-01
 -5.000000000E-01 -2.500000000E-01 6.835924598E-01
 -5.000000000E-01 -3.000000000E-01 6.859224120E-01
 -5.000000000E-01 -3.500000000E-01 6.884121259E-01
 -5.000000000E-01 -4.000000000E-01 6.910116834E-01
 -5.000000000E-01 -4.500000000E-01 6.936608338E-01
 -5.000000000E-01 -5.000000000E-01 6.963210723E-01
 -5.000000000E-01 -5.500000000E-01 6.989946066E-01
 -5.000000000E-01 -6.000000000E-01 7.015307911E-01
 -5.000000000E-01 -6.500000000E-01 7.040619492E-01
 -5.000000000E-01 -7.000000000E-01 7.065650661E-01
 -5.000000000E-01 -7.500000000E-01 7.089990024E-01
 -5.000000000E-01 -8.000000000E-01 7.115383068E-01
 -5.000000000E-01 -8.500000000E-01 7.141596850E-01
 -5.000000000E-01 -9.000000000E-01 7.172100486E-01
 -5.000000000E-01 -9.500000000E-01 7.211910793E-01
 -4.500000000E-01 -1.000000000E+00 7.210126590E-01
 -4.000000000E-01 -1.000000000E+00 7.172290972E-01
 -3.500000000E-01 -1.000000000E+00 7.147404276E-01
 -3.000000000E-01 -1.000000000E+00 7.131878807E-01
 -2.500000000E-01 -1.000000000E+00 7.123673867E-01
 -2.000000000E-01 -1.000000000E+00 7.121966515E-01
 -1.500000000E-01 -1.000000000E+00 7.127137234E-01
 -1.000000000E-01 -1.000000000E+00 7.138726517E-01
 -5.000000000E-02 -1.000000000E+00 7.157417823E-01
 -9.424683256E-13 -1.000000000E+00 7.183504107E-01
 5.000000000E-02 -1.000000000E+00 7.214748339E-01
 1.000000000E-01 -1.000000000E+00 7.251865660E-01
 1.500000000E-01 -1.000000000E+00 7.292526481E-01
 2.000000000E-01 -1.000000000E+00 7.334732485E-01
 2.500000000E-01 -1.000000000E+00 7.375317788E-01
 3.000000000E-01 -1.000000000E+00 7.416239499E-01
 3.500000000E-01 -1.000000000E+00 7.452316285E-01
 4.000000000E-01 -1.000000000E+00 7.478653778E-01
 4.500000000E-01 -1.000000000E+00 7.493408169E-01
 5.000000000E-01 -1.000000000E+00 7.500706598E-01
 5.500000000E-01 -1.000000000E+00 7.501546884E-01
 6.000000000E-01 -1.000000000E+00 7.493991070E-01
 6.500000000E-01 -1.000000000E+00 7.480628727E-01
 7.000000000E-01 -1.000000000E+00 7.460942906E-01
 7.500000000E-01 -1.000000000E+00 7.436874707E-01
 8.000000000E-01 -1.000000000E+00 7.410033423E-01
 8.500000000E-01 -1.000000000E+00 7.381054065E-01
 9.000000000E-01 -1.000000000E+00 7.351500417E-01
 9.500000000E-01 -1.000000000E+00 7.322296818E-01
 1.000000000E+00 -1.000000000E+00 7.296149147E-01
 1.050000000E+00 -1.000000000E+00 7.270431154E-01
 1.100000000E+00 -1.000000000E+00 7.245597962E-01
 1.150000000E+00 -1.000000000E+00 7.224284117E-01
 1.200000000E+00 -1.000000000E+00 7.206463680E-01
 1.250000000E+00 -1.000000000E+00 7.192452323E-01
 1.300000000E+00 -1.000000000E+00 7.179121582E-01
 1.350000000E+00 -1.000000000E+00 7.167139076E-01
 1.400000000E+00 -1.000000000E+00 7.159796332E-01
 1.450000000E+00 -1.000000000E+00 7.157175895E-01
 1.500000000E+00 -1.000000000E+00 7.154661923E-01
 1.550000000E+00 -1.000000000E+00 7.152387605E-01
 1.600000000E+00 -1.000000000E+00 7.150961842E-01
 1.650000000E+00 -1.000000000E+00 7.151678544E-01
 1.700000000E+00 -1.000000000E+00 7.150814418E-01
 1.750000000E+00 -1.000000000E+00 7.151663538E-01
 1.800000000E+00 -1.000000000E+00 7.154375126E-01
 1.850000000E+00 -1.000000000E+00 7.157608125E-01
 1.900000000E+00 -1.000000000E+00 7.160646846E-01
 1.950000000E+00 -1.000000000E+00 7.164368276E-01
 2.000000000E+00 -1.000000000E+00 7.167499414E-01
 2.050000000E+00 -1.000000000E+00 7.170302258E-01
 2.100000000E+00 -1.000000000E+00 7.173268036E-01
 2.150000000E+00 -1.000000000E+00 7.176427793E-01
 2.200000000E+00 -1.000000000E+00 7.179293399E-01
 2.250000000E+00 -1.000000000E+00 7.182589040E-01
 2.300000000E+00 -1.000000000E+00 7.184982613E-01
 2.350000000E+00 -1.000000000E+00 7.187056638E-01
 2.400000000E+00 -1.000000000E+00 7.190149858E-01
 2.450000000E+00 -1.000000000E+00 7.192052976E-01
 2.500000000E+00 -1.000000000E+00 7.194418662E-01
 2.550000000E+00 -1.000000000E+00 7.197624389E-01
 2.600000000E+00 -1.000000000E+00 7.200223774E-01
 2.650000000E+00 -1.000000000E+00 7.201868326E-01
 2.700000000E+00 -1.000000000E+00 7.203823528E-01
 2.750000000E+00 -1.000000000E+00 7.205849889E-01
 2.800000000E+00 -1.000000000E+00 7.206835218E-01
 2.850000000E+00 -1.000000000E+00 7.209541280E-01
 2.900000000E+00 -1.000000000E+00 7.210665317E-01
 2.950000000E+00 -1.000000000E+00 7.211171921E-01
 3.000000000E+00 -1.000000000E+00 7.212028065E-01
 3.050000000E+00 -1.000000000E+00 7.212775322E-01
 3.100000000E+00 -1.000000000E+00 7.213320215E-01
 3.150000000E+00 -1.000000000E+00 7.214203647E-01
 3.200000000E+00 -1.000000000E+00 7.214311624E-01
 3.250000000E+00 -1.000000000E+00 7.215885033E-01
 3.300000000E+00 -1.000000000E+00 7.217925499E-01
 3.350000000E+00 -1.000000000E+00 7.220948761E-01
 3.400000000E+00 -1.000000000E+00 7.224838150E-01
 3.450000000E+00 -1.000000000E+00 7.237427707E-01
 3.500000000E+00 -9.500000000E-01 7.290085411E-01
 3.500000000E+00 -9.000000000E-01 7.302058746E-01
 3.500000000E+00 -8.500000000E-01 7.309684430E-01
 3.500000000E+00 -8.000000000E-01 7.314323528E-01
 3.500000000E+00 -7.500000000E-01 7.316766408E-01
 3.500000000E+00 -7.000000000E-01 7.318838413E-01
 3.500000000E+00 -6.500000000E-01 7.321488647E-01
 3.500000000E+00 -6.000000000E-01 7.324747882E-01
 3.500000000E+00 -5.500000000E-01 7.328438009E-01
 3.500000000E+00 -5.000000000E-01 7.332194712E-01
 3.500000000E+00 -4.500000000E-01 7.335808304E-01
 3.500000000E+00 -4.000000000E-01 7.339226896E-01
 3.500000000E+00 -3.500000000E-01 7.343020127E-01
 3.500000000E+00 -3.000000000E-01 7.347000791E-01
 3.500000000E+00 -2.500000000E-01 7.350649718E-01
 3.500000000E+00 -2.000000000E-01 7.353461316E-01
 3.500000000E+00 -1.500000000E-01 7.355255163E-01
 3.500000000E+00 -1.000000000E-01 7.355793854E-01
 3.500000000E+00 -5.000000000E-02 7.355863621E-01
 3.500000000E+00 -2.752242878E-12 7.356006201E-01
 3.500000000E+00 5.000000000E-02 7.355746707E-01
 3.500000000E+00 1.000000000E-01 7.354736819E-01
 3.500000000E+00 1.500000000E-01 7.352541211E-01
 3.500000000E+00 2.000000000E-01 7.349341677E-01
 3.500000000E+00 2.500000000E-01 7.345590310E-01
 3.500000000E+00 3.000000000E-01 7.341793420E-01
 3.500000000E+00 3.500000000E-01 7.338297494E-01
 3.500000000E+00 4.000000000E-01 7.334874609E-01
 3.500000000E+00 4.500000000E-01 7.330994082E-01
 3.500000000E+00 5.000000000E-01 7.326567075E-01
 3.500000000E+00 5.500000000E-01 7.322242319E-01
 3.500000000E+00 6.000000000E-01 7.319326494E-01
 3.500000000E+00 6.500000000E-01 7.319365776E-01
 3.500000000E+00 7.000000000E-01 7.322388613E-01
 3.500000000E+00 7.500000000E-01 7.323959251E-01
 3.500000000E+00 8.000000000E-01 7.315894023E-01
 3.500000000E+00 8.500000000E-01 7.294250914E-01
 3.500000000E+00 9.000000000E-01 7.256619598E-01
 3.500000000E+00 9.500000000E-01 7.204094146E-01
 3.450000000E+00 1.000000000E+00 7.026413621E-01
 3.400000000E+00 1.000000000E+00 6.980939945E-01
 3.350000000E+00 1.000000000E+00 6.971645586E-01
 3.300000000E+00 1.000000000E+00 6.965283917E-01
 3.250000000E+00 1.000000000E+00 6.963694659E-01
 3.200000000E+00 1.000000000E+00 6.969689522E-01
 3.150000000E+00 1.000000000E+00 6.977763579E-01
 3.100000000E+00 1.000000000E+00 6.978519333E-01
 3.050000000E+00 1.000000000E+00 6.981170688E-01
 3.000000000E+00 1.000000000E+00 6.985201671E-01
 2.950000000E+00 1.000000000E+00 6.990475139E-01
 2.900000000E+00 1.000000000E+00 6.994987196E-01
 2.850000000E+00 1.000000000E+00 6.996814303E-01
 2.800000000E+00 1.000000000E+00 6.997848433E-01
 2.750000000E+00 1.000000000E+00 7.002540022E-01
 2.700000000E+00 1.000000000E+00 7.003993941E-01
 2.650000000E+00 1.000000000E+00 7.005544902E-01
 2.600000000E+00 1.000000000E+00 7.008631007E-01
 2.550000000E+00 1.000000000E+00 7.010985391E-01
 2.500000000E+00 1.000000000E+00 7.013728348E-01
 2.450000000E+00 1.000000000E+00 7.019608080E-01
 2.400000000E+00 1.000000000E+00 7.024816267E-01
 2.350000000E+00 1.000000000E+00 7.026718860E-01
 2.300000000E+00 1.000000000E+00 7.030557520E-01
 2.250000000E+00 1.000000000E+00 7.034974264E-01
 2.200000000E+00 1.000000000E+00 7.040240526E-01
 2.150000000E+00 1.000000000E+00 7.045978498E-01
 2.100000000E+00 1.000000000E+00 7.047354867E-01
 2.050000000E+00 1.000000000E+00 7.057514302E-01
 2.000000000E+00 1.000000000E+00 7.064828295E-01
 1.950000000E+00 1.000000000E+00 7.069371684E-01
 1.900000000E+00 1.000000000E+00 7.074337972E-01
 1.850000000E+00 1.000000000E+00 7.081510187E-01
 1.800000000E+00 1.000000000E+00 7.089493778E-01
 1.750000000E+00 1.000000000E+00 7.099663277E-01
 1.700000000E+00 1.000000000E+00 7.108951088E-01
 1.650000000E+00 1.000000000E+00 7.119194117E-01
 1.600000000E+00 1.000000000E+00 7.133408133E-01
 1.550000000E+00 1.000000000E+00 7.144998230E-01
 1.500000000E+00 1.000000000E+00 7.160626605E-01
 1.450000000E+00 1.000000000E+00 7.176985859E-01
 1.400000000E+00 1.000000000E+00 7.196604486E-01
 1.350000000E+00 1.000000000E+00 7.215577678E-01
 1.300000000E+00 1.000000000E+00 7.242861378E-01
 1.250000000E+00 1.000000000E+00 7.269564422E-01
 1.200000000E+00 1.000000000E+00 7.302040967E-01
 1.150000000E+00 1.000000000E+00 7.336873598E-01
 1.100000000E+00 1.000000000E+00 7.371444151E-01
 1.050000000E+00 1.000000000E+00 7.402909917E-01
 1.000000000E+00 1.000000000E+00 7.436971522E-01
 9.500000000E-01 1.000000000E+00 7.479146682E-01
 9.000000000E-01 1.000000000E+00 7.513567853E-01
 8.500000000E-01 1.000000000E+00 7.541304946E-01
 8.000000000E-01 1.000000000E+00 7.596082465E-01
 7.500000000E-01 1.000000000E+00 7.630509881E-01
 7.000000000E-01 1.000000000E+00 7.655723183E-01
 6.500000000E-01 1.000000000E+00 7.671238356E-01
 6.000000000E-01 1.000000000E+00 7.673013221E-01
 5.500000000E-01 1.000000000E+00 7.659539040E-01
 5.000000000E-01 1.000000000E+00 7.641490498E-01
 4.500000000E-01 1.000000000E+00 7.621591295E-01
 4.000000000E-01 1.000000000E+00 7.585572553E-01
 3.500000000E-01 1.000000000E+00 7.537881363E-01
 3.000000000E-01 1.000000000E+00 7.486510062E-01
 2.500000000E-01 1.000000000E+00 7.432629162E-01
 2.000000000E-01 1.000000000E+00 7.376340241E-01
 1.500000000E-01 1.000000000E+00 7.323668963E-01
 1.000000000E-01 1.000000000E+00 7.274706912E-01
 5.000000000E-02 1.000000000E+00 7.231079977E-01
 1.733724275E-12 1.000000000E+00 7.195193368E-01
 -5.000000000E-02 1.000000000E+00 7.166138379E-01
 -1.000000000E-01 1.000000000E+00 7.145110097E-01
 -1.500000000E-01 1.000000000E+00 7.130947512E-01
 -2.000000000E-01 1.000000000E+00 7.124309605E-01
 -2.500000000E-01 1.000000000E+00 7.125432298E-01
 -3.000000000E-01 1.000000000E+00 7.133279295E-01
 -3.500000000E-01 1.000000000E+00 7.148810161E-01
 -4.000000000E-01 1.000000000E+00 7.172968509E-01
 -4.500000000E-01 1.000000000E+00 7.210826552E-01
 9.025596988E-01 -5.931208678E-03 6.024556448E-01
 8.252645621E-01 -1.423801164E-02 6.406700896E-01
 9.875092896E-01 -4.750969742E-03 6.057645107E-01
 7.515290175E-01 -2.496030898E-02 6.839426353E-01
 6.808686458E-01 -3.484785614E-02 7.254201074E-01
 6.115250800E-01 -4.578001029E-02 7.781233020E-01
 5.455650779E-01 -5.532191137E-02 8.390402870E-01
 4.797235938E-01 -6.355333579E-02 9.221938857E-01
 4.221635757E-01 -6.827329569E-02 9.604245151E-01
 3.616068178E-01 -6.974164210E-02 1.087077730E+00
 3.105793319E-01 -6.985301532E-02 1.037556211E+00
 2.556103635E-01 -6.761753879E-02 9.900701749E-01
 1.968279104E-01 -6.197098704E-02 9.467106343E-01
 1.455953191E-01 -5.565814287E-02 9.098170230E-01
 1.008594011E-01 -4.821231183E-02 8.753924069E-01
 6.257580902E-02 -4.161778939E-02 8.292719698E-01
 2.545597556E-02 -2.807664193E-02 7.309316180E-01
 1.974434744E+00 -9.571139071E-01 7.195353835E-01
 1.973633847E+00 9.579161518E-01 7.162885230E-01
 9.415337999E-01 -4.520860350E-03 5.988646612E-01
 9.282221486E-01 1.976260381E-02 7.201936759E-01