TITLE     = "Visualization of the solution"
VARIABLES = "x"
"y"
"Mach"
ZONE T="Zone"
 STRANDID=0, SOLUTIONTIME=0
 Nodes=12156, Elements=23728, ZONETYPE=FEQuadrilateral
 DATAPACKING=POINT
 DT=(DOUBLE DOUBLE DOUBLE )
 9.997598529E-01 5.109221675E-04 5.319546388E-01
 9.838639498E-01 3.619361203E-03 6.598035651E-01
 9.702901840E-01 6.183354650E-03 6.789223356E-01
 9.548377395E-01 9.160655551E-03 7.018148309E-01
 9.407643676E-01 1.186055318E-02 7.200976517E-01
 9.286134839E-01 1.417401899E-02 7.341453546E-01
 9.174497128E-01 1.630926505E-02 7.509735185E-01
 9.056574702E-01 1.850749180E-02 7.633658902E-01
 8.941175938E-01 2.064468153E-02 7.803692737E-01
 8.818591833E-01 2.282330021E-02 7.917007336E-01
 8.696503043E-01 2.491236664E-02 7.989428510E-01
 8.575746417E-01 2.693798393E-02 8.073617880E-01
 8.456407785E-01 2.892726846E-02 8.223560761E-01
 8.341352940E-01 3.072779998E-02 8.219553248E-01
 8.227567673E-01 3.253498673E-02 8.353743526E-01
 8.103400469E-01 3.442917392E-02 8.430042288E-01
 7.978273630E-01 3.627617285E-02 8.483788738E-01
 7.860954404E-01 3.797335550E-02 8.542941694E-01
 7.737959027E-01 3.972847760E-02 8.638453500E-01
 7.621450424E-01 4.134168103E-02 8.700941210E-01
 7.494458556E-01 4.307021573E-02 8.799879550E-01
 7.361556888E-01 4.481238127E-02 8.865843692E-01
 7.252431512E-01 4.620441794E-02 8.919431066E-01
 7.138731480E-01 4.763677716E-02 9.017966250E-01
 7.020962834E-01 4.907243326E-02 9.095323665E-01
 6.891812086E-01 5.060096458E-02 9.192620493E-01
 6.763074398E-01 5.206248909E-02 9.281331462E-01
 6.650076509E-01 5.329882726E-02 9.351303709E-01
 6.533045173E-01 5.453138053E-02 9.425870657E-01
 6.424852014E-01 5.563777313E-02 9.545211728E-01
 6.304067373E-01 5.681888387E-02 9.661202159E-01
 6.187077761E-01 5.788502097E-02 9.717703806E-01
 6.079848409E-01 5.881776288E-02 9.794953085E-01
 5.959240794E-01 5.980374292E-02 9.912833700E-01
 5.841357708E-01 6.071926281E-02 9.975766072E-01
 5.703353286E-01 6.168571487E-02 9.930822661E-01
 5.572576523E-01 6.252764910E-02 1.005862741E+00
 5.440996289E-01 6.328967959E-02 1.040799093E+00
 5.324223638E-01 6.388144195E-02 1.065793154E+00
 5.203142762E-01 6.445988268E-02 1.070169345E+00
 5.078322887E-01 6.495903432E-02 1.059588902E+00
 4.972009361E-01 6.531052291E-02 1.052430477E+00
 4.842032492E-01 6.567312777E-02 1.053633906E+00
 4.715375006E-01 6.595846266E-02 1.050558759E+00
 4.580338001E-01 6.617687643E-02 1.039086550E+00
 4.439347386E-01 6.628371775E-02 1.030061473E+00
 4.311668575E-01 6.633233279E-02 1.027249555E+00
 4.178782105E-01 6.627651304E-02 1.017074901E+00
 4.053652883E-01 6.616368890E-02 1.014896607E+00
 3.920265436E-01 6.597462296E-02 1.013679700E+00
 3.799752295E-01 6.573005021E-02 1.005432077E+00
 3.682809472E-01 6.541836262E-02 9.970905965E-01
 3.549664617E-01 6.501292437E-02 9.961105492E-01
 3.423399627E-01 6.454099715E-02 9.890007685E-01
 3.299598694E-01 6.401044130E-02 9.833461944E-01
 3.196572363E-01 6.351219118E-02 9.760283312E-01
 3.077379167E-01 6.288673729E-02 9.719074598E-01
 2.954898477E-01 6.217663735E-02 9.669842894E-01
 2.819887400E-01 6.131582707E-02 9.627214196E-01
 2.698629498E-01 6.045565382E-02 9.542873626E-01
 2.581369579E-01 5.956478044E-02 9.490455413E-01
 2.457736135E-01 5.855793133E-02 9.439568443E-01
 2.331854105E-01 5.744419247E-02 9.366050112E-01
 2.211508155E-01 5.631499738E-02 9.328739275E-01
 2.094152570E-01 5.513087288E-02 9.258220175E-01
 1.976266205E-01 5.386334285E-02 9.188314451E-01
 1.852990687E-01 5.246471986E-02 9.145996775E-01
 1.734530628E-01 5.101979151E-02 9.062637225E-01
 1.616944969E-01 4.950779304E-02 9.005703390E-01
 1.498261243E-01 4.788728058E-02 8.949085670E-01
 1.387459040E-01 4.628214613E-02 8.886644324E-01
 1.273510456E-01 4.452250898E-02 8.796433148E-01
 1.161852553E-01 4.269726947E-02 8.725012238E-01
 1.054080129E-01 4.083470255E-02 8.673612412E-01
 9.542762488E-02 3.899231181E-02 8.584477868E-01
 8.455678821E-02 3.685658053E-02 8.495196973E-01
 7.333680987E-02 3.448722884E-02 8.415804173E-01
 6.347759813E-02 3.224206716E-02 8.298166936E-01
 5.409229174E-02 2.992079407E-02 8.190754216E-01
 4.526803643E-02 2.755415253E-02 8.093617615E-01
 3.734173626E-02 2.522744797E-02 7.980536252E-01
 3.043424524E-02 2.300114930E-02 7.839736526E-01
 2.461973391E-02 2.093791775E-02 7.706774307E-01
 2.029476874E-02 1.924960874E-02 7.571427423E-01
 1.627357863E-02 1.752681285E-02 7.422944361E-01
 1.324186567E-02 1.609740220E-02 7.267900208E-01
 1.061177719E-02 1.474166382E-02 7.106737636E-01
 8.689981885E-03 1.365282852E-02 6.935894016E-01
 6.882189307E-03 1.253654342E-02 6.764114347E-01
 5.184144713E-03 1.138111856E-02 6.466591209E-01
 3.047748003E-03 9.703246877E-03 6.014960756E-01
 1.327986480E-03 8.062072098E-03 5.497212626E-01
 -4.512869418E-05 6.412292831E-03 4.628860683E-01
 -1.372416154E-03 4.138329532E-03 3.432075558E-01
 -1.979816006E-03 2.318405313E-03 2.356260871E-01
 -2.199343406E-03 8.315962041E-04 1.314005474E-01
 -2.156102099E-03 -9.896262782E-04 1.695399526E-02
 -1.693964470E-03 -3.117064713E-03 1.093311407E-01
 -6.603053771E-04 -5.568311084E-03 2.247909872E-01
 9.719230584E-04 -8.167483844E-03 3.274404652E-01
 3.148933407E-03 -1.079322025E-02 4.139064056E-01
 5.159685388E-03 -1.280107908E-02 4.738580992E-01
 7.526702248E-03 -1.485985238E-02 5.207807136E-01
 9.318318218E-03 -1.626075432E-02 5.564864189E-01
 1.147036068E-02 -1.780840196E-02 5.849930468E-01
 1.397193223E-02 -1.946422830E-02 6.168191423E-01
 1.722088270E-02 -2.142466977E-02 6.493648442E-01
 2.049645223E-02 -2.324040420E-02 6.793608793E-01
 2.458781190E-02 -2.530671470E-02 7.048158118E-01
 2.993861213E-02 -2.777145989E-02 7.332252510E-01
 3.539995477E-02 -3.004661202E-02 7.596306116E-01
 4.211689532E-02 -3.259171546E-02 7.805553298E-01
 4.946101084E-02 -3.511303663E-02 7.999043109E-01
 5.810052529E-02 -3.781451657E-02 8.186318085E-01
 6.658663601E-02 -4.024105147E-02 8.347249182E-01
 7.685107738E-02 -4.291028902E-02 8.495682809E-01
 8.651532978E-02 -4.522311315E-02 8.592584294E-01
 9.712056071E-02 -4.756628722E-02 8.729301259E-01
 1.083276197E-01 -4.986974970E-02 8.842213479E-01
 1.199936271E-01 -5.207752064E-02 8.933303559E-01
 1.315412372E-01 -5.411896855E-02 9.051349632E-01
 1.419893503E-01 -5.583218858E-02 9.127347210E-01
 1.533020437E-01 -5.757346004E-02 9.193318557E-01
 1.651860327E-01 -5.929141864E-02 9.301565705E-01
 1.766887605E-01 -6.083958596E-02 9.409804201E-01
 1.882929504E-01 -6.228544563E-02 9.475730737E-01
 1.987802982E-01 -6.350935251E-02 9.556418349E-01
 2.100464255E-01 -6.474392861E-02 9.674581198E-01
 2.221401930E-01 -6.595327705E-02 9.764266596E-01
 2.337531894E-01 -6.701799482E-02 9.856988573E-01
 2.454318255E-01 -6.799641252E-02 9.970520070E-01
 2.574345767E-01 -6.889700145E-02 1.008006172E+00
 2.687330842E-01 -6.964787841E-02 1.018029679E+00
 2.811047137E-01 -7.036177069E-02 1.022992680E+00
 2.932770848E-01 -7.097467780E-02 1.037540859E+00
 3.059318066E-01 -7.147710025E-02 1.056480708E+00
 3.176730275E-01 -7.181847095E-02 1.068693954E+00
 3.300701976E-01 -7.207909971E-02 1.075447923E+00
 3.403933346E-01 -7.220509648E-02 1.093025822E+00
 3.518729210E-01 -7.221578807E-02 1.103084379E+00
 3.631982207E-01 -7.213983685E-02 1.111733074E+00
 3.742083311E-01 -7.195265591E-02 1.127034107E+00
 3.860929608E-01 -7.161462307E-02 1.140696833E+00
 3.988001347E-01 -7.111880183E-02 1.145321279E+00
 4.109926522E-01 -7.053335756E-02 1.156662475E+00
 4.237165749E-01 -6.974583864E-02 1.186411545E+00
 4.361311495E-01 -6.887335330E-02 1.082755559E+00
 4.491151273E-01 -6.781123579E-02 9.043674352E-01
 4.616322517E-01 -6.666614860E-02 9.279249978E-01
 4.742718339E-01 -6.539714336E-02 9.358963182E-01
 4.865120947E-01 -6.404423714E-02 9.183425161E-01
 4.986649752E-01 -6.262282282E-02 9.065574353E-01
 5.119811296E-01 -6.094606966E-02 8.883841815E-01
 5.249009728E-01 -5.924586952E-02 8.730711964E-01
 5.372922421E-01 -5.756317079E-02 8.629741101E-01
 5.507301688E-01 -5.562833324E-02 8.447583081E-01
 5.638198853E-01 -5.369039625E-02 8.299231624E-01
 5.769743919E-01 -5.169029534E-02 8.157442307E-01
 5.902504921E-01 -4.963193089E-02 8.023084893E-01
 6.034641862E-01 -4.755340889E-02 7.898639316E-01
 6.164176464E-01 -4.550331831E-02 7.801277174E-01
 6.298011541E-01 -4.333333299E-02 7.659523472E-01
 6.434189677E-01 -4.115187749E-02 7.595599217E-01
 6.562835574E-01 -3.901915252E-02 7.447102448E-01
 6.698333025E-01 -3.680526465E-02 7.363376545E-01
 6.823384762E-01 -3.474072739E-02 7.251158710E-01
 6.948456168E-01 -3.270540759E-02 7.179190419E-01
 7.096269727E-01 -3.029310890E-02 7.083881346E-01
 7.228671908E-01 -2.813921869E-02 7.009366118E-01
 7.339521646E-01 -2.628266066E-02 6.866824094E-01
 7.474209666E-01 -2.412519790E-02 6.807180842E-01
 7.605870962E-01 -2.203118056E-02 6.723977446E-01
 7.742102742E-01 -1.986194029E-02 6.603585876E-01
 7.870427966E-01 -1.793069392E-02 6.585874656E-01
 7.993534803E-01 -1.597633027E-02 6.410366427E-01
 8.106483221E-01 -1.433277037E-02 6.392423117E-01
 8.217391968E-01 -1.272266358E-02 6.315425787E-01
 8.335469365E-01 -1.101707760E-02 6.200943915E-01
 8.460180163E-01 -9.346855804E-03 6.154083163E-01
 8.579486609E-01 -7.761488669E-03 6.033886418E-01
 8.686998487E-01 -6.448688917E-03 5.969903501E-01
 8.799173236E-01 -5.184161011E-03 5.916508119E-01
 8.924116492E-01 -3.885196988E-03 5.845332627E-01
 9.026987553E-01 -2.938281046E-03 5.804260622E-01
 9.134471416E-01 -2.048865426E-03 5.750300316E-01
 9.240458012E-01 -1.318375813E-03 5.731371053E-01
 9.343599081E-01 -7.204366848E-04 5.710666983E-01
 9.471541643E-01 -1.455121383E-04 5.698964689E-01
 9.616919160E-01 2.946130990E-04 5.685041790E-01
 9.762612581E-01 5.260023172E-04 5.650704452E-01
 9.894231558E-01 5.611092201E-04 5.540640780E-01
 -5.000000000E-01 -1.000000000E+00 7.233278599E-01
 3.500000000E+00 -1.000000000E+00 7.265648967E-01
 3.500000000E+00 1.000000000E+00 7.124438380E-01
 -5.000000000E-01 1.000000000E+00 7.236632750E-01
 9.918119013E-01 2.065141685E-03 6.313120962E-01
 9.770770669E-01 4.901357926E-03 6.691936588E-01
 9.625639617E-01 7.672005100E-03 6.907367047E-01
 9.478010535E-01 1.051060436E-02 7.115598397E-01
 9.346889257E-01 1.301728608E-02 7.271272291E-01
 9.230315983E-01 1.524164202E-02 7.427660822E-01
 9.115535915E-01 1.740837842E-02 7.568623765E-01
 8.998875320E-01 1.957608666E-02 7.723748732E-01
 8.879883885E-01 2.173399087E-02 7.864633569E-01
 8.757547438E-01 2.386783343E-02 7.954850505E-01
 8.636124730E-01 2.592517529E-02 8.020974563E-01
 8.516077101E-01 2.793262620E-02 8.166162339E-01
 8.398880363E-01 2.982753422E-02 8.211451035E-01
 8.284460306E-01 3.163139336E-02 8.288686828E-01
 8.165484071E-01 3.348208033E-02 8.395748626E-01
 8.040837049E-01 3.535267338E-02 8.456450513E-01
 7.919614017E-01 3.712476417E-02 8.509898832E-01
 7.799456716E-01 3.885091655E-02 8.592662070E-01
 7.679704726E-01 4.053507932E-02 8.667263331E-01
 7.557954490E-01 4.220594838E-02 8.752357942E-01
 7.428007722E-01 4.394129850E-02 8.835210390E-01
 7.306994200E-01 4.550839961E-02 8.887969883E-01
 7.195581496E-01 4.692059755E-02 8.970731643E-01
 7.079847157E-01 4.835460521E-02 9.055425761E-01
 6.956387460E-01 4.983669892E-02 9.144446943E-01
 6.827443242E-01 5.133172683E-02 9.236156657E-01
 6.706575453E-01 5.268065818E-02 9.320854714E-01
 6.591560841E-01 5.391510390E-02 9.381728147E-01
 6.478948593E-01 5.508457683E-02 9.482707586E-01
 6.364459693E-01 5.622832850E-02 9.612525340E-01
 6.245572567E-01 5.735195242E-02 9.685657857E-01
 6.133463085E-01 5.835139193E-02 9.758549987E-01
 6.019544601E-01 5.931075290E-02 9.843675609E-01
 5.900299251E-01 6.026150286E-02 9.974352700E-01
 5.772355497E-01 6.120248884E-02 9.943394252E-01
 5.637964904E-01 6.210668199E-02 9.964050748E-01
 5.506786406E-01 6.290866435E-02 1.022310096E+00
 5.382609963E-01 6.358556077E-02 1.055198932E+00
 5.263683200E-01 6.417066231E-02 1.071949200E+00
 5.140732825E-01 6.470945850E-02 1.064693052E+00
 5.025166124E-01 6.513477862E-02 1.054959890E+00
 4.907020926E-01 6.549182534E-02 1.052796142E+00
 4.778703749E-01 6.581579521E-02 1.053105308E+00
 4.647856504E-01 6.606766954E-02 1.046211882E+00
 4.509842694E-01 6.623029709E-02 1.031853702E+00
 4.375507981E-01 6.630802527E-02 1.030722046E+00
 4.245225340E-01 6.630442291E-02 1.020983041E+00
 4.116217494E-01 6.622010097E-02 1.015545526E+00
 3.986959159E-01 6.606915593E-02 1.014749395E+00
 3.860008866E-01 6.585233659E-02 1.010428939E+00
 3.741280884E-01 6.557420641E-02 9.998992722E-01
 3.616237044E-01 6.521564350E-02 9.972302359E-01
 3.486532122E-01 6.477696076E-02 9.925459928E-01
 3.361499161E-01 6.427571923E-02 9.861429094E-01
 3.248085529E-01 6.376131624E-02 9.795380897E-01
 3.136975765E-01 6.319946423E-02 9.740557399E-01
 3.016138822E-01 6.253168732E-02 9.693574883E-01
 2.887392938E-01 6.174623221E-02 9.652467287E-01
 2.759258449E-01 6.088574044E-02 9.583204625E-01
 2.639999539E-01 6.001021713E-02 9.514469385E-01
 2.519552857E-01 5.906135589E-02 9.471194943E-01
 2.394795120E-01 5.800106190E-02 9.396483276E-01
 2.271681130E-01 5.687959492E-02 9.349464058E-01
 2.152830362E-01 5.572293513E-02 9.296512641E-01
 2.035209388E-01 5.449710786E-02 9.218875876E-01
 1.914628446E-01 5.316403136E-02 9.171449466E-01
 1.793760657E-01 5.174225569E-02 9.102123745E-01
 1.675737798E-01 5.026379228E-02 9.034876572E-01
 1.557603106E-01 4.869753681E-02 8.975561434E-01
 1.442860141E-01 4.708471335E-02 8.922502113E-01
 1.330484748E-01 4.540232755E-02 8.841331078E-01
 1.217681505E-01 4.360988922E-02 8.756982149E-01
 1.107966341E-01 4.176598601E-02 8.700715316E-01
 1.004178189E-01 3.991350718E-02 8.633556808E-01
 8.999220654E-02 3.792444617E-02 8.542347903E-01
 7.894679904E-02 3.567190468E-02 8.448746683E-01
 6.840720400E-02 3.336464800E-02 8.379612706E-01
 7.171885669E-02 -4.157567024E-02 8.437432326E-01
 9.181794524E-02 -4.639470018E-02 8.683259885E-01
 1.027240902E-01 -4.871801846E-02 8.780390270E-01
 1.141606234E-01 -5.097363517E-02 8.889435658E-01
 1.257674322E-01 -5.309824459E-02 8.990345648E-01
 1.367652938E-01 -5.497557856E-02 9.100745294E-01
 1.476456970E-01 -5.670282431E-02 9.155097870E-01
 1.592440382E-01 -5.843243934E-02 9.241423332E-01
 1.709373966E-01 -6.006550230E-02 9.361137719E-01
 1.824908555E-01 -6.156251580E-02 9.444847287E-01
 1.935366243E-01 -6.289739907E-02 9.515603922E-01
 2.044133618E-01 -6.412664056E-02 9.610095202E-01
 2.160933092E-01 -6.534860283E-02 9.723703425E-01
 2.279466912E-01 -6.648563594E-02 9.808823893E-01
 2.395925075E-01 -6.750720367E-02 9.911544150E-01
 2.514332011E-01 -6.844670698E-02 1.002550568E+00
 2.630838305E-01 -6.927243993E-02 1.013618209E+00
 2.749188989E-01 -7.000482455E-02 1.020451749E+00
 2.871908993E-01 -7.066822425E-02 1.028582042E+00
 2.996044457E-01 -7.122588903E-02 1.047014405E+00
 3.118024170E-01 -7.164778560E-02 1.064389374E+00
 3.238716125E-01 -7.194878533E-02 1.071333497E+00
 3.352317661E-01 -7.214209810E-02 1.083256532E+00
 3.461331278E-01 -7.221044227E-02 1.099835729E+00
 3.575355709E-01 -7.217781246E-02 1.106254362E+00
 3.687032759E-01 -7.204624638E-02 1.119124360E+00
 3.801506460E-01 -7.178363949E-02 1.134427667E+00
 3.924465477E-01 -7.136671245E-02 1.144692565E+00
 4.048963934E-01 -7.082607970E-02 1.147619875E+00
 4.173546135E-01 -7.013959810E-02 1.172784473E+00
 4.299238622E-01 -6.930959597E-02 1.172355420E+00
 4.426231384E-01 -6.834229454E-02 9.567678232E-01
 4.553736895E-01 -6.723869219E-02 9.089698086E-01
 4.679520428E-01 -6.603164598E-02 9.375596435E-01
 4.803919643E-01 -6.472069025E-02 9.277252042E-01
 4.925885350E-01 -6.333352998E-02 9.120141846E-01
 5.053230524E-01 -6.178444624E-02 8.981347265E-01
 5.184410512E-01 -6.009596959E-02 8.800219011E-01
 5.310966074E-01 -5.840452015E-02 8.679969841E-01
 5.440112054E-01 -5.659575202E-02 8.546050450E-01
 5.572750270E-01 -5.465936475E-02 8.368965022E-01
 5.703971386E-01 -5.269034579E-02 8.228071274E-01
 5.836124420E-01 -5.066111311E-02 8.089453531E-01
 5.968573391E-01 -4.859266989E-02 7.959676961E-01
 6.099409163E-01 -4.652836360E-02 7.849355977E-01
 6.231094003E-01 -4.441832565E-02 7.731956480E-01
 6.366100609E-01 -4.224260524E-02 7.622514728E-01
 6.498512626E-01 -4.008551501E-02 7.527821613E-01
 6.630584300E-01 -3.791220859E-02 7.400188708E-01
 6.760858893E-01 -3.577299602E-02 7.308656217E-01
 6.885920465E-01 -3.372306749E-02 7.212772205E-01
 7.022362947E-01 -3.149925824E-02 7.133071848E-01
 7.162470818E-01 -2.921616379E-02 7.045768459E-01
 7.284096777E-01 -2.721093968E-02 6.940824352E-01
 7.406865656E-01 -2.520392928E-02 6.833750083E-01
 7.540040314E-01 -2.307818923E-02 6.767344944E-01
 7.673986852E-01 -2.094656043E-02 6.663951646E-01
 7.806265354E-01 -1.889631711E-02 6.591001051E-01
 7.931981385E-01 -1.695351209E-02 6.505185517E-01
 8.050009012E-01 -1.515455032E-02 6.392398481E-01
 8.161937594E-01 -1.352771698E-02 6.358608812E-01
 8.276430666E-01 -1.186987059E-02 6.258880188E-01
 8.397824764E-01 -1.018196670E-02 6.176488190E-01
 8.519833386E-01 -8.554172236E-03 6.097253183E-01
 8.633242548E-01 -7.105088793E-03 5.995640641E-01
 8.743085861E-01 -5.816424964E-03 5.942485454E-01
 8.861644864E-01 -4.534678999E-03 5.885171687E-01
 8.975552022E-01 -3.411739017E-03 5.818850628E-01
 9.080729485E-01 -2.493573236E-03 5.778645972E-01
 9.187464714E-01 -1.683620620E-03 5.738259340E-01
 9.292028546E-01 -1.019406249E-03 5.717402934E-01
 9.407570362E-01 -4.329744115E-04 5.706721095E-01
 9.544230402E-01 7.455048035E-05 5.695728102E-01
 9.689765871E-01 4.103077081E-04 5.675541884E-01
 9.828422070E-01 5.435557687E-04 5.602012547E-01
 9.945915043E-01 5.360156938E-04 5.469320782E-01
 -5.000000000E-01 9.500000000E-01 7.210947862E-01
 -5.000000000E-01 9.000000000E-01 7.170802602E-01
 -5.000000000E-01 8.500000000E-01 7.140138768E-01
 -5.000000000E-01 8.000000000E-01 7.113256924E-01
 -5.000000000E-01 7.500000000E-01 7.087651952E-01
 -5.000000000E-01 7.000000000E-01 7.062407804E-01
 -5.000000000E-01 6.500000000E-01 7.036910722E-01
 -5.000000000E-01 6.000000000E-01 7.010921862E-01
 -5.000000000E-01 5.500000000E-01 6.984212619E-01
 -5.000000000E-01 5.000000000E-01 6.956837749E-01
 -5.000000000E-01 4.500000000E-01 6.929061385E-01
 -5.000000000E-01 4.000000000E-01 6.901274977E-01
 -5.000000000E-01 3.500000000E-01 6.874136543E-01
 -5.000000000E-01 3.000000000E-01 6.847819042E-01
 -5.000000000E-01 2.500000000E-01 6.823011097E-01
 -5.000000000E-01 2.000000000E-01 6.800945240E-01
 -5.000000000E-01 1.500000000E-01 6.782488698E-01
 -5.000000000E-01 1.000000000E-01 6.768124698E-01
 -5.000000000E-01 5.000000000E-02 6.758883545E-01
 -5.000000000E-01 2.752242878E-12 6.754718613E-01
 -5.000000000E-01 -5.000000000E-02 6.755714393E-01
 -5.000000000E-01 -1.000000000E-01 6.762880715E-01
 -5.000000000E-01 -1.500000000E-01 6.775360743E-01
 -5.000000000E-01 -2.000000000E-01 6.791924327E-01
 -5.000000000E-01 -2.500000000E-01 6.812097503E-01
 -5.000000000E-01 -3.000000000E-01 6.835509203E-01
 -5.000000000E-01 -3.500000000E-01 6.860646074E-01
 -5.000000000E-01 -4.000000000E-01 6.887783907E-01
 -5.000000000E-01 -4.500000000E-01 6.915186556E-01
 -5.000000000E-01 -5.000000000E-01 6.942789684E-01
 -5.000000000E-01 -5.500000000E-01 6.970191184E-01
 -5.000000000E-01 -6.000000000E-01 6.997147406E-01
 -5.000000000E-01 -6.500000000E-01 7.023950798E-01
 -5.000000000E-01 -7.000000000E-01 7.049834464E-01
 -5.000000000E-01 -7.500000000E-01 7.076001444E-01
 -5.000000000E-01 -8.000000000E-01 7.102698910E-01
 -5.000000000E-01 -8.500000000E-01 7.131064057E-01
 -5.000000000E-01 -9.000000000E-01 7.163455794E-01
 -5.000000000E-01 -9.500000000E-01 7.205927228E-01
 -4.500000000E-01 -1.000000000E+00 7.203412244E-01
 -4.000000000E-01 -1.000000000E+00 7.164044411E-01
 -3.500000000E-01 -1.000000000E+00 7.137784410E-01
 -3.000000000E-01 -1.000000000E+00 7.120825289E-01
 -2.500000000E-01 -1.000000000E+00 7.110225288E-01
 -2.000000000E-01 -1.000000000E+00 7.107896122E-01
 -1.500000000E-01 -1.000000000E+00 7.113950390E-01
 -1.000000000E-01 -1.000000000E+00 7.126486585E-01
 -5.000000000E-02 -1.000000000E+00 7.145190818E-01
 -9.424683256E-13 -1.000000000E+00 7.171941846E-01
 5.000000000E-02 -1.000000000E+00 7.205644370E-01
 1.000000000E-01 -1.000000000E+00 7.246418832E-01
 1.500000000E-01 -1.000000000E+00 7.290856291E-01
 2.000000000E-01 -1.000000000E+00 7.337050430E-01
 2.500000000E-01 -1.000000000E+00 7.383370685E-01
 3.000000000E-01 -1.000000000E+00 7.427421640E-01
 3.500000000E-01 -1.000000000E+00 7.466047043E-01
 4.000000000E-01 -1.000000000E+00 7.495601792E-01
 4.500000000E-01 -1.000000000E+00 7.514344574E-01
 5.000000000E-01 -1.000000000E+00 7.524801838E-01
 5.500000000E-01 -1.000000000E+00 7.526022400E-01
 6.000000000E-01 -1.000000000E+00 7.516713810E-01
 6.500000000E-01 -1.000000000E+00 7.502154882E-01
 7.000000000E-01 -1.000000000E+00 7.474155956E-01
 7.500000000E-01 -1.000000000E+00 7.446451802E-01
 8.000000000E-01 -1.000000000E+00 7.416582262E-01
 8.500000000E-01 -1.000000000E+00 7.386193687E-01
 9.000000000E-01 -1.000000000E+00 7.354028144E-01
 9.500000000E-01 -1.000000000E+00 7.321757820E-01
 1.000000000E+00 -1.000000000E+00 7.290669672E-01
 1.050000000E+00 -1.000000000E+00 7.261959977E-01
 1.100000000E+00 -1.000000000E+00 7.236806847E-01
 1.150000000E+00 -1.000000000E+00 7.214414359E-01
 1.200000000E+00 -1.000000000E+00 7.192619621E-01
 1.250000000E+00 -1.000000000E+00 7.175034307E-01
 1.300000000E+00 -1.000000000E+00 7.162303365E-01
 1.350000000E+00 -1.000000000E+00 7.149294755E-01
 1.400000000E+00 -1.000000000E+00 7.141935283E-01
 1.450000000E+00 -1.000000000E+00 7.137145288E-01
 1.500000000E+00 -1.000000000E+00 7.134151920E-01
 1.550000000E+00 -1.000000000E+00 7.131775410E-01
 1.600000000E+00 -1.000000000E+00 7.129977147E-01
 1.650000000E+00 -1.000000000E+00 7.130203108E-01
 1.700000000E+00 -1.000000000E+00 7.132657361E-01
 1.750000000E+00 -1.000000000E+00 7.135268118E-01
 1.800000000E+00 -1.000000000E+00 7.137705018E-01
 1.850000000E+00 -1.000000000E+00 7.140979824E-01
 1.900000000E+00 -1.000000000E+00 7.144322309E-01
 1.950000000E+00 -1.000000000E+00 7.146927445E-01
 2.000000000E+00 -1.000000000E+00 7.150559854E-01
 2.050000000E+00 -1.000000000E+00 7.154586721E-01
 2.100000000E+00 -1.000000000E+00 7.158869960E-01
 2.150000000E+00 -1.000000000E+00 7.160786246E-01
 2.200000000E+00 -1.000000000E+00 7.163271349E-01
 2.250000000E+00 -1.000000000E+00 7.168374118E-01
 2.300000000E+00 -1.000000000E+00 7.172585894E-01
 2.350000000E+00 -1.000000000E+00 7.174164074E-01
 2.400000000E+00 -1.000000000E+00 7.176988830E-01
 2.450000000E+00 -1.000000000E+00 7.181133125E-01
 2.500000000E+00 -1.000000000E+00 7.184023253E-01
 2.550000000E+00 -1.000000000E+00 7.187369174E-01
 2.600000000E+00 -1.000000000E+00 7.189650523E-01
 2.650000000E+00 -1.000000000E+00 7.191123748E-01
 2.700000000E+00 -1.000000000E+00 7.193268644E-01
 2.750000000E+00 -1.000000000E+00 7.195895371E-01
 2.800000000E+00 -1.000000000E+00 7.197730865E-01
 2.850000000E+00 -1.000000000E+00 7.198611533E-01
 2.900000000E+00 -1.000000000E+00 7.199789899E-01
 2.950000000E+00 -1.000000000E+00 7.200665914E-01
 3.000000000E+00 -1.000000000E+00 7.201590785E-01
 3.050000000E+00 -1.000000000E+00 7.202390791E-01
 3.100000000E+00 -1.000000000E+00 7.203147399E-01
 3.150000000E+00 -1.000000000E+00 7.203993531E-01
 3.200000000E+00 -1.000000000E+00 7.205089034E-01
 3.250000000E+00 -1.000000000E+00 7.206562501E-01
 3.300000000E+00 -1.000000000E+00 7.208578708E-01
 3.350000000E+00 -1.000000000E+00 7.212067825E-01
 3.400000000E+00 -1.000000000E+00 7.216998872E-01
 3.450000000E+00 -1.000000000E+00 7.231825450E-01
 3.500000000E+00 -9.500000000E-01 7.288285880E-01
 3.500000000E+00 -9.000000000E-01 7.302164201E-01
 3.500000000E+00 -8.500000000E-01 7.311352049E-01
 3.500000000E+00 -8.000000000E-01 7.316408734E-01
 3.500000000E+00 -7.500000000E-01 7.318973056E-01
 3.500000000E+00 -7.000000000E-01 7.321201853E-01
 3.500000000E+00 -6.500000000E-01 7.323753336E-01
 3.500000000E+00 -6.000000000E-01 7.327193065E-01
 3.500000000E+00 -5.500000000E-01 7.331046375E-01
 3.500000000E+00 -5.000000000E-01 7.335022194E-01
 3.500000000E+00 -4.500000000E-01 7.338981080E-01
 3.500000000E+00 -4.000000000E-01 7.342792939E-01
 3.500000000E+00 -3.500000000E-01 7.346930378E-01
 3.500000000E+00 -3.000000000E-01 7.350902621E-01
 3.500000000E+00 -2.500000000E-01 7.354399708E-01
 3.500000000E+00 -2.000000000E-01 7.356862611E-01
 3.500000000E+00 -1.500000000E-01 7.358090385E-01
 3.500000000E+00 -1.000000000E-01 7.358504960E-01
 3.500000000E+00 -5.000000000E-02 7.358727107E-01
 3.500000000E+00 -2.752242878E-12 7.358802229E-01
 3.500000000E+00 5.000000000E-02 7.358574150E-01
 3.500000000E+00 1.000000000E-01 7.357215989E-01
 3.500000000E+00 1.500000000E-01 7.354568475E-01
 3.500000000E+00 2.000000000E-01 7.351024085E-01
 3.500000000E+00 2.500000000E-01 7.346913022E-01
 3.500000000E+00 3.000000000E-01 7.342915964E-01
 3.500000000E+00 3.500000000E-01 7.339140266E-01
 3.500000000E+00 4.000000000E-01 7.335658053E-01
 3.500000000E+00 4.500000000E-01 7.331730616E-01
 3.500000000E+00 5.000000000E-01 7.327095699E-01
 3.500000000E+00 5.500000000E-01 7.322502809E-01
 3.500000000E+00 6.000000000E-01 7.319695914E-01
 3.500000000E+00 6.500000000E-01 7.320270729E-01
 3.500000000E+00 7.000000000E-01 7.322937058E-01
 3.500000000E+00 7.500000000E-01 7.323367361E-01
 3.500000000E+00 8.000000000E-01 7.315851608E-01
 3.500000000E+00 8.500000000E-01 7.292827573E-01
 3.500000000E+00 9.000000000E-01 7.252952354E-01
 3.500000000E+00 9.500000000E-01 7.198706652E-01
 3.450000000E+00 1.000000000E+00 7.017111057E-01
 3.400000000E+00 1.000000000E+00 6.973331763E-01
 3.350000000E+00 1.000000000E+00 6.964312833E-01
 3.300000000E+00 1.000000000E+00 6.959917498E-01
 3.250000000E+00 1.000000000E+00 6.961478971E-01
 3.200000000E+00 1.000000000E+00 6.962117459E-01
 3.150000000E+00 1.000000000E+00 6.961369983E-01
 3.100000000E+00 1.000000000E+00 6.964951342E-01
 3.050000000E+00 1.000000000E+00 6.971175029E-01
 3.000000000E+00 1.000000000E+00 6.975093913E-01
 2.950000000E+00 1.000000000E+00 6.976773287E-01
 2.900000000E+00 1.000000000E+00 6.978911657E-01
 2.850000000E+00 1.000000000E+00 6.981834886E-01
 2.800000000E+00 1.000000000E+00 6.985136377E-01
 2.750000000E+00 1.000000000E+00 6.988478238E-01
 2.700000000E+00 1.000000000E+00 6.989521809E-01
 2.650000000E+00 1.000000000E+00 6.991655057E-01
 2.600000000E+00 1.000000000E+00 7.000259250E-01
 2.550000000E+00 1.000000000E+00 7.004637003E-01
 2.500000000E+00 1.000000000E+00 7.009326270E-01
 2.450000000E+00 1.000000000E+00 7.010207627E-01
 2.400000000E+00 1.000000000E+00 7.015673279E-01
 2.350000000E+00 1.000000000E+00 7.019139900E-01
 2.300000000E+00 1.000000000E+00 7.024330287E-01
 2.250000000E+00 1.000000000E+00 7.030273636E-01
 2.200000000E+00 1.000000000E+00 7.035810182E-01
 2.150000000E+00 1.000000000E+00 7.040273644E-01
 2.100000000E+00 1.000000000E+00 7.042306633E-01
 2.050000000E+00 1.000000000E+00 7.048680350E-01
 2.000000000E+00 1.000000000E+00 7.059156903E-01
 1.950000000E+00 1.000000000E+00 7.062723048E-01
 1.900000000E+00 1.000000000E+00 7.070026737E-01
 1.850000000E+00 1.000000000E+00 7.076208473E-01
 1.800000000E+00 1.000000000E+00 7.084251361E-01
 1.750000000E+00 1.000000000E+00 7.092504606E-01
 1.700000000E+00 1.000000000E+00 7.102130246E-01
 1.650000000E+00 1.000000000E+00 7.113657097E-01
 1.600000000E+00 1.000000000E+00 7.127344723E-01
 1.550000000E+00 1.000000000E+00 7.142042154E-01
 1.500000000E+00 1.000000000E+00 7.158507645E-01
 1.450000000E+00 1.000000000E+00 7.175914074E-01
 1.400000000E+00 1.000000000E+00 7.196059438E-01
 1.350000000E+00 1.000000000E+00 7.220378915E-01
 1.300000000E+00 1.000000000E+00 7.244369426E-01
 1.250000000E+00 1.000000000E+00 7.270854661E-01
 1.200000000E+00 1.000000000E+00 7.304341320E-01
 1.150000000E+00 1.000000000E+00 7.345593079E-01
 1.100000000E+00 1.000000000E+00 7.376524714E-01
 1.050000000E+00 1.000000000E+00 7.418343425E-01
 1.000000000E+00 1.000000000E+00 7.453665723E-01
 9.500000000E-01 1.000000000E+00 7.491109286E-01
 9.000000000E-01 1.000000000E+00 7.525700499E-01
 8.500000000E-01 1.000000000E+00 7.570359923E-01
 8.000000000E-01 1.000000000E+00 7.602990443E-01
 7.500000000E-01 1.000000000E+00 7.630544221E-01
 7.000000000E-01 1.000000000E+00 7.650068442E-01
 6.500000000E-01 1.000000000E+00 7.659027567E-01
 6.000000000E-01 1.000000000E+00 7.662624989E-01
 5.500000000E-01 1.000000000E+00 7.652475472E-01
 5.000000000E-01 1.000000000E+00 7.651278640E-01
 4.500000000E-01 1.000000000E+00 7.622812030E-01
 4.000000000E-01 1.000000000E+00 7.579686716E-01
 3.500000000E-01 1.000000000E+00 7.540724145E-01
 3.000000000E-01 1.000000000E+00 7.487210097E-01
 2.500000000E-01 1.000000000E+00 7.433169332E-01
 2.000000000E-01 1.000000000E+00 7.380356377E-01
 1.500000000E-01 1.000000000E+00 7.326530972E-01
 1.000000000E-01 1.000000000E+00 7.275149826E-01
 5.000000000E-02 1.000000000E+00 7.230947659E-01
 1.733724275E-12 1.000000000E+00 7.194430948E-01
 -5.000000000E-02 1.000000000E+00 7.165419665E-01
 -1.000000000E-01 1.000000000E+00 7.143923878E-01
 -1.500000000E-01 1.000000000E+00 7.129720816E-01
 -2.000000000E-01 1.000000000E+00 7.123138947E-01
 -2.500000000E-01 1.000000000E+00 7.123723541E-01
 -3.000000000E-01 1.000000000E+00 7.131531955E-01
 -3.500000000E-01 1.000000000E+00 7.146966043E-01
 -4.000000000E-01 1.000000000E+00 7.171173489E-01
 -4.500000000E-01 1.000000000E+00 7.209363400E-01
 9.213226223E-01 -6.097802484E-03 5.774838820E-01
 8.036658601E-01 -2.035830551E-02 6.421968289E-01
 7.320709526E-01 -3.193209601E-02 6.921447284E-01
 6.673598328E-01 -4.317943240E-02 7.390029197E-01
 6.010123506E-01 -5.330891905E-02 7.931946981E-01
 5.349230547E-01 -6.334942243E-02 8.640101805E-01
 4.778741816E-01 -7.009722274E-02 9.294202938E-01
 4.208725464E-01 -7.538684626E-02 1.172797782E+00
 3.661338848E-01 -7.599284400E-02 1.111196310E+00
 3.085313934E-01 -7.676378700E-02 1.055264938E+00
 2.537782888E-01 -7.349017086E-02 1.000863848E+00
 1.954013889E-01 -6.730561702E-02 9.506975270E-01
 1.439419890E-01 -6.113761680E-02 9.098147366E-01
 9.860855573E-01 -3.890215551E-03 5.649550402E-01
 8.610246768E-01 -1.213636165E-02 6.049507025E-01
 9.926467232E-02 -5.308944151E-02 8.698060226E-01