TITLE     = "Visualization of the solution"
VARIABLES = "x"
"y"
"Mach"
ZONE T="Zone"
 STRANDID=0, SOLUTIONTIME=0
 Nodes=12321, Elements=24059, ZONETYPE=FEQuadrilateral
 DATAPACKING=POINT
 DT=(DOUBLE DOUBLE DOUBLE )
 1.000233054E+00 5.086491583E-04 5.278909009E-01
 9.861325026E-01 3.266795771E-03 6.423272066E-01
 9.729307294E-01 5.893305875E-03 6.703705883E-01
 9.570413232E-01 9.100213647E-03 6.996769818E-01
 9.421810508E-01 1.197502948E-02 7.106612844E-01
 9.289190173E-01 1.463366393E-02 7.315786728E-01
 9.174457192E-01 1.689639688E-02 7.470105640E-01
 9.055739045E-01 1.918315142E-02 7.585292058E-01
 8.938207030E-01 2.141578309E-02 7.694595416E-01
 8.818784952E-01 2.366315760E-02 7.823267689E-01
 8.697386980E-01 2.589110471E-02 7.910973223E-01
 8.579456210E-01 2.806164697E-02 8.090428983E-01
 8.458400965E-01 3.016427718E-02 8.114449923E-01
 8.350099921E-01 3.208251670E-02 8.303326336E-01
 8.234057426E-01 3.400594369E-02 8.316034091E-01
 8.111167550E-01 3.603436425E-02 8.415793921E-01
 7.985465527E-01 3.805064410E-02 8.488566949E-01
 7.865877151E-01 3.995149583E-02 8.609581485E-01
 7.741878033E-01 4.183495417E-02 8.640093666E-01
 7.627958655E-01 4.356158897E-02 8.747239591E-01
 7.500680089E-01 4.544801638E-02 8.865479230E-01
 7.366467714E-01 4.735866934E-02 8.939158901E-01
 7.258400321E-01 4.885547981E-02 9.006958553E-01
 7.146908641E-01 5.038071424E-02 9.129346139E-01
 7.029399276E-01 5.191484094E-02 9.173075784E-01
 6.897940636E-01 5.359217897E-02 9.278580219E-01
 6.769642830E-01 5.517984554E-02 9.423436977E-01
 6.661636829E-01 5.645249784E-02 9.485710989E-01
 6.543273926E-01 5.778902024E-02 9.568279794E-01
 6.428785920E-01 5.903990567E-02 9.651351550E-01
 6.308878064E-01 6.026764587E-02 9.704081613E-01
 6.193584204E-01 6.142363697E-02 9.803386470E-01
 6.086981893E-01 6.242441759E-02 9.610013188E-01
 5.963847041E-01 6.347865611E-02 9.666455225E-01
 5.846497416E-01 6.444413215E-02 1.093723831E+00
 5.711139441E-01 6.546028703E-02 1.115613504E+00
 5.585186481E-01 6.633579731E-02 1.104013276E+00
 5.459537506E-01 6.712757051E-02 1.099152183E+00
 5.346356034E-01 6.774743646E-02 1.090535629E+00
 5.224550962E-01 6.833606213E-02 1.089708517E+00
 5.100362301E-01 6.888699532E-02 1.087390765E+00
 4.989277124E-01 6.929609925E-02 1.077437479E+00
 4.857211411E-01 6.970946491E-02 1.071864701E+00
 4.725225568E-01 7.002302259E-02 1.064520395E+00
 4.588966072E-01 7.026802003E-02 1.060655272E+00
 4.455108345E-01 7.043188065E-02 1.051833851E+00
 4.325954020E-01 7.048311830E-02 1.040877821E+00
 4.195804298E-01 7.047256827E-02 1.038376661E+00
 4.071302712E-01 7.038859278E-02 1.028617682E+00
 3.942301869E-01 7.020762563E-02 1.022482112E+00
 3.820132911E-01 6.999363750E-02 1.025261426E+00
 3.701847792E-01 6.971302629E-02 1.013687476E+00
 3.567094505E-01 6.929599494E-02 1.004540833E+00
 3.440888226E-01 6.885618716E-02 1.003194325E+00
 3.311421871E-01 6.831109524E-02 9.952084228E-01
 3.202706873E-01 6.779417396E-02 9.889114454E-01
 3.077975512E-01 6.714415550E-02 9.862052737E-01
 2.946927547E-01 6.637676805E-02 9.781523433E-01
 2.809669971E-01 6.547103822E-02 9.701461676E-01
 2.688046992E-01 6.461112201E-02 9.687901875E-01
 2.570263743E-01 6.369550526E-02 9.619978652E-01
 2.445825636E-01 6.264071912E-02 9.533066537E-01
 2.322893888E-01 6.152775884E-02 9.490147063E-01
 2.201062590E-01 6.034260616E-02 9.434919274E-01
 2.082913965E-01 5.909566954E-02 9.346158004E-01
 1.966226101E-01 5.780262128E-02 9.309034836E-01
 1.845132113E-01 5.635450408E-02 9.232232250E-01
 1.727234423E-01 5.485032871E-02 9.157671976E-01
 1.611410677E-01 5.327446014E-02 9.071103218E-01
 1.494454741E-01 5.158979818E-02 9.016377686E-01
 1.387747377E-01 4.994822294E-02 8.932020658E-01
 1.273010075E-01 4.806977883E-02 8.841146739E-01
 1.162144989E-01 4.614176229E-02 8.767913084E-01
 1.055525839E-01 4.415051639E-02 8.639771725E-01
 9.579118341E-02 4.222688824E-02 8.583479432E-01
 8.497580886E-02 3.993868828E-02 8.466699844E-01
 7.367525995E-02 3.736163676E-02 8.344040891E-01
 6.382898986E-02 3.493242711E-02 8.197967618E-01
 5.432967097E-02 3.239400685E-02 8.062379945E-01
 4.556996003E-02 2.984053828E-02 7.917931838E-01
 3.795384988E-02 2.742124349E-02 7.750162865E-01
 3.126540780E-02 2.509409375E-02 7.554593465E-01
 2.549370378E-02 2.290158719E-02 7.377093329E-01
 2.126758173E-02 2.113965340E-02 7.217805180E-01
 1.725614443E-02 1.933138631E-02 7.044973106E-01
 1.416514348E-02 1.779976487E-02 6.833861872E-01
 1.135336980E-02 1.629024558E-02 6.615513939E-01
 9.279025719E-03 1.506677642E-02 6.433695250E-01
 7.447384298E-03 1.389460545E-02 6.241042889E-01
 5.716436077E-03 1.267650910E-02 5.937988197E-01
 3.491424723E-03 1.088931691E-02 5.450409312E-01
 1.645780285E-03 9.102881886E-03 4.846517368E-01
 1.558244403E-04 7.290779613E-03 4.037523550E-01
 -1.244509942E-03 4.813437350E-03 2.909486445E-01
 -1.844724175E-03 2.886210335E-03 1.729160575E-01
 -2.027657581E-03 1.315358793E-03 6.078061059E-02
 -1.914334367E-03 -4.764043842E-04 5.965756085E-02
 -1.432918711E-03 -2.399756806E-03 1.749960801E-01
 -4.086824192E-04 -4.667114932E-03 2.874135960E-01
 1.166372327E-03 -7.036569528E-03 3.808046559E-01
 3.284628503E-03 -9.460792877E-03 4.639462628E-01
 5.218450911E-03 -1.128795650E-02 5.235488290E-01
 7.452609017E-03 -1.312368084E-02 5.684321682E-01
 9.227523580E-03 -1.443327405E-02 6.032131350E-01
 1.138515957E-02 -1.588709652E-02 6.311225278E-01
 1.383945439E-02 -1.740568504E-02 6.587890733E-01
 1.718051918E-02 -1.928539574E-02 6.887477053E-01
 2.031629533E-02 -2.089411020E-02 7.168576553E-01
 2.431591786E-02 -2.277285606E-02 7.382235010E-01
 2.962063439E-02 -2.502577938E-02 7.618380352E-01
 3.529427201E-02 -2.721206099E-02 7.842528026E-01
 4.218037799E-02 -2.960136160E-02 8.012609317E-01
 4.970165715E-02 -3.197460622E-02 8.181164228E-01
 5.852805078E-02 -3.448492289E-02 8.330527081E-01
 6.729658693E-02 -3.677212074E-02 8.450774488E-01
 7.756321877E-02 -3.921280056E-02 8.579472002E-01
 8.743869513E-02 -4.137127474E-02 8.671177935E-01
 9.791230410E-02 -4.349464551E-02 8.767372834E-01
 1.090591624E-01 -4.557783529E-02 8.838334672E-01
 1.204015017E-01 -4.755473509E-02 8.923273104E-01
 1.321856976E-01 -4.946481436E-02 9.004425170E-01
 1.428389996E-01 -5.108147487E-02 9.092768337E-01
 1.541332453E-01 -5.268365517E-02 9.162547622E-01
 1.662267298E-01 -5.428300425E-02 9.229592267E-01
 1.778892428E-01 -5.572530255E-02 9.316406877E-01
 1.897396445E-01 -5.709441379E-02 9.412644560E-01
 2.004511207E-01 -5.823735520E-02 9.482619168E-01
 2.118750066E-01 -5.937980860E-02 9.568749793E-01
 2.241158634E-01 -6.050187722E-02 9.669427650E-01
 2.363334596E-01 -6.151451543E-02 9.742725347E-01
 2.483773381E-01 -6.242066622E-02 9.821922595E-01
 2.607322335E-01 -6.325420737E-02 9.926061903E-01
 2.719150186E-01 -6.392771006E-02 1.008999778E+00
 2.844792008E-01 -6.455726922E-02 1.018899260E+00
 2.966670692E-01 -6.506044418E-02 1.023089963E+00
 3.093712330E-01 -6.548936665E-02 1.037429763E+00
 3.210703135E-01 -6.575264782E-02 1.050395523E+00
 3.336430192E-01 -6.592898816E-02 1.057539152E+00
 3.443420529E-01 -6.597759575E-02 1.066020431E+00
 3.558200896E-01 -6.593754888E-02 1.075902853E+00
 3.668247461E-01 -6.577740610E-02 1.082433007E+00
 3.778254390E-01 -6.553018093E-02 1.098742281E+00
 3.895592093E-01 -6.512092799E-02 1.103489448E+00
 4.025975466E-01 -6.457035989E-02 1.046821628E+00
 4.147383869E-01 -6.389889866E-02 9.772526564E-01
 4.275719523E-01 -6.306827813E-02 9.764403089E-01
 4.400703311E-01 -6.211886555E-02 9.731772306E-01
 4.524819255E-01 -6.106265262E-02 9.546664939E-01
 4.644460082E-01 -5.992767215E-02 9.349825569E-01
 4.769116938E-01 -5.867231637E-02 9.243015831E-01
 4.887787998E-01 -5.735851079E-02 9.081159380E-01
 5.011263490E-01 -5.588966608E-02 8.868289389E-01
 5.146886706E-01 -5.420073122E-02 8.687047081E-01
 5.281412005E-01 -5.247905105E-02 8.586292959E-01
 5.407193899E-01 -5.075646192E-02 8.399706922E-01
 5.536264181E-01 -4.895125702E-02 8.253837367E-01
 5.668496490E-01 -4.706608504E-02 8.131212305E-01
 5.798740387E-01 -4.515258223E-02 7.984855751E-01
 5.926293135E-01 -4.326753318E-02 7.876854212E-01
 6.053539515E-01 -4.135587066E-02 7.753343933E-01
 6.190750599E-01 -3.928852454E-02 7.650972948E-01
 6.329949498E-01 -3.716983274E-02 7.539726532E-01
 6.469823718E-01 -3.502522036E-02 7.420776788E-01
 6.599500179E-01 -3.304735944E-02 7.327385912E-01
 6.735936999E-01 -3.098696098E-02 7.254918243E-01
 6.860152483E-01 -2.909044921E-02 7.153801496E-01
 6.983797550E-01 -2.722381242E-02 7.079121962E-01
 7.128521800E-01 -2.503370866E-02 6.968180536E-01
 7.261320949E-01 -2.309159562E-02 6.931006462E-01
 7.375370264E-01 -2.136830799E-02 6.799188357E-01
 7.508988380E-01 -1.942906715E-02 6.732082004E-01
 7.635996342E-01 -1.762759127E-02 6.666476594E-01
 7.769851089E-01 -1.575552486E-02 6.590744490E-01
 7.891163826E-01 -1.408287138E-02 6.511983164E-01
 8.018087149E-01 -1.236369181E-02 6.417052246E-01
 8.130233884E-01 -1.091375295E-02 6.361433502E-01
 8.243815899E-01 -9.483793750E-03 6.288457138E-01
 8.370586634E-01 -7.964213379E-03 6.230670085E-01
 8.493390679E-01 -6.537015084E-03 6.144513720E-01
 8.614599705E-01 -5.208557472E-03 6.058409258E-01
 8.727646470E-01 -4.092604388E-03 6.019051055E-01
 8.839744329E-01 -3.054464236E-03 5.951909931E-01
 8.967065811E-01 -2.017735504E-03 5.902876567E-01
 9.068194628E-01 -1.295470400E-03 5.858757293E-01
 9.175707698E-01 -6.468896172E-04 5.830017283E-01
 9.278781414E-01 -1.471803844E-04 5.817373820E-01
 9.374095201E-01 2.314769517E-04 5.805526413E-01
 9.497985244E-01 5.751580466E-04 5.799314336E-01
 9.631482959E-01 7.853071438E-04 5.785321044E-01
 9.766451120E-01 8.274767315E-04 5.758946524E-01
 9.887006283E-01 7.157621440E-04 5.672115454E-01
 -5.000000000E-01 -1.000000000E+00 7.234216440E-01
 3.500000000E+00 -1.000000000E+00 7.277011533E-01
 3.500000000E+00 1.000000000E+00 7.099486946E-01
 -5.000000000E-01 1.000000000E+00 7.236795941E-01
 9.931827784E-01 1.887722465E-03 6.226068838E-01
 9.795316160E-01 4.580050823E-03 6.569059596E-01
 9.649860263E-01 7.496759761E-03 6.854842979E-01
 9.496111870E-01 1.053762157E-02 7.054817520E-01
 9.355500340E-01 1.330434671E-02 7.210500205E-01
 9.231823683E-01 1.576503040E-02 7.399771473E-01
 9.115098119E-01 1.803977415E-02 7.528392593E-01
 8.996973038E-01 2.029946726E-02 7.638383427E-01
 8.878495991E-01 2.253947034E-02 7.763919625E-01
 8.758085966E-01 2.477713116E-02 7.857194277E-01
 8.638421595E-01 2.697637584E-02 8.015273901E-01
 8.518928587E-01 2.911296207E-02 8.087000195E-01
 8.404250443E-01 3.112339694E-02 8.225136422E-01
 8.292078674E-01 3.304423019E-02 8.302798493E-01
 8.172612488E-01 3.502015397E-02 8.368465924E-01
 8.048316538E-01 3.704250418E-02 8.443920910E-01
 7.925671339E-01 3.900106996E-02 8.561104787E-01
 7.803877592E-01 4.089322500E-02 8.619571133E-01
 7.684918344E-01 4.269827157E-02 8.689881350E-01
 7.564319372E-01 4.450480267E-02 8.810723268E-01
 7.433573902E-01 4.640334286E-02 8.904578331E-01
 7.312434018E-01 4.810707457E-02 8.965361402E-01
 7.202654481E-01 4.961809702E-02 9.076409978E-01
 7.088153958E-01 5.114777759E-02 9.150035157E-01
 6.963669956E-01 5.275350995E-02 9.217055097E-01
 6.833791733E-01 5.438601226E-02 9.355180806E-01
 6.715639830E-01 5.581617169E-02 9.461955031E-01
 6.602455378E-01 5.712075904E-02 9.516824735E-01
 6.486029923E-01 5.841446295E-02 9.625685495E-01
 6.368831992E-01 5.965377577E-02 9.658550363E-01
 6.251231134E-01 6.084564142E-02 9.776634148E-01
 6.140283048E-01 6.192402728E-02 9.747109599E-01
 6.025414467E-01 6.295153685E-02 9.506486775E-01
 5.905172229E-01 6.396139413E-02 1.030954807E+00
 5.778818429E-01 6.495220959E-02 1.116849011E+00
 5.648162961E-01 6.589804217E-02 1.108691834E+00
 5.522361994E-01 6.673168391E-02 1.101933926E+00
 5.402946770E-01 6.743750349E-02 1.094519519E+00
 5.285453498E-01 6.804174930E-02 1.088848503E+00
 5.162456632E-01 6.861152872E-02 1.090428684E+00
 5.044819713E-01 6.909154728E-02 1.081724379E+00
 4.923244268E-01 6.950278208E-02 1.075205528E+00
 4.791218489E-01 6.986624375E-02 1.067526389E+00
 4.657095820E-01 7.014552131E-02 1.062670716E+00
 4.522037208E-01 7.034995034E-02 1.057591878E+00
 4.390531182E-01 7.045749947E-02 1.044793075E+00
 4.260879159E-01 7.047784328E-02 1.039831252E+00
 4.133553505E-01 7.043058053E-02 1.034798462E+00
 4.006802291E-01 7.029810920E-02 1.022917840E+00
 3.881217390E-01 7.010063156E-02 1.025068087E+00
 3.760990351E-01 6.985333189E-02 1.021165964E+00
 3.634471148E-01 6.950451061E-02 1.006787506E+00
 3.503991365E-01 6.907609105E-02 1.005037359E+00
 3.376155049E-01 6.858364120E-02 9.989917775E-01
 3.257064372E-01 6.805263460E-02 9.916398794E-01
 3.140341192E-01 6.746916473E-02 9.878308927E-01
 3.012451530E-01 6.676046178E-02 9.831242325E-01
 2.878298759E-01 6.592390314E-02 9.726868118E-01
 2.748858482E-01 6.504108012E-02 9.698702848E-01
 2.629155368E-01 6.415331364E-02 9.661276831E-01
 2.508044690E-01 6.316811219E-02 9.572825255E-01
 2.384359762E-01 6.208423898E-02 9.506908868E-01
 2.261978239E-01 6.093518250E-02 9.472070026E-01
 2.141988277E-01 5.971913785E-02 9.381465918E-01
 2.024570033E-01 5.844914541E-02 9.334409640E-01
 1.905679107E-01 5.707856268E-02 9.268809657E-01
 1.786183268E-01 5.560241640E-02 9.197866326E-01
 1.669322550E-01 5.406239443E-02 9.111895309E-01
 1.552932709E-01 5.243212916E-02 9.042243755E-01
 1.441101059E-01 5.076901056E-02 8.980371724E-01
 1.330378726E-01 4.900900088E-02 8.881850287E-01
 1.217577532E-01 4.710577056E-02 8.809009545E-01
 1.108835414E-01 4.514613934E-02 8.709919869E-01
 9.038349614E-02 4.108278826E-02 8.535055979E-01
 7.932553440E-02 3.865016252E-02 8.393998692E-01
 6.875212491E-02 3.614703193E-02 8.296070878E-01
 7.242990285E-02 -3.799246065E-02 8.524438477E-01
 8.250095695E-02 -4.029203765E-02 8.632024899E-01
 9.267549962E-02 -4.243296012E-02 8.717032246E-01
 1.034857333E-01 -4.453624040E-02 8.805967751E-01
 1.147303320E-01 -4.656628519E-02 8.879510872E-01
 1.262935996E-01 -4.850977473E-02 8.962370441E-01
 1.375123486E-01 -5.027314462E-02 9.052246732E-01
 1.484861225E-01 -5.188256502E-02 9.129165875E-01
 1.601799875E-01 -5.348332971E-02 9.192102769E-01
 1.720579863E-01 -5.500415340E-02 9.274300260E-01
 1.838144436E-01 -5.640985817E-02 9.360964275E-01
 1.950953826E-01 -5.766588449E-02 9.456083948E-01
 2.061630636E-01 -5.880858190E-02 9.518583077E-01
 2.179954350E-01 -5.994084291E-02 9.619460385E-01
 2.302246615E-01 -6.100819632E-02 9.709701635E-01
 2.423553988E-01 -6.196759082E-02 9.779149827E-01
 2.545547858E-01 -6.283743680E-02 9.868974035E-01
 2.663236260E-01 -6.359095871E-02 1.000426139E+00
 2.781971097E-01 -6.424248964E-02 1.015091814E+00
 2.905731350E-01 -6.480885670E-02 1.021193294E+00
 3.030191511E-01 -6.527490541E-02 1.028128334E+00
 3.152207732E-01 -6.562100723E-02 1.045982748E+00
 3.273566663E-01 -6.584081799E-02 1.053268731E+00
 3.389925361E-01 -6.595329195E-02 1.062582829E+00
 3.500810713E-01 -6.595757231E-02 1.069925048E+00
 3.613224179E-01 -6.585747749E-02 1.080490505E+00
 3.723250926E-01 -6.565379351E-02 1.087688621E+00
 3.836923242E-01 -6.532555446E-02 1.106985285E+00
 3.960783780E-01 -6.484564394E-02 1.083665003E+00
 4.086679667E-01 -6.423462927E-02 1.004563544E+00
 4.211551696E-01 -6.348358840E-02 9.712817766E-01
 4.338211417E-01 -6.259357184E-02 9.785759438E-01
 4.462761283E-01 -6.159075908E-02 9.639916425E-01
 4.584639668E-01 -6.049516238E-02 9.449459739E-01
 4.706788510E-01 -5.929999426E-02 9.283455934E-01
 4.828452468E-01 -5.801541358E-02 9.177695708E-01
 4.949525744E-01 -5.662408844E-02 8.974566345E-01
 5.079075098E-01 -5.504519865E-02 8.769857657E-01
 5.214149356E-01 -5.333989114E-02 8.631448658E-01
 5.344302952E-01 -5.161775649E-02 8.504564543E-01
 5.471729040E-01 -4.985385947E-02 8.318530642E-01
 5.602380335E-01 -4.800867103E-02 8.192569081E-01
 5.733618438E-01 -4.610933363E-02 8.059317065E-01
 5.862516761E-01 -4.421005771E-02 7.928357408E-01
 5.989916325E-01 -4.231170192E-02 7.816148323E-01
 6.122145057E-01 -4.032219760E-02 7.701188167E-01
 6.260350049E-01 -3.822917864E-02 7.596039297E-01
 6.399886608E-01 -3.609752655E-02 7.479850615E-01
 6.534661949E-01 -3.403628990E-02 7.371460358E-01
 6.667718589E-01 -3.201716021E-02 7.290013317E-01
 6.798044741E-01 -3.003870510E-02 7.206596651E-01
 6.921975017E-01 -2.815713082E-02 7.115366202E-01
 7.056159675E-01 -2.612876054E-02 7.025208249E-01
 7.194921374E-01 -2.406265214E-02 6.946441276E-01
 7.318345606E-01 -2.222995181E-02 6.869598661E-01
 7.442179322E-01 -2.039868757E-02 6.763166058E-01
 7.572492361E-01 -1.852832921E-02 6.698328272E-01
 7.702923715E-01 -1.669155806E-02 6.630463524E-01
 7.830507457E-01 -1.491919812E-02 6.551589863E-01
 7.954625487E-01 -1.322328160E-02 6.464631368E-01
 8.074160516E-01 -1.163872238E-02 6.386106388E-01
 8.187024891E-01 -1.019877335E-02 6.325294185E-01
 8.307201266E-01 -8.724003565E-03 6.261202389E-01
 8.431988657E-01 -7.250614231E-03 6.188961781E-01
 8.553995192E-01 -5.872786278E-03 6.101279612E-01
 8.671123087E-01 -4.650580930E-03 6.035225867E-01
 8.783695400E-01 -3.573534312E-03 5.984970989E-01
 8.903405070E-01 -2.536099870E-03 5.930963326E-01
 9.017630219E-01 -1.656602952E-03 5.874899744E-01
 9.121951163E-01 -9.711800085E-04 5.845070512E-01
 9.227244556E-01 -3.970350008E-04 5.823028741E-01
 9.436040223E-01 4.033174991E-04 5.800863598E-01
 9.564734101E-01 6.802325952E-04 5.794918874E-01
 9.698967040E-01 8.063919377E-04 5.775908633E-01
 9.826728702E-01 7.716194377E-04 5.719933758E-01
 9.944668412E-01 6.122056511E-04 5.616830500E-01
 -5.000000000E-01 9.500000000E-01 7.211175457E-01
 -5.000000000E-01 9.000000000E-01 7.171127938E-01
 -5.000000000E-01 8.500000000E-01 7.140731188E-01
 -5.000000000E-01 8.000000000E-01 7.113890488E-01
 -5.000000000E-01 7.500000000E-01 7.088169050E-01
 -5.000000000E-01 7.000000000E-01 7.063072689E-01
 -5.000000000E-01 6.500000000E-01 7.037364328E-01
 -5.000000000E-01 6.000000000E-01 7.011436631E-01
 -5.000000000E-01 5.500000000E-01 6.985314392E-01
 -5.000000000E-01 5.000000000E-01 6.957916985E-01
 -5.000000000E-01 4.500000000E-01 6.930223150E-01
 -5.000000000E-01 4.000000000E-01 6.902885895E-01
 -5.000000000E-01 3.500000000E-01 6.875857923E-01
 -5.000000000E-01 3.000000000E-01 6.849931213E-01
 -5.000000000E-01 2.500000000E-01 6.826005988E-01
 -5.000000000E-01 2.000000000E-01 6.805001816E-01
 -5.000000000E-01 1.500000000E-01 6.786974767E-01
 -5.000000000E-01 1.000000000E-01 6.773418135E-01
 -5.000000000E-01 5.000000000E-02 6.764961562E-01
 -5.000000000E-01 2.752242878E-12 6.761578704E-01
 -5.000000000E-01 -5.000000000E-02 6.764013369E-01
 -5.000000000E-01 -1.000000000E-01 6.771641746E-01
 -5.000000000E-01 -1.500000000E-01 6.784145493E-01
 -5.000000000E-01 -2.000000000E-01 6.801317516E-01
 -5.000000000E-01 -2.500000000E-01 6.821671470E-01
 -5.000000000E-01 -3.000000000E-01 6.844610704E-01
 -5.000000000E-01 -3.500000000E-01 6.869778593E-01
 -5.000000000E-01 -4.000000000E-01 6.896080860E-01
 -5.000000000E-01 -4.500000000E-01 6.923220849E-01
 -5.000000000E-01 -5.000000000E-01 6.950055746E-01
 -5.000000000E-01 -5.500000000E-01 6.976899311E-01
 -5.000000000E-01 -6.000000000E-01 7.003365348E-01
 -5.000000000E-01 -6.500000000E-01 7.029267580E-01
 -5.000000000E-01 -7.000000000E-01 7.054494767E-01
 -5.000000000E-01 -7.500000000E-01 7.080385736E-01
 -5.000000000E-01 -8.000000000E-01 7.106484902E-01
 -5.000000000E-01 -8.500000000E-01 7.134176251E-01
 -5.000000000E-01 -9.000000000E-01 7.165736402E-01
 -5.000000000E-01 -9.500000000E-01 7.207554748E-01
 -4.500000000E-01 -1.000000000E+00 7.205832704E-01
 -4.000000000E-01 -1.000000000E+00 7.165584125E-01
 -3.500000000E-01 -1.000000000E+00 7.139283655E-01
 -3.000000000E-01 -1.000000000E+00 7.122529252E-01
 -2.500000000E-01 -1.000000000E+00 7.112789099E-01
 -2.000000000E-01 -1.000000000E+00 7.110043137E-01
 -1.500000000E-01 -1.000000000E+00 7.113910489E-01
 -1.000000000E-01 -1.000000000E+00 7.125556755E-01
 -5.000000000E-02 -1.000000000E+00 7.141811362E-01
 -9.424683256E-13 -1.000000000E+00 7.165059283E-01
 5.000000000E-02 -1.000000000E+00 7.196080169E-01
 1.000000000E-01 -1.000000000E+00 7.232429353E-01
 1.500000000E-01 -1.000000000E+00 7.271506492E-01
 2.000000000E-01 -1.000000000E+00 7.312486804E-01
 2.500000000E-01 -1.000000000E+00 7.353330714E-01
 3.000000000E-01 -1.000000000E+00 7.391078374E-01
 3.500000000E-01 -1.000000000E+00 7.424176860E-01
 4.000000000E-01 -1.000000000E+00 7.449769637E-01
 4.500000000E-01 -1.000000000E+00 7.465795291E-01
 5.000000000E-01 -1.000000000E+00 7.473611012E-01
 5.500000000E-01 -1.000000000E+00 7.473194258E-01
 6.000000000E-01 -1.000000000E+00 7.464749899E-01
 6.500000000E-01 -1.000000000E+00 7.452050647E-01
 7.000000000E-01 -1.000000000E+00 7.431328150E-01
 7.500000000E-01 -1.000000000E+00 7.405538015E-01
 8.000000000E-01 -1.000000000E+00 7.377797374E-01
 8.500000000E-01 -1.000000000E+00 7.349350053E-01
 9.000000000E-01 -1.000000000E+00 7.321095853E-01
 9.500000000E-01 -1.000000000E+00 7.292224094E-01
 1.000000000E+00 -1.000000000E+00 7.264614171E-01
 1.050000000E+00 -1.000000000E+00 7.238620880E-01
 1.100000000E+00 -1.000000000E+00 7.216518202E-01
 1.150000000E+00 -1.000000000E+00 7.196318207E-01
 1.200000000E+00 -1.000000000E+00 7.179087833E-01
 1.250000000E+00 -1.000000000E+00 7.165659935E-01
 1.300000000E+00 -1.000000000E+00 7.154923612E-01
 1.350000000E+00 -1.000000000E+00 7.146481781E-01
 1.400000000E+00 -1.000000000E+00 7.140613725E-01
 1.450000000E+00 -1.000000000E+00 7.136787277E-01
 1.500000000E+00 -1.000000000E+00 7.134685493E-01
 1.550000000E+00 -1.000000000E+00 7.133380388E-01
 1.600000000E+00 -1.000000000E+00 7.133606301E-01
 1.650000000E+00 -1.000000000E+00 7.134308330E-01
 1.700000000E+00 -1.000000000E+00 7.136649103E-01
 1.750000000E+00 -1.000000000E+00 7.139990508E-01
 1.800000000E+00 -1.000000000E+00 7.144085178E-01
 1.850000000E+00 -1.000000000E+00 7.148084955E-01
 1.900000000E+00 -1.000000000E+00 7.152039881E-01
 1.950000000E+00 -1.000000000E+00 7.156025717E-01
 2.000000000E+00 -1.000000000E+00 7.160886428E-01
 2.050000000E+00 -1.000000000E+00 7.165064139E-01
 2.100000000E+00 -1.000000000E+00 7.169563164E-01
 2.150000000E+00 -1.000000000E+00 7.173501414E-01
 2.200000000E+00 -1.000000000E+00 7.177715243E-01
 2.250000000E+00 -1.000000000E+00 7.181927748E-01
 2.300000000E+00 -1.000000000E+00 7.185779611E-01
 2.350000000E+00 -1.000000000E+00 7.189024631E-01
 2.400000000E+00 -1.000000000E+00 7.192776699E-01
 2.450000000E+00 -1.000000000E+00 7.196140061E-01
 2.500000000E+00 -1.000000000E+00 7.198606100E-01
 2.550000000E+00 -1.000000000E+00 7.201469347E-01
 2.600000000E+00 -1.000000000E+00 7.204424910E-01
 2.650000000E+00 -1.000000000E+00 7.207145056E-01
 2.700000000E+00 -1.000000000E+00 7.209908034E-01
 2.750000000E+00 -1.000000000E+00 7.211832919E-01
 2.800000000E+00 -1.000000000E+00 7.213855827E-01
 2.850000000E+00 -1.000000000E+00 7.215445018E-01
 2.900000000E+00 -1.000000000E+00 7.216976688E-01
 2.950000000E+00 -1.000000000E+00 7.218262512E-01
 3.000000000E+00 -1.000000000E+00 7.219531102E-01
 3.050000000E+00 -1.000000000E+00 7.220983362E-01
 3.100000000E+00 -1.000000000E+00 7.222435599E-01
 3.150000000E+00 -1.000000000E+00 7.223893395E-01
 3.200000000E+00 -1.000000000E+00 7.224757851E-01
 3.250000000E+00 -1.000000000E+00 7.226107848E-01
 3.300000000E+00 -1.000000000E+00 7.228322362E-01
 3.350000000E+00 -1.000000000E+00 7.230186820E-01
 3.400000000E+00 -1.000000000E+00 7.235348369E-01
 3.450000000E+00 -1.000000000E+00 7.249124515E-01
 3.500000000E+00 -9.500000000E-01 7.294923720E-01
 3.500000000E+00 -9.000000000E-01 7.304752439E-01
 3.500000000E+00 -8.500000000E-01 7.311212732E-01
 3.500000000E+00 -8.000000000E-01 7.315267668E-01
 3.500000000E+00 -7.500000000E-01 7.318250753E-01
 3.500000000E+00 -7.000000000E-01 7.320758897E-01
 3.500000000E+00 -6.500000000E-01 7.323790078E-01
 3.500000000E+00 -6.000000000E-01 7.327338301E-01
 3.500000000E+00 -5.500000000E-01 7.330973111E-01
 3.500000000E+00 -5.000000000E-01 7.334761523E-01
 3.500000000E+00 -4.500000000E-01 7.338437667E-01
 3.500000000E+00 -4.000000000E-01 7.342232121E-01
 3.500000000E+00 -3.500000000E-01 7.346182351E-01
 3.500000000E+00 -3.000000000E-01 7.350033744E-01
 3.500000000E+00 -2.500000000E-01 7.353687602E-01
 3.500000000E+00 -2.000000000E-01 7.356283446E-01
 3.500000000E+00 -1.500000000E-01 7.357592745E-01
 3.500000000E+00 -1.000000000E-01 7.357790861E-01
 3.500000000E+00 -5.000000000E-02 7.357792207E-01
 3.500000000E+00 -2.752242878E-12 7.357692032E-01
 3.500000000E+00 5.000000000E-02 7.357228253E-01
 3.500000000E+00 1.000000000E-01 7.356102586E-01
 3.500000000E+00 1.500000000E-01 7.353534879E-01
 3.500000000E+00 2.000000000E-01 7.349894410E-01
 3.500000000E+00 2.500000000E-01 7.345946149E-01
 3.500000000E+00 3.000000000E-01 7.342134579E-01
 3.500000000E+00 3.500000000E-01 7.338362989E-01
 3.500000000E+00 4.000000000E-01 7.334457646E-01
 3.500000000E+00 4.500000000E-01 7.330503526E-01
 3.500000000E+00 5.000000000E-01 7.326012532E-01
 3.500000000E+00 5.500000000E-01 7.321390578E-01
 3.500000000E+00 6.000000000E-01 7.318889940E-01
 3.500000000E+00 6.500000000E-01 7.320556399E-01
 3.500000000E+00 7.000000000E-01 7.324882954E-01
 3.500000000E+00 7.500000000E-01 7.325998942E-01
 3.500000000E+00 8.000000000E-01 7.315295389E-01
 3.500000000E+00 8.500000000E-01 7.286055010E-01
 3.500000000E+00 9.000000000E-01 7.240183705E-01
 3.500000000E+00 9.500000000E-01 7.181286427E-01
 3.450000000E+00 1.000000000E+00 6.979434989E-01
 3.400000000E+00 1.000000000E+00 6.930478674E-01
 3.350000000E+00 1.000000000E+00 6.920458391E-01
 3.300000000E+00 1.000000000E+00 6.914519360E-01
 3.250000000E+00 1.000000000E+00 6.913934962E-01
 3.200000000E+00 1.000000000E+00 6.914928588E-01
 3.150000000E+00 1.000000000E+00 6.919207711E-01
 3.100000000E+00 1.000000000E+00 6.920808736E-01
 3.050000000E+00 1.000000000E+00 6.920100352E-01
 3.000000000E+00 1.000000000E+00 6.924302528E-01
 2.950000000E+00 1.000000000E+00 6.928371169E-01
 2.900000000E+00 1.000000000E+00 6.934439836E-01
 2.850000000E+00 1.000000000E+00 6.938422809E-01
 2.800000000E+00 1.000000000E+00 6.945523273E-01
 2.750000000E+00 1.000000000E+00 6.949569091E-01
 2.700000000E+00 1.000000000E+00 6.949247581E-01
 2.650000000E+00 1.000000000E+00 6.954680390E-01
 2.600000000E+00 1.000000000E+00 6.959946189E-01
 2.550000000E+00 1.000000000E+00 6.964232310E-01
 2.500000000E+00 1.000000000E+00 6.968025025E-01
 2.450000000E+00 1.000000000E+00 6.971228499E-01
 2.400000000E+00 1.000000000E+00 6.972806007E-01
 2.350000000E+00 1.000000000E+00 6.975999445E-01
 2.300000000E+00 1.000000000E+00 6.981323786E-01
 2.250000000E+00 1.000000000E+00 6.990559372E-01
 2.200000000E+00 1.000000000E+00 6.995193979E-01
 2.150000000E+00 1.000000000E+00 7.001042606E-01
 2.100000000E+00 1.000000000E+00 7.010609400E-01
 2.050000000E+00 1.000000000E+00 7.014858843E-01
 2.000000000E+00 1.000000000E+00 7.017357524E-01
 1.950000000E+00 1.000000000E+00 7.025610594E-01
 1.900000000E+00 1.000000000E+00 7.031507351E-01
 1.850000000E+00 1.000000000E+00 7.038857233E-01
 1.800000000E+00 1.000000000E+00 7.047866579E-01
 1.750000000E+00 1.000000000E+00 7.058570271E-01
 1.700000000E+00 1.000000000E+00 7.070593083E-01
 1.650000000E+00 1.000000000E+00 7.082868504E-01
 1.600000000E+00 1.000000000E+00 7.101053142E-01
 1.550000000E+00 1.000000000E+00 7.114750132E-01
 1.500000000E+00 1.000000000E+00 7.131994048E-01
 1.450000000E+00 1.000000000E+00 7.151189638E-01
 1.400000000E+00 1.000000000E+00 7.169508809E-01
 1.350000000E+00 1.000000000E+00 7.191989054E-01
 1.300000000E+00 1.000000000E+00 7.217065178E-01
 1.250000000E+00 1.000000000E+00 7.247938160E-01
 1.200000000E+00 1.000000000E+00 7.284755129E-01
 1.150000000E+00 1.000000000E+00 7.312477346E-01
 1.100000000E+00 1.000000000E+00 7.352180174E-01
 1.050000000E+00 1.000000000E+00 7.402538756E-01
 1.000000000E+00 1.000000000E+00 7.453848996E-01
 9.500000000E-01 1.000000000E+00 7.493102855E-01
 9.000000000E-01 1.000000000E+00 7.537665215E-01
 8.500000000E-01 1.000000000E+00 7.576740844E-01
 8.000000000E-01 1.000000000E+00 7.614334320E-01
 7.500000000E-01 1.000000000E+00 7.642311698E-01
 7.000000000E-01 1.000000000E+00 7.660097688E-01
 6.500000000E-01 1.000000000E+00 7.676157544E-01
 6.000000000E-01 1.000000000E+00 7.695490117E-01
 5.500000000E-01 1.000000000E+00 7.688370038E-01
 5.000000000E-01 1.000000000E+00 7.665079651E-01
 4.500000000E-01 1.000000000E+00 7.645634954E-01
 4.000000000E-01 1.000000000E+00 7.607696659E-01
 3.500000000E-01 1.000000000E+00 7.558274656E-01
 3.000000000E-01 1.000000000E+00 7.504550975E-01
 2.500000000E-01 1.000000000E+00 7.447993301E-01
 2.000000000E-01 1.000000000E+00 7.390426239E-01
 1.500000000E-01 1.000000000E+00 7.335139237E-01
 1.000000000E-01 1.000000000E+00 7.282698880E-01
 5.000000000E-02 1.000000000E+00 7.236416781E-01
 1.733724275E-12 1.000000000E+00 7.197927073E-01
 -5.000000000E-02 1.000000000E+00 7.167555130E-01
 -1.000000000E-01 1.000000000E+00 7.145488816E-01
 -1.500000000E-01 1.000000000E+00 7.131361115E-01
 -2.000000000E-01 1.000000000E+00 7.124086392E-01
 -2.500000000E-01 1.000000000E+00 7.124503743E-01
 -3.000000000E-01 1.000000000E+00 7.131988649E-01
 -3.500000000E-01 1.000000000E+00 7.146809622E-01
 -4.000000000E-01 1.000000000E+00 7.171162569E-01
 -4.500000000E-01 1.000000000E+00 7.209648896E-01
 9.095706682E-01 -5.709428926E-03 5.883373117E-01
 8.344242208E-01 -1.325706993E-02 6.260266202E-01
 9.855874526E-01 -4.182494653E-03 5.757860572E-01
 7.615275893E-01 -2.378687821E-02 6.689552712E-01
 6.899146524E-01 -3.397777848E-02 7.139203903E-01
 6.234657994E-01 -4.474262738E-02 7.623511156E-01
 5.577386202E-01 -5.413628547E-02 8.215042995E-01
 4.924890560E-01 -6.223152540E-02 8.998821352E-01
 4.306879282E-01 -6.859886320E-02 9.739094469E-01
 3.751823174E-01 -7.035542695E-02 1.087260048E+00
 3.242014830E-01 -7.046345104E-02 1.048024599E+00
 2.622655158E-01 -6.767535026E-02 9.920748769E-01
 2.077808115E-01 -6.378497709E-02 9.503486340E-01
 1.506159195E-01 -5.717366195E-02 9.103744000E-01
 9.983488888E-02 -4.872834386E-02 8.730688861E-01
 6.123989963E-02 -4.203134525E-02 8.260018545E-01
 2.567122261E-02 -2.838456842E-02 7.282539377E-01