TITLE     = "Visualization of the solution"
VARIABLES = "x"
"y"
"Mach"
ZONE T="Zone"
 STRANDID=0, SOLUTIONTIME=0
 Nodes=12103, Elements=23622, ZONETYPE=FEQuadrilateral
 DATAPACKING=POINT
 DT=(DOUBLE DOUBLE DOUBLE )
 9.998342395E-01 5.080448464E-04 5.304302895E-01
 9.878270030E-01 2.951539122E-03 6.433110838E-01
 9.753000736E-01 5.490633193E-03 6.676627303E-01
 9.596991539E-01 8.749763481E-03 6.970771395E-01
 9.452459216E-01 1.172926370E-02 7.203687335E-01
 9.306207299E-01 1.462066732E-02 7.273161757E-01
 9.191710353E-01 1.698750444E-02 7.488579733E-01
 9.076387286E-01 1.931911707E-02 7.654996563E-01
 8.956570029E-01 2.165203728E-02 7.729402595E-01
 8.840005398E-01 2.396083251E-02 7.950015043E-01
 8.716936707E-01 2.625646628E-02 8.017318860E-01
 8.592252135E-01 2.854784392E-02 8.128940892E-01
 8.464868069E-01 3.083770163E-02 8.258391569E-01
 8.351470232E-01 3.277864307E-02 8.269551909E-01
 8.234581947E-01 3.481440246E-02 8.437781653E-01
 8.105103970E-01 3.695147112E-02 8.477336729E-01
 7.977538705E-01 3.903942928E-02 8.591160622E-01
 7.852179408E-01 4.105110094E-02 8.725166211E-01
 7.725272775E-01 4.298459738E-02 8.752379177E-01
 7.607950568E-01 4.474440590E-02 8.816171290E-01
 7.477644682E-01 4.668423906E-02 8.963281558E-01
 7.341095209E-01 4.863011837E-02 9.042205006E-01
 7.234565616E-01 5.008999258E-02 9.084896056E-01
 7.126939297E-01 5.157931522E-02 9.259800628E-01
 7.009653449E-01 5.307988450E-02 9.236166580E-01
 6.879127622E-01 5.474666879E-02 9.371350413E-01
 6.751122475E-01 5.631021410E-02 9.484966909E-01
 6.648796797E-01 5.750993267E-02 9.551137547E-01
 6.535235643E-01 5.878018215E-02 9.568569321E-01
 6.417680383E-01 6.004045531E-02 9.594970461E-01
 6.301609278E-01 6.125905737E-02 9.493820962E-01
 6.187638044E-01 6.236131862E-02 9.469403859E-01
 6.080670953E-01 6.333101541E-02 1.076837227E+00
 5.955736637E-01 6.440194696E-02 1.138278345E+00
 5.843792558E-01 6.531536579E-02 1.118347575E+00
 5.710140467E-01 6.631021202E-02 1.111960903E+00
 5.588599443E-01 6.711458415E-02 1.103452473E+00
 5.465961695E-01 6.783277541E-02 1.099183836E+00
 5.358631015E-01 6.842345744E-02 1.098581728E+00
 5.245575309E-01 6.898720562E-02 1.090470746E+00
 5.122328401E-01 6.950545311E-02 1.080649803E+00
 5.011822581E-01 6.989639997E-02 1.075447976E+00
 4.883495569E-01 7.029311359E-02 1.068963346E+00
 4.749550223E-01 7.058632374E-02 1.061836039E+00
 4.615443051E-01 7.083545625E-02 1.059173009E+00
 4.482499361E-01 7.096727937E-02 1.047868502E+00
 4.357574284E-01 7.103291154E-02 1.044050990E+00
 4.229258001E-01 7.101839781E-02 1.036041931E+00
 4.106041491E-01 7.093268633E-02 1.028648824E+00
 3.983688056E-01 7.078484446E-02 1.020156140E+00
 3.861042559E-01 7.054913789E-02 1.013680930E+00
 3.744025230E-01 7.029190660E-02 1.015228556E+00
 3.612883389E-01 6.991358101E-02 1.005792763E+00
 3.487419486E-01 6.946816295E-02 9.946567729E-01
 3.356136084E-01 6.893846393E-02 9.911253346E-01
 3.245562613E-01 6.843659282E-02 9.878892397E-01
 3.118349314E-01 6.779150665E-02 9.837634235E-01
 2.987282574E-01 6.703860313E-02 9.740692788E-01
 2.846987545E-01 6.613703817E-02 9.673438692E-01
 2.723504305E-01 6.529054046E-02 9.674463776E-01
 2.603561282E-01 6.436982751E-02 9.577617216E-01
 2.476936430E-01 6.331963092E-02 9.508560835E-01
 2.351429909E-01 6.220739335E-02 9.469671877E-01
 2.227002233E-01 6.100261584E-02 9.384025768E-01
 2.107699960E-01 5.976827443E-02 9.316450815E-01
 1.989959329E-01 5.847528204E-02 9.266097251E-01
 1.865709722E-01 5.700922757E-02 9.189963155E-01
 1.745697558E-01 5.549198389E-02 9.115118225E-01
 1.632978022E-01 5.398057029E-02 9.046394677E-01
 1.514585465E-01 5.228054896E-02 8.954511405E-01
 1.408111304E-01 5.066619441E-02 8.885974958E-01
 1.291046441E-01 4.877394065E-02 8.805338080E-01
 1.177445725E-01 4.680385813E-02 8.699151553E-01
 1.070239395E-01 4.482711479E-02 8.612583979E-01
 9.692683071E-02 4.284393787E-02 8.519804248E-01
 8.576642722E-02 4.049139842E-02 8.382489914E-01
 7.389397919E-02 3.778243065E-02 8.249955383E-01
 6.374175102E-02 3.525817767E-02 8.090694995E-01
 5.373839289E-02 3.256065026E-02 7.908545180E-01
 4.490044713E-02 2.995240502E-02 7.758835172E-01
 3.745651618E-02 2.755722776E-02 7.580516214E-01
 3.087660857E-02 2.523090132E-02 7.370583871E-01
 2.519819140E-02 2.304071374E-02 7.176756436E-01
 2.115688659E-02 2.134570107E-02 6.990894746E-01
 1.728649810E-02 1.958962530E-02 6.790639513E-01
 1.420308277E-02 1.805935986E-02 6.562175813E-01
 1.138193347E-02 1.653181948E-02 6.320721583E-01
 9.316591546E-03 1.531953271E-02 6.085814725E-01
 7.515580859E-03 1.416938193E-02 5.844243496E-01
 5.839285441E-03 1.299918815E-02 5.520209350E-01
 3.616990522E-03 1.124472078E-02 5.039935619E-01
 1.730221556E-03 9.463340975E-03 4.469549673E-01
 2.079424157E-04 7.666715886E-03 3.563729285E-01
 -1.282007899E-03 5.100277718E-03 2.244423555E-01
 -1.872048713E-03 3.157172119E-03 1.001360205E-01
 -2.014031168E-03 1.608706894E-03 2.637723206E-02
 -1.846322091E-03 -2.912820491E-05 1.472490943E-01
 -1.363007119E-03 -1.656459179E-03 2.546340852E-01
 -3.469642252E-04 -3.642527154E-03 3.610561491E-01
 1.146577066E-03 -5.645477213E-03 4.585215486E-01
 3.164597554E-03 -7.694446482E-03 5.337512462E-01
 4.998105112E-03 -9.221501648E-03 5.866283588E-01
 7.114231121E-03 -1.075110119E-02 6.285519811E-01
 8.789755404E-03 -1.182970870E-02 6.619937627E-01
 1.094538346E-02 -1.309673954E-02 6.852619438E-01
 1.333518140E-02 -1.437288895E-02 7.085012438E-01
 1.673995890E-02 -1.601780765E-02 7.319484595E-01
 1.976769976E-02 -1.734086312E-02 7.525812985E-01
 2.375565283E-02 -1.893610880E-02 7.673577364E-01
 2.919454128E-02 -2.089736983E-02 7.841480151E-01
 3.506114706E-02 -2.279722132E-02 7.990397545E-01
 4.225409403E-02 -2.490362152E-02 8.113006970E-01
 5.001195893E-02 -2.695318498E-02 8.216461034E-01
 5.933514237E-02 -2.918751910E-02 8.298032985E-01
 6.831423193E-02 -3.115764819E-02 8.375572641E-01
 7.879126072E-02 -3.326718137E-02 8.442480968E-01
 8.908929676E-02 -3.518757969E-02 8.501635955E-01
 9.939602017E-02 -3.697938845E-02 8.558703636E-01
 1.109408289E-01 -3.885675594E-02 8.620300367E-01
 1.221634448E-01 -4.055906460E-02 8.677751300E-01
 1.341881156E-01 -4.227310419E-02 8.740356386E-01
 1.449418366E-01 -4.371079803E-02 8.793079819E-01
 1.563898921E-01 -4.516543821E-02 8.863457688E-01
 1.688885689E-01 -4.665355384E-02 8.933766564E-01
 1.807071269E-01 -4.796924815E-02 8.999311793E-01
 1.925833821E-01 -4.921200871E-02 9.068286327E-01
 2.034850121E-01 -5.028139800E-02 9.139533604E-01
 2.149134278E-01 -5.132894218E-02 9.202688510E-01
 2.273115218E-01 -5.238959566E-02 9.294302254E-01
 2.400272489E-01 -5.337786674E-02 9.379284073E-01
 2.523589134E-01 -5.424318835E-02 9.443796066E-01
 2.646773458E-01 -5.502698198E-02 9.534951087E-01
 2.756589353E-01 -5.564546958E-02 9.620583907E-01
 2.879965901E-01 -5.625358224E-02 9.694425661E-01
 3.004391789E-01 -5.676935613E-02 9.799135574E-01
 3.131479025E-01 -5.718714371E-02 9.895962969E-01
 3.247383237E-01 -5.745641515E-02 9.927776549E-01
 3.372038901E-01 -5.766436085E-02 1.003019655E+00
 3.478621244E-01 -5.771920830E-02 1.004189660E+00
 3.593612611E-01 -5.772184581E-02 1.011175954E+00
 3.700863719E-01 -5.760022625E-02 1.016106566E+00
 3.806779087E-01 -5.737778544E-02 1.003253260E+00
 3.920099437E-01 -5.706721544E-02 9.986300126E-01
 4.051368237E-01 -5.653909966E-02 9.847962038E-01
 4.172538519E-01 -5.594475567E-02 9.745151081E-01
 4.297826290E-01 -5.518623814E-02 9.590901593E-01
 4.422095716E-01 -5.432958528E-02 9.477246910E-01
 4.539746046E-01 -5.338433385E-02 9.304709502E-01
 4.655734003E-01 -5.237540975E-02 9.176141065E-01
 4.778871834E-01 -5.117418617E-02 8.975501482E-01
 4.892096519E-01 -5.001858249E-02 8.866332621E-01
 5.019583106E-01 -4.860401526E-02 8.684434964E-01
 5.158010125E-01 -4.699001089E-02 8.525732674E-01
 5.292356610E-01 -4.532666877E-02 8.344127020E-01
 5.425222516E-01 -4.365019500E-02 8.230355983E-01
 5.551976562E-01 -4.197032377E-02 8.064881144E-01
 5.687288642E-01 -4.016441107E-02 7.951243501E-01
 5.818043351E-01 -3.837107867E-02 7.820520425E-01
 5.941596627E-01 -3.666646034E-02 7.723192353E-01
 6.067997813E-01 -3.488491848E-02 7.590993923E-01
 6.214445829E-01 -3.283698112E-02 7.490734582E-01
 6.359040141E-01 -3.080823272E-02 7.399338912E-01
 6.507485509E-01 -2.867012843E-02 7.242855324E-01
 6.637472510E-01 -2.686976828E-02 7.194763643E-01
 6.771085858E-01 -2.498487383E-02 7.087383672E-01
 6.894563437E-01 -2.326299995E-02 6.999330828E-01
 7.018623352E-01 -2.157413028E-02 6.942634593E-01
 7.161758542E-01 -1.961161196E-02 6.826436690E-01
 7.297975421E-01 -1.784332842E-02 6.799893479E-01
 7.416102886E-01 -1.627338305E-02 6.702540688E-01
 7.552977800E-01 -1.452497765E-02 6.657809936E-01
 7.668318748E-01 -1.300971396E-02 6.528042997E-01
 7.803907394E-01 -1.135544479E-02 6.489773392E-01
 7.920777202E-01 -9.935471229E-03 6.398399901E-01
 8.049461246E-01 -8.456964977E-03 6.343110831E-01
 8.161292672E-01 -7.232328877E-03 6.302159547E-01
 8.273880482E-01 -6.000692490E-03 6.209464146E-01
 8.404115438E-01 -4.683016799E-03 6.146723545E-01
 8.529784679E-01 -3.513144562E-03 6.094489066E-01
 8.652328253E-01 -2.443733159E-03 6.022601961E-01
 8.768870234E-01 -1.543110935E-03 5.976594425E-01
 8.884950876E-01 -7.366259815E-04 5.926472967E-01
 9.016305804E-01 2.837227476E-05 5.887716195E-01
 9.119814038E-01 5.165442126E-04 5.863250519E-01
 9.222012758E-01 9.096420254E-04 5.836295810E-01
 9.319949746E-01 1.177034108E-03 5.830195250E-01
 9.404804111E-01 1.342037111E-03 5.820378096E-01
 9.522375464E-01 1.448894734E-03 5.816946194E-01
 9.644781351E-01 1.427414711E-03 5.804966872E-01
 9.774191976E-01 1.246439759E-03 5.784054201E-01
 9.894444346E-01 9.378712275E-04 5.691690298E-01
 -5.000000000E-01 -1.000000000E+00 7.236682944E-01
 3.500000000E+00 -1.000000000E+00 7.284909030E-01
 3.500000000E+00 1.000000000E+00 7.086929195E-01
 -5.000000000E-01 1.000000000E+00 7.240700069E-01
 9.938306212E-01 1.729791984E-03 6.185031291E-01
 9.815635383E-01 4.221086157E-03 6.539916596E-01
 9.674996138E-01 7.120198337E-03 6.820724158E-01
 9.524725378E-01 1.023951359E-02 7.104193426E-01
 9.379333258E-01 1.317496551E-02 7.236121956E-01
 9.248958826E-01 1.580408588E-02 7.377294651E-01
 9.134048820E-01 1.815331075E-02 7.583121496E-01
 9.016478658E-01 2.048557717E-02 7.680651869E-01
 8.898287714E-01 2.280643489E-02 7.849292473E-01
 8.778471053E-01 2.510864940E-02 7.983940901E-01
 8.654594421E-01 2.740215510E-02 8.068871063E-01
 8.528560102E-01 2.969277278E-02 8.206194945E-01
 8.408169150E-01 3.180817235E-02 8.248929176E-01
 8.293026090E-01 3.379652277E-02 8.365805301E-01
 8.169842958E-01 3.588293679E-02 8.453686295E-01
 8.041321337E-01 3.799545020E-02 8.526921229E-01
 7.914859056E-01 4.004526511E-02 8.669862511E-01
 7.788726091E-01 4.201784916E-02 8.739315636E-01
 7.666611671E-01 4.386450164E-02 8.774597022E-01
 7.542797625E-01 4.571432248E-02 8.891312552E-01
 7.409369946E-01 4.765717871E-02 9.014118547E-01
 7.287830412E-01 4.936005548E-02 9.038682861E-01
 7.180752456E-01 5.083465390E-02 9.203246750E-01
 7.068296373E-01 5.232959986E-02 9.231796579E-01
 6.944390535E-01 5.391327664E-02 9.302194523E-01
 6.815125048E-01 5.552844144E-02 9.427650138E-01
 6.699959636E-01 5.691007338E-02 9.528798625E-01
 6.592016220E-01 5.814505741E-02 9.562180719E-01
 6.476458013E-01 5.941031873E-02 9.576467103E-01
 6.359644830E-01 6.064975634E-02 9.587423473E-01
 6.244623661E-01 6.181018800E-02 9.387520081E-01
 6.134154499E-01 6.284616701E-02 9.957286866E-01
 6.018203795E-01 6.386648118E-02 1.129984646E+00
 5.899764597E-01 6.485865638E-02 1.128283673E+00
 5.776966512E-01 6.581278890E-02 1.114344199E+00
 5.649369955E-01 6.671239808E-02 1.108021000E+00
 5.527280569E-01 6.747367978E-02 1.099598958E+00
 5.412296355E-01 6.812811643E-02 1.099777461E+00
 5.302103162E-01 6.870533153E-02 1.095738257E+00
 5.183951855E-01 6.924632937E-02 1.084727517E+00
 5.067075491E-01 6.970092654E-02 1.077255588E+00
 4.947659075E-01 7.009475678E-02 1.074270061E+00
 4.816522896E-01 7.043971866E-02 1.062622128E+00
 4.682496637E-01 7.071089000E-02 1.063236761E+00
 4.548971206E-01 7.090136781E-02 1.051804199E+00
 4.420036823E-01 7.100009546E-02 1.046468213E+00
 4.293416142E-01 7.102565467E-02 1.040261320E+00
 4.167649746E-01 7.097554207E-02 1.031943251E+00
 4.044864774E-01 7.085876539E-02 1.025421678E+00
 3.922365308E-01 7.066699117E-02 1.014586029E+00
 3.802533895E-01 7.042052224E-02 1.015928358E+00
 3.678454310E-01 7.010274380E-02 1.011315158E+00
 3.550151438E-01 6.969087198E-02 9.994669065E-01
 3.421777785E-01 6.920331344E-02 9.921567445E-01
 3.300849348E-01 6.868752837E-02 9.897737957E-01
 3.181955963E-01 6.811404973E-02 9.863143288E-01
 3.052815944E-01 6.741505489E-02 9.796126958E-01
 2.917135060E-01 6.658782065E-02 9.688499523E-01
 2.785245925E-01 6.571378931E-02 9.685330268E-01
 2.663532794E-01 6.483018398E-02 9.629625851E-01
 2.540248856E-01 6.384472921E-02 9.534164217E-01
 2.414183170E-01 6.276351213E-02 9.495827824E-01
 2.289216071E-01 6.160500459E-02 9.425885354E-01
 2.167351097E-01 6.038544513E-02 9.346899355E-01
 2.048829645E-01 5.912177823E-02 9.295142246E-01
 1.927834526E-01 5.774225481E-02 9.229547799E-01
 1.805703640E-01 5.625060573E-02 9.148022793E-01
 1.689337790E-01 5.473627709E-02 9.087583248E-01
 1.573781744E-01 5.313055962E-02 8.995225901E-01
 1.461348385E-01 5.147337168E-02 8.923556070E-01
 1.349578872E-01 4.972006753E-02 8.848477020E-01
 1.234246083E-01 4.778889939E-02 8.751194578E-01
 1.123842560E-01 4.581548646E-02 8.653365770E-01
 1.019753851E-01 4.383552633E-02 8.572833228E-01
 9.134662896E-02 4.166766815E-02 8.458032089E-01
 7.983020321E-02 3.913691454E-02 8.310083170E-01
 6.881786510E-02 3.652030416E-02 8.175359803E-01
 5.874007195E-02 3.390941396E-02 8.013849732E-01
 7.355274633E-02 -3.221241478E-02 8.418224233E-01
 8.394027874E-02 -3.422738053E-02 8.473127348E-01
 9.424265847E-02 -3.608348407E-02 8.531975229E-01
 1.051684245E-01 -3.791807219E-02 8.585188851E-01
 1.165521368E-01 -3.970791027E-02 8.653899144E-01
 1.281757802E-01 -4.141608439E-02 8.704391516E-01
 1.395649761E-01 -4.299195111E-02 8.772459302E-01
 1.506658643E-01 -4.443811812E-02 8.823740523E-01
 1.626392305E-01 -4.590949602E-02 8.898540546E-01
 1.747978479E-01 -4.731140099E-02 8.968356030E-01
 1.866452545E-01 -4.859062843E-02 9.031268530E-01
 1.980341971E-01 -4.974670336E-02 9.106693850E-01
 2.091992199E-01 -5.080517009E-02 9.170243343E-01
 2.211124748E-01 -5.185926892E-02 9.242949735E-01
 2.336693853E-01 -5.288373120E-02 9.340154156E-01
 2.461930811E-01 -5.381052755E-02 9.413127911E-01
 2.585181296E-01 -5.463508517E-02 9.483592496E-01
 2.701681405E-01 -5.533622578E-02 9.585255290E-01
 2.818277627E-01 -5.594952591E-02 9.652479862E-01
 2.942178845E-01 -5.651146919E-02 9.744351530E-01
 3.067935407E-01 -5.697824992E-02 9.848996359E-01
 3.189431131E-01 -5.732177943E-02 9.923524338E-01
 3.309711069E-01 -5.756038800E-02 9.958645338E-01
 3.425330073E-01 -5.769178458E-02 1.006688322E+00
 3.536116928E-01 -5.772052705E-02 1.004679844E+00
 3.647238165E-01 -5.766103603E-02 1.016357764E+00
 3.753821403E-01 -5.748900585E-02 1.011069003E+00
 3.863439262E-01 -5.722250044E-02 9.993409826E-01
 3.985733837E-01 -5.680315755E-02 9.932934263E-01
 4.111953378E-01 -5.624192767E-02 9.789052348E-01
 4.235182405E-01 -5.556549691E-02 9.676960460E-01
 4.359961003E-01 -5.475791171E-02 9.524640607E-01
 4.480920881E-01 -5.385695957E-02 9.403978464E-01
 4.597740024E-01 -5.287987180E-02 9.232829119E-01
 4.717302918E-01 -5.177479796E-02 9.083286069E-01
 4.835484177E-01 -5.059638433E-02 8.913683176E-01
 4.955839813E-01 -4.931129888E-02 8.784009647E-01
 5.088796616E-01 -4.779701307E-02 8.599508872E-01
 5.225183368E-01 -4.615833983E-02 8.437682120E-01
 5.358789563E-01 -4.448843189E-02 8.280350959E-01
 5.488599539E-01 -4.281025939E-02 8.154215041E-01
 5.619632602E-01 -4.106736742E-02 8.001794405E-01
 5.752665997E-01 -3.926774487E-02 7.887236223E-01
 5.879819989E-01 -3.751876950E-02 7.769574178E-01
 6.004797220E-01 -3.577568941E-02 7.659846010E-01
 6.141221821E-01 -3.386094980E-02 7.537756812E-01
 6.286742985E-01 -3.182260692E-02 7.445523336E-01
 6.433262825E-01 -2.973918058E-02 7.325093026E-01
 6.572479010E-01 -2.776994836E-02 7.209655936E-01
 6.704279184E-01 -2.592732105E-02 7.147020832E-01
 6.832824647E-01 -2.412393689E-02 7.041013143E-01
 6.956593394E-01 -2.241856512E-02 6.970901228E-01
 7.090190947E-01 -2.059287112E-02 6.886088979E-01
 7.229866982E-01 -1.872747019E-02 6.806483625E-01
 7.357039154E-01 -1.705835573E-02 6.756267518E-01
 7.484540343E-01 -1.539918035E-02 6.679020343E-01
 7.610648274E-01 -1.376734581E-02 6.594549736E-01
 7.736113071E-01 -1.218257938E-02 6.507415592E-01
 7.862342298E-01 -1.064545801E-02 6.444575883E-01
 7.985119224E-01 -9.196218103E-03 6.369311262E-01
 8.105376959E-01 -7.844646927E-03 6.322006200E-01
 8.217586577E-01 -6.616510684E-03 6.257806098E-01
 8.338997960E-01 -5.341854645E-03 6.178872401E-01
 8.466950059E-01 -4.098080681E-03 6.119674690E-01
 8.591056466E-01 -2.978438861E-03 6.058871242E-01
 8.710599244E-01 -1.993422047E-03 5.996517551E-01
 8.826910555E-01 -1.139868458E-03 5.951219580E-01
 8.950628340E-01 -3.541268534E-04 5.910072602E-01
 9.068059921E-01 2.724582437E-04 5.870094098E-01
 9.170913398E-01 7.130931190E-04 5.847195742E-01
 9.463589787E-01 1.395465923E-03 5.818892275E-01
 9.583578408E-01 1.438154723E-03 5.811866218E-01
 9.709486663E-01 1.336927235E-03 5.799240126E-01
 9.834318161E-01 1.092155493E-03 5.740967053E-01
 9.946393371E-01 7.229580369E-04 5.661115796E-01
 -5.000000000E-01 9.500000000E-01 7.216663492E-01
 -5.000000000E-01 9.000000000E-01 7.179315879E-01
 -5.000000000E-01 8.500000000E-01 7.150975495E-01
 -5.000000000E-01 8.000000000E-01 7.125787031E-01
 -5.000000000E-01 7.500000000E-01 7.101851887E-01
 -5.000000000E-01 7.000000000E-01 7.078219619E-01
 -5.000000000E-01 6.500000000E-01 7.054103290E-01
 -5.000000000E-01 6.000000000E-01 7.029755988E-01
 -5.000000000E-01 5.500000000E-01 7.004749443E-01
 -5.000000000E-01 5.000000000E-01 6.979322936E-01
 -5.000000000E-01 4.500000000E-01 6.953413033E-01
 -5.000000000E-01 4.000000000E-01 6.927621635E-01
 -5.000000000E-01 3.500000000E-01 6.902047008E-01
 -5.000000000E-01 3.000000000E-01 6.878123770E-01
 -5.000000000E-01 2.500000000E-01 6.855671777E-01
 -5.000000000E-01 2.000000000E-01 6.835832550E-01
 -5.000000000E-01 1.500000000E-01 6.819522781E-01
 -5.000000000E-01 1.000000000E-01 6.807093407E-01
 -5.000000000E-01 5.000000000E-02 6.799435004E-01
 -5.000000000E-01 2.752242878E-12 6.796679592E-01
 -5.000000000E-01 -5.000000000E-02 6.798830534E-01
 -5.000000000E-01 -1.000000000E-01 6.805938069E-01
 -5.000000000E-01 -1.500000000E-01 6.817648781E-01
 -5.000000000E-01 -2.000000000E-01 6.833313854E-01
 -5.000000000E-01 -2.500000000E-01 6.852102847E-01
 -5.000000000E-01 -3.000000000E-01 6.873413453E-01
 -5.000000000E-01 -3.500000000E-01 6.896255936E-01
 -5.000000000E-01 -4.000000000E-01 6.920555497E-01
 -5.000000000E-01 -4.500000000E-01 6.945285320E-01
 -5.000000000E-01 -5.000000000E-01 6.970202862E-01
 -5.000000000E-01 -5.500000000E-01 6.994748345E-01
 -5.000000000E-01 -6.000000000E-01 7.018866120E-01
 -5.000000000E-01 -6.500000000E-01 7.042894009E-01
 -5.000000000E-01 -7.000000000E-01 7.066700260E-01
 -5.000000000E-01 -7.500000000E-01 7.090883928E-01
 -5.000000000E-01 -8.000000000E-01 7.115340999E-01
 -5.000000000E-01 -8.500000000E-01 7.141234070E-01
 -5.000000000E-01 -9.000000000E-01 7.171393329E-01
 -5.000000000E-01 -9.500000000E-01 7.211163867E-01
 -4.500000000E-01 -1.000000000E+00 7.209511850E-01
 -4.000000000E-01 -1.000000000E+00 7.170383515E-01
 -3.500000000E-01 -1.000000000E+00 7.145442832E-01
 -3.000000000E-01 -1.000000000E+00 7.128323628E-01
 -2.500000000E-01 -1.000000000E+00 7.117810942E-01
 -2.000000000E-01 -1.000000000E+00 7.113757468E-01
 -1.500000000E-01 -1.000000000E+00 7.115296060E-01
 -1.000000000E-01 -1.000000000E+00 7.122731595E-01
 -5.000000000E-02 -1.000000000E+00 7.136352989E-01
 -9.424683256E-13 -1.000000000E+00 7.155445393E-01
 5.000000000E-02 -1.000000000E+00 7.179640092E-01
 1.000000000E-01 -1.000000000E+00 7.207606303E-01
 1.500000000E-01 -1.000000000E+00 7.238082124E-01
 2.000000000E-01 -1.000000000E+00 7.270889668E-01
 2.500000000E-01 -1.000000000E+00 7.304016562E-01
 3.000000000E-01 -1.000000000E+00 7.334708525E-01
 3.500000000E-01 -1.000000000E+00 7.361284995E-01
 4.000000000E-01 -1.000000000E+00 7.381776390E-01
 4.500000000E-01 -1.000000000E+00 7.395984642E-01
 5.000000000E-01 -1.000000000E+00 7.403257388E-01
 5.500000000E-01 -1.000000000E+00 7.403431668E-01
 6.000000000E-01 -1.000000000E+00 7.396635952E-01
 6.500000000E-01 -1.000000000E+00 7.383764639E-01
 7.000000000E-01 -1.000000000E+00 7.366361553E-01
 7.500000000E-01 -1.000000000E+00 7.345020598E-01
 8.000000000E-01 -1.000000000E+00 7.321075296E-01
 8.500000000E-01 -1.000000000E+00 7.295223240E-01
 9.000000000E-01 -1.000000000E+00 7.269156751E-01
 9.500000000E-01 -1.000000000E+00 7.244337689E-01
 1.000000000E+00 -1.000000000E+00 7.220301537E-01
 1.050000000E+00 -1.000000000E+00 7.197683129E-01
 1.100000000E+00 -1.000000000E+00 7.178697947E-01
 1.150000000E+00 -1.000000000E+00 7.162217153E-01
 1.200000000E+00 -1.000000000E+00 7.149140259E-01
 1.250000000E+00 -1.000000000E+00 7.137881436E-01
 1.300000000E+00 -1.000000000E+00 7.129831992E-01
 1.350000000E+00 -1.000000000E+00 7.125035061E-01
 1.400000000E+00 -1.000000000E+00 7.122101872E-01
 1.450000000E+00 -1.000000000E+00 7.120236633E-01
 1.500000000E+00 -1.000000000E+00 7.119975134E-01
 1.550000000E+00 -1.000000000E+00 7.121463682E-01
 1.600000000E+00 -1.000000000E+00 7.123719704E-01
 1.650000000E+00 -1.000000000E+00 7.126825290E-01
 1.700000000E+00 -1.000000000E+00 7.130943353E-01
 1.750000000E+00 -1.000000000E+00 7.135480001E-01
 1.800000000E+00 -1.000000000E+00 7.140634706E-01
 1.850000000E+00 -1.000000000E+00 7.145661891E-01
 1.900000000E+00 -1.000000000E+00 7.150580024E-01
 1.950000000E+00 -1.000000000E+00 7.156241522E-01
 2.000000000E+00 -1.000000000E+00 7.161234369E-01
 2.050000000E+00 -1.000000000E+00 7.166320253E-01
 2.100000000E+00 -1.000000000E+00 7.171117649E-01
 2.150000000E+00 -1.000000000E+00 7.176255425E-01
 2.200000000E+00 -1.000000000E+00 7.181464875E-01
 2.250000000E+00 -1.000000000E+00 7.186569381E-01
 2.300000000E+00 -1.000000000E+00 7.191264026E-01
 2.350000000E+00 -1.000000000E+00 7.195668536E-01
 2.400000000E+00 -1.000000000E+00 7.199868655E-01
 2.450000000E+00 -1.000000000E+00 7.203667031E-01
 2.500000000E+00 -1.000000000E+00 7.207243523E-01
 2.550000000E+00 -1.000000000E+00 7.210409032E-01
 2.600000000E+00 -1.000000000E+00 7.213703893E-01
 2.650000000E+00 -1.000000000E+00 7.216501672E-01
 2.700000000E+00 -1.000000000E+00 7.219192108E-01
 2.750000000E+00 -1.000000000E+00 7.221697890E-01
 2.800000000E+00 -1.000000000E+00 7.224081016E-01
 2.850000000E+00 -1.000000000E+00 7.226252780E-01
 2.900000000E+00 -1.000000000E+00 7.228359010E-01
 2.950000000E+00 -1.000000000E+00 7.230213488E-01
 3.000000000E+00 -1.000000000E+00 7.232040749E-01
 3.050000000E+00 -1.000000000E+00 7.233165417E-01
 3.100000000E+00 -1.000000000E+00 7.234352626E-01
 3.150000000E+00 -1.000000000E+00 7.236509224E-01
 3.200000000E+00 -1.000000000E+00 7.238186785E-01
 3.250000000E+00 -1.000000000E+00 7.239685457E-01
 3.300000000E+00 -1.000000000E+00 7.242459155E-01
 3.350000000E+00 -1.000000000E+00 7.246077845E-01
 3.400000000E+00 -1.000000000E+00 7.251047412E-01
 3.450000000E+00 -1.000000000E+00 7.262690163E-01
 3.500000000E+00 -9.500000000E-01 7.298117792E-01
 3.500000000E+00 -9.000000000E-01 7.304920384E-01
 3.500000000E+00 -8.500000000E-01 7.310024202E-01
 3.500000000E+00 -8.000000000E-01 7.313824673E-01
 3.500000000E+00 -7.500000000E-01 7.316735501E-01
 3.500000000E+00 -7.000000000E-01 7.319647203E-01
 3.500000000E+00 -6.500000000E-01 7.322691952E-01
 3.500000000E+00 -6.000000000E-01 7.325871173E-01
 3.500000000E+00 -5.500000000E-01 7.329238592E-01
 3.500000000E+00 -5.000000000E-01 7.332647333E-01
 3.500000000E+00 -4.500000000E-01 7.336120809E-01
 3.500000000E+00 -4.000000000E-01 7.339633880E-01
 3.500000000E+00 -3.500000000E-01 7.342900480E-01
 3.500000000E+00 -3.000000000E-01 7.346251596E-01
 3.500000000E+00 -2.500000000E-01 7.349438264E-01
 3.500000000E+00 -2.000000000E-01 7.351901219E-01
 3.500000000E+00 -1.500000000E-01 7.353019540E-01
 3.500000000E+00 -1.000000000E-01 7.353163196E-01
 3.500000000E+00 -5.000000000E-02 7.352866770E-01
 3.500000000E+00 -2.752242878E-12 7.352575136E-01
 3.500000000E+00 5.000000000E-02 7.352098625E-01
 3.500000000E+00 1.000000000E-01 7.350795064E-01
 3.500000000E+00 1.500000000E-01 7.348539938E-01
 3.500000000E+00 2.000000000E-01 7.345207734E-01
 3.500000000E+00 2.500000000E-01 7.341483266E-01
 3.500000000E+00 3.000000000E-01 7.337939646E-01
 3.500000000E+00 3.500000000E-01 7.334463688E-01
 3.500000000E+00 4.000000000E-01 7.331085080E-01
 3.500000000E+00 4.500000000E-01 7.327170922E-01
 3.500000000E+00 5.000000000E-01 7.322612186E-01
 3.500000000E+00 5.500000000E-01 7.318583580E-01
 3.500000000E+00 6.000000000E-01 7.317308018E-01
 3.500000000E+00 6.500000000E-01 7.320374367E-01
 3.500000000E+00 7.000000000E-01 7.324992323E-01
 3.500000000E+00 7.500000000E-01 7.325419949E-01
 3.500000000E+00 8.000000000E-01 7.313152743E-01
 3.500000000E+00 8.500000000E-01 7.279075714E-01
 3.500000000E+00 9.000000000E-01 7.226655685E-01
 3.500000000E+00 9.500000000E-01 7.165977987E-01
 3.450000000E+00 1.000000000E+00 6.965942626E-01
 3.400000000E+00 1.000000000E+00 6.911010181E-01
 3.350000000E+00 1.000000000E+00 6.898207248E-01
 3.300000000E+00 1.000000000E+00 6.892553218E-01
 3.250000000E+00 1.000000000E+00 6.891579334E-01
 3.200000000E+00 1.000000000E+00 6.891875941E-01
 3.150000000E+00 1.000000000E+00 6.894585752E-01
 3.100000000E+00 1.000000000E+00 6.899111603E-01
 3.050000000E+00 1.000000000E+00 6.906511183E-01
 3.000000000E+00 1.000000000E+00 6.908352523E-01
 2.950000000E+00 1.000000000E+00 6.911190299E-01
 2.900000000E+00 1.000000000E+00 6.913621791E-01
 2.850000000E+00 1.000000000E+00 6.915010570E-01
 2.800000000E+00 1.000000000E+00 6.918863806E-01
 2.750000000E+00 1.000000000E+00 6.928164081E-01
 2.700000000E+00 1.000000000E+00 6.935070268E-01
 2.650000000E+00 1.000000000E+00 6.938184702E-01
 2.600000000E+00 1.000000000E+00 6.940387984E-01
 2.550000000E+00 1.000000000E+00 6.944532281E-01
 2.500000000E+00 1.000000000E+00 6.949310236E-01
 2.450000000E+00 1.000000000E+00 6.955676202E-01
 2.400000000E+00 1.000000000E+00 6.962448769E-01
 2.350000000E+00 1.000000000E+00 6.965734792E-01
 2.300000000E+00 1.000000000E+00 6.970788324E-01
 2.250000000E+00 1.000000000E+00 6.975055423E-01
 2.200000000E+00 1.000000000E+00 6.980990088E-01
 2.150000000E+00 1.000000000E+00 6.987855076E-01
 2.100000000E+00 1.000000000E+00 6.994865046E-01
 2.050000000E+00 1.000000000E+00 6.999349369E-01
 2.000000000E+00 1.000000000E+00 7.007051166E-01
 1.950000000E+00 1.000000000E+00 7.013385215E-01
 1.900000000E+00 1.000000000E+00 7.022002793E-01
 1.850000000E+00 1.000000000E+00 7.029469885E-01
 1.800000000E+00 1.000000000E+00 7.040048667E-01
 1.750000000E+00 1.000000000E+00 7.049890515E-01
 1.700000000E+00 1.000000000E+00 7.060936596E-01
 1.650000000E+00 1.000000000E+00 7.072945790E-01
 1.600000000E+00 1.000000000E+00 7.088676809E-01
 1.550000000E+00 1.000000000E+00 7.103991911E-01
 1.500000000E+00 1.000000000E+00 7.121790862E-01
 1.450000000E+00 1.000000000E+00 7.139760353E-01
 1.400000000E+00 1.000000000E+00 7.160330641E-01
 1.350000000E+00 1.000000000E+00 7.188253321E-01
 1.300000000E+00 1.000000000E+00 7.217881538E-01
 1.250000000E+00 1.000000000E+00 7.248387364E-01
 1.200000000E+00 1.000000000E+00 7.280811291E-01
 1.150000000E+00 1.000000000E+00 7.318205670E-01
 1.100000000E+00 1.000000000E+00 7.360040083E-01
 1.050000000E+00 1.000000000E+00 7.401547679E-01
 1.000000000E+00 1.000000000E+00 7.440518405E-01
 9.500000000E-01 1.000000000E+00 7.479850728E-01
 9.000000000E-01 1.000000000E+00 7.523126231E-01
 8.500000000E-01 1.000000000E+00 7.558218570E-01
 8.000000000E-01 1.000000000E+00 7.601164776E-01
 7.500000000E-01 1.000000000E+00 7.623154271E-01
 7.000000000E-01 1.000000000E+00 7.670146569E-01
 6.500000000E-01 1.000000000E+00 7.687399719E-01
 6.000000000E-01 1.000000000E+00 7.684466678E-01
 5.500000000E-01 1.000000000E+00 7.680827290E-01
 5.000000000E-01 1.000000000E+00 7.684537896E-01
 4.500000000E-01 1.000000000E+00 7.656573609E-01
 4.000000000E-01 1.000000000E+00 7.613678293E-01
 3.500000000E-01 1.000000000E+00 7.566762548E-01
 3.000000000E-01 1.000000000E+00 7.512379637E-01
 2.500000000E-01 1.000000000E+00 7.453019434E-01
 2.000000000E-01 1.000000000E+00 7.398599936E-01
 1.500000000E-01 1.000000000E+00 7.345311387E-01
 1.000000000E-01 1.000000000E+00 7.294261505E-01
 5.000000000E-02 1.000000000E+00 7.249851779E-01
 1.733724275E-12 1.000000000E+00 7.212064324E-01
 -5.000000000E-02 1.000000000E+00 7.181695793E-01
 -1.000000000E-01 1.000000000E+00 7.158924731E-01
 -1.500000000E-01 1.000000000E+00 7.144040045E-01
 -2.000000000E-01 1.000000000E+00 7.136759732E-01
 -2.500000000E-01 1.000000000E+00 7.136965611E-01
 -3.000000000E-01 1.000000000E+00 7.143621737E-01
 -3.500000000E-01 1.000000000E+00 7.157299014E-01
 -4.000000000E-01 1.000000000E+00 7.179909035E-01
 -4.500000000E-01 1.000000000E+00 7.215144448E-01
 9.863135667E-01 -3.839168866E-03 5.778232761E-01
 9.049941424E-01 -4.021537733E-03 5.901274686E-01
 8.248894311E-01 -1.113408876E-02 6.250957632E-01
 7.525172093E-01 -2.005177442E-02 6.671074578E-01
 6.809411185E-01 -2.990114134E-02 7.068449553E-01
 6.102426132E-01 -4.024680609E-02 7.576888065E-01
 5.458721422E-01 -4.933813990E-02 8.182790237E-01
 4.868456212E-01 -5.515226082E-02 8.867046228E-01
 4.329003772E-01 -6.048503342E-02 9.522073503E-01
 3.739786427E-01 -6.252826593E-02 1.007659998E+00
 3.159642674E-01 -6.283647238E-02 9.865663595E-01
 2.547688642E-01 -5.959174094E-02 9.431797316E-01
 1.948457305E-01 -5.419990026E-02 9.059254577E-01
 1.363767942E-01 -4.709698583E-02 8.729163547E-01
 9.074267401E-02 -4.006810148E-02 8.469751506E-01
 5.374106066E-02 -3.564966107E-02 8.110534962E-01