TITLE     = "Visualization of the solution"
VARIABLES = "x"
"y"
"Mach"
ZONE T="Zone"
 STRANDID=0, SOLUTIONTIME=0
 Nodes=12169, Elements=23758, ZONETYPE=FEQuadrilateral
 DATAPACKING=POINT
 DT=(DOUBLE DOUBLE DOUBLE )
 1.000179172E+00 5.229339586E-04 5.786059847E-01
 9.912391305E-01 2.363014966E-03 6.596399387E-01
 9.797518849E-01 4.634148441E-03 6.815455426E-01
 9.641300440E-01 7.820747793E-03 7.095143190E-01
 9.492687583E-01 1.081731170E-02 7.298844089E-01
 9.329763055E-01 1.408923231E-02 7.506249832E-01
 9.215628505E-01 1.633465104E-02 7.614693538E-01
 9.102015495E-01 1.861273311E-02 7.842232710E-01
 8.992486000E-01 2.071597427E-02 7.974128879E-01
 8.876355290E-01 2.284891345E-02 8.035072245E-01
 8.756644130E-01 2.504927851E-02 8.207594161E-01
 8.629498482E-01 2.726240829E-02 8.274715887E-01
 8.498286009E-01 2.950283885E-02 8.406591634E-01
 8.397019506E-01 3.114794940E-02 8.423288006E-01
 8.277426362E-01 3.306078911E-02 8.470080132E-01
 8.146946430E-01 3.513077646E-02 8.581617741E-01
 8.018714190E-01 3.710444272E-02 8.660984807E-01
 7.884103656E-01 3.911032900E-02 8.706074745E-01
 7.758454680E-01 4.095732421E-02 8.795119525E-01
 7.634105086E-01 4.275865853E-02 8.911845934E-01
 7.493088841E-01 4.470485449E-02 8.944758583E-01
 7.346022129E-01 4.670165107E-02 9.049673182E-01
 7.238489389E-01 4.813997447E-02 9.177544062E-01
 7.127947211E-01 4.954694957E-02 9.197274356E-01
 7.011306286E-01 5.100946501E-02 9.285886636E-01
 6.871516705E-01 5.271577835E-02 9.431552671E-01
 6.740856171E-01 5.422813818E-02 9.523302927E-01
 6.649537683E-01 5.523942038E-02 9.534098697E-01
 6.535801888E-01 5.645272508E-02 9.585963254E-01
 6.415019631E-01 5.772878975E-02 9.778817035E-01
 6.294864416E-01 5.890552700E-02 9.759303088E-01
 6.179493070E-01 5.996762961E-02 9.569656958E-01
 6.072055697E-01 6.093163788E-02 9.612022306E-01
 5.939699411E-01 6.202831119E-02 1.063844134E+00
 5.826728940E-01 6.288982928E-02 1.112255543E+00
 5.691908002E-01 6.385577470E-02 1.099488184E+00
 5.569734573E-01 6.463164091E-02 1.094933564E+00
 5.455014110E-01 6.531863660E-02 1.095131711E+00
 5.352447033E-01 6.585521251E-02 1.084877519E+00
 5.242363214E-01 6.636941433E-02 1.081966922E+00
 5.121591687E-01 6.687747687E-02 1.077982064E+00
 5.007421970E-01 6.727965921E-02 1.070276202E+00
 4.875824451E-01 6.768464297E-02 1.065200169E+00
 4.736447036E-01 6.801246852E-02 1.053093995E+00
 4.594233632E-01 6.824120134E-02 1.042607414E+00
 4.462369382E-01 6.836800277E-02 1.032947720E+00
 4.333234727E-01 6.840243191E-02 1.025810099E+00
 4.209089875E-01 6.838162988E-02 1.026021840E+00
 4.086866677E-01 6.829778105E-02 1.022260678E+00
 3.976259232E-01 6.815660745E-02 1.011241245E+00
 3.852119744E-01 6.792823970E-02 1.006500776E+00
 3.745777011E-01 6.769916415E-02 1.001849032E+00
 3.617580831E-01 6.732621044E-02 9.907921407E-01
 3.490773737E-01 6.691385061E-02 9.894590728E-01
 3.358059824E-01 6.639897823E-02 9.859760204E-01
 3.242095411E-01 6.588245183E-02 9.785357060E-01
 3.111574650E-01 6.521915644E-02 9.690979823E-01
 2.977116406E-01 6.446807832E-02 9.630472653E-01
 2.834013999E-01 6.358253211E-02 9.590343914E-01
 2.710023522E-01 6.273526698E-02 9.538292121E-01
 2.587619722E-01 6.182158366E-02 9.468460674E-01
 2.462317646E-01 6.080672890E-02 9.401224917E-01
 2.338645160E-01 5.973350629E-02 9.348857801E-01
 2.212149203E-01 5.854408070E-02 9.284305421E-01
 2.097163945E-01 5.738481507E-02 9.210704393E-01
 1.979016662E-01 5.611006171E-02 9.130998811E-01
 1.855496019E-01 5.470420420E-02 9.085537105E-01
 1.736098230E-01 5.323652551E-02 8.998532270E-01
 1.628261805E-01 5.183783919E-02 8.932391891E-01
 1.507026553E-01 5.016529933E-02 8.871192932E-01
 1.402302980E-01 4.861837626E-02 8.782548839E-01
 1.285894364E-01 4.679150134E-02 8.690152370E-01
 1.172349602E-01 4.488891736E-02 8.599930776E-01
 1.067627743E-01 4.301598296E-02 8.503408064E-01
 9.677126259E-02 4.111263528E-02 8.395054612E-01
 8.565412462E-02 3.885471821E-02 8.274414013E-01
 7.350092381E-02 3.616257384E-02 8.123519340E-01
 6.351435930E-02 3.375326842E-02 7.962670985E-01
 5.309881642E-02 3.101930022E-02 7.768472158E-01
 4.481675476E-02 2.862758934E-02 7.599409427E-01
 3.784712031E-02 2.643946931E-02 7.410067483E-01
 3.152851388E-02 2.428918332E-02 7.195035858E-01
 2.585967071E-02 2.217081934E-02 6.986650271E-01
 2.180833183E-02 2.052110620E-02 6.768041625E-01
 1.785930619E-02 1.877844892E-02 6.523724940E-01
 1.471647527E-02 1.726922952E-02 6.262199211E-01
 1.178466901E-02 1.572727039E-02 5.985645171E-01
 9.539957158E-03 1.444799732E-02 5.713942406E-01
 7.674320601E-03 1.328453422E-02 5.448164709E-01
 6.045415998E-03 1.218028367E-02 5.085057778E-01
 3.898987314E-03 1.054993365E-02 4.517243820E-01
 1.922503230E-03 8.779376745E-03 3.890280688E-01
 2.724287042E-04 6.927449256E-03 2.883980696E-01
 -1.353398431E-03 4.215713590E-03 1.359268250E-01
 -1.894674264E-03 2.301219152E-03 2.226354843E-02
 -1.941671711E-03 8.838742506E-04 1.678335793E-01
 -1.698596869E-03 -4.266803153E-04 3.012224552E-01
 -1.242809813E-03 -1.588218496E-03 4.205473177E-01
 -3.558928729E-04 -2.992671682E-03 5.314745943E-01
 8.534870576E-04 -4.327466246E-03 6.229401584E-01
 2.524578013E-03 -5.716133863E-03 6.925069733E-01
 4.122859333E-03 -6.787095219E-03 7.386639169E-01
 5.833272822E-03 -7.761355489E-03 7.667531557E-01
 7.338454016E-03 -8.519672789E-03 7.886458304E-01
 9.356101975E-03 -9.424746968E-03 8.008036191E-01
 1.166466717E-02 -1.035084203E-02 8.080713601E-01
 1.492536627E-02 -1.150811277E-02 8.163931729E-01
 1.764999889E-02 -1.237514708E-02 8.246751493E-01
 2.123254724E-02 -1.340870280E-02 8.227439584E-01
 2.664387226E-02 -1.480504218E-02 8.205815575E-01
 3.264403343E-02 -1.618018933E-02 8.217167030E-01
 4.013537988E-02 -1.771101728E-02 8.207082445E-01
 4.782131687E-02 -1.913369633E-02 8.195612739E-01
 5.743944272E-02 -2.074805647E-02 8.185876108E-01
 6.640335172E-02 -2.213146351E-02 8.198348499E-01
 7.657052577E-02 -2.358858474E-02 8.202892539E-01
 8.700946718E-02 -2.498251572E-02 8.212486668E-01
 9.709684551E-02 -2.625470236E-02 8.237701965E-01
 1.082818806E-01 -2.758184634E-02 8.254865250E-01
 1.199477166E-01 -2.889040299E-02 8.284044252E-01
 1.319961846E-01 -3.016372025E-02 8.310395379E-01
 1.430154741E-01 -3.127478436E-02 8.352581229E-01
 1.544360667E-01 -3.236512095E-02 8.383270028E-01
 1.671081930E-01 -3.351212293E-02 8.422042410E-01
 1.789247096E-01 -3.452727571E-02 8.471479849E-01
 1.910904795E-01 -3.551076353E-02 8.512726448E-01
 2.020552158E-01 -3.635012731E-02 8.559340095E-01
 2.133606076E-01 -3.716678545E-02 8.607764614E-01
 2.253945023E-01 -3.797562793E-02 8.653016909E-01
 2.385538220E-01 -3.879485279E-02 8.705224259E-01
 2.511613369E-01 -3.951474279E-02 8.764218335E-01
 2.636355758E-01 -4.016097263E-02 8.826694565E-01
 2.748025060E-01 -4.067622870E-02 8.881486888E-01
 2.874545455E-01 -4.118613526E-02 8.931644460E-01
 2.995895147E-01 -4.159493372E-02 8.977410367E-01
 3.121905625E-01 -4.194311425E-02 9.031980010E-01
 3.241289854E-01 -4.218598828E-02 9.076837583E-01
 3.362276554E-01 -4.234254733E-02 9.097346483E-01
 3.473107517E-01 -4.241846129E-02 9.156839318E-01
 3.580582440E-01 -4.239599779E-02 9.150547454E-01
 3.680910766E-01 -4.231341556E-02 9.156260001E-01
 3.783188760E-01 -4.214706272E-02 9.160551291E-01
 3.896654248E-01 -4.186462611E-02 9.093953419E-01
 4.028525352E-01 -4.143703729E-02 9.058870372E-01
 4.151432514E-01 -4.091467708E-02 9.002733845E-01
 4.273730814E-01 -4.027777910E-02 8.904731258E-01
 4.393059313E-01 -3.955865279E-02 8.814921040E-01
 4.501800239E-01 -3.881045058E-02 8.711687366E-01
 4.614449441E-01 -3.795453534E-02 8.592386163E-01
 4.732061923E-01 -3.698077053E-02 8.469960863E-01
 4.839395285E-01 -3.603539243E-02 8.371860526E-01
 4.967521429E-01 -3.481408581E-02 8.209806948E-01
 5.106153488E-01 -3.344362974E-02 8.087721252E-01
 5.246226192E-01 -3.199391812E-02 7.966643829E-01
 5.390108228E-01 -3.044007160E-02 7.840245928E-01
 5.509179831E-01 -2.910509892E-02 7.710993939E-01
 5.643136501E-01 -2.760148980E-02 7.617623663E-01
 5.768345594E-01 -2.616787329E-02 7.517615333E-01
 5.878207684E-01 -2.489494346E-02 7.425427083E-01
 6.002209783E-01 -2.345205471E-02 7.330707188E-01
 6.158133149E-01 -2.166060172E-02 7.251227087E-01
 6.309183240E-01 -1.989245601E-02 7.131126854E-01
 6.476200819E-01 -1.797621138E-02 7.042716619E-01
 6.607391834E-01 -1.648384705E-02 6.968163080E-01
 6.739799976E-01 -1.497462206E-02 6.876071927E-01
 6.866261363E-01 -1.358378213E-02 6.830519735E-01
 6.992624998E-01 -1.217910927E-02 6.741116110E-01
 7.138870358E-01 -1.063120086E-02 6.701680156E-01
 7.267759442E-01 -9.227409028E-03 6.581330131E-01
 7.399572730E-01 -7.914604619E-03 6.568362471E-01
 7.530809045E-01 -6.584419869E-03 6.482385927E-01
 7.643566132E-01 -5.471070297E-03 6.408402817E-01
 7.769703865E-01 -4.295147490E-03 6.355831561E-01
 7.884471416E-01 -3.273755778E-03 6.311184350E-01
 8.009691834E-01 -2.179810079E-03 6.226273759E-01
 8.122802377E-01 -1.288454398E-03 6.196096924E-01
 8.241022825E-01 -3.873608366E-04 6.128081190E-01
 8.372474909E-01 5.198816070E-04 6.073027821E-01
 8.495874405E-01 1.282011159E-03 6.019134098E-01
 8.614129424E-01 1.913595363E-03 5.979750641E-01
 8.734710813E-01 2.470151056E-03 5.928913357E-01
 8.865615726E-01 2.924297703E-03 5.901965015E-01
 8.997088671E-01 3.238243051E-03 5.875004912E-01
 9.101912975E-01 3.375301370E-03 5.861935306E-01
 9.199174643E-01 3.413732629E-03 5.858949570E-01
 9.287159443E-01 3.376552602E-03 5.852719554E-01
 9.359080791E-01 3.292717738E-03 5.855011971E-01
 9.463270307E-01 3.087378806E-03 5.868718301E-01
 9.578905106E-01 2.765264828E-03 5.868218830E-01
 9.735277295E-01 2.140247729E-03 5.871092449E-01
 9.868052602E-01 1.425314927E-03 5.839593603E-01
 -5.000000000E-01 -1.000000000E+00 7.242757806E-01
 3.500000000E+00 -1.000000000E+00 7.287521801E-01
 3.500000000E+00 1.000000000E+00 7.081579580E-01
 -5.000000000E-01 1.000000000E+00 7.249204178E-01
 9.854955077E-01 3.498581704E-03 6.714980228E-01
 9.719409645E-01 6.227448117E-03 6.965993684E-01
 9.566994011E-01 9.319029748E-03 7.200210575E-01
 9.411225319E-01 1.245327201E-02 7.408728418E-01
 9.272695780E-01 1.521194167E-02 7.557061496E-01
 9.158822000E-01 1.747369207E-02 7.729831099E-01
 9.047250748E-01 1.966435369E-02 7.921503670E-01
 8.934420645E-01 2.178244386E-02 7.994389159E-01
 8.816499710E-01 2.394909598E-02 8.130425376E-01
 8.693071306E-01 2.615584340E-02 8.237073365E-01
 8.563892245E-01 2.838262357E-02 8.344880311E-01
 8.447652757E-01 3.032539412E-02 8.420480308E-01
 8.337222934E-01 3.210436925E-02 8.438274423E-01
 8.212186396E-01 3.409578279E-02 8.525600456E-01
 8.082830310E-01 3.611760959E-02 8.626789471E-01
 7.951408923E-01 3.810738586E-02 8.681419135E-01
 7.821279168E-01 4.003382660E-02 8.742063827E-01
 7.696279883E-01 4.185799137E-02 8.866242734E-01
 7.563596964E-01 4.373175651E-02 8.925253183E-01
 7.419555485E-01 4.570325278E-02 8.983364023E-01
 7.292255759E-01 4.742081277E-02 9.130576396E-01
 7.183218300E-01 4.884346202E-02 9.184510982E-01
 7.069626749E-01 5.027820729E-02 9.233226865E-01
 6.941411495E-01 5.186262168E-02 9.360227030E-01
 6.806186438E-01 5.347195826E-02 9.483310526E-01
 6.592669785E-01 5.584607273E-02 9.534206311E-01
 6.475410759E-01 5.709075741E-02 9.695957350E-01
 6.354942024E-01 5.831715837E-02 9.795519471E-01
 6.237178743E-01 5.943657830E-02 9.670371029E-01
 6.125774384E-01 6.044963375E-02 9.515821757E-01
 6.005877554E-01 6.147997454E-02 1.001766586E+00
 5.883214176E-01 6.245907024E-02 1.103743741E+00
 5.759318471E-01 6.337280199E-02 1.107096583E+00
 5.630821288E-01 6.424370781E-02 1.094307789E+00
 5.512374341E-01 6.497513875E-02 1.097278390E+00
 5.403730571E-01 6.558692455E-02 1.089506212E+00
 5.297405124E-01 6.611231342E-02 1.082670491E+00
 5.181977451E-01 6.662344560E-02 1.081213000E+00
 5.064506829E-01 6.707856804E-02 1.073109201E+00
 4.941623211E-01 6.748215109E-02 1.068960432E+00
 4.806135744E-01 6.784855574E-02 1.059318071E+00
 4.665340334E-01 6.812683493E-02 1.047283914E+00
 4.528301507E-01 6.830460206E-02 1.038118661E+00
 4.397802055E-01 6.838521734E-02 1.027775918E+00
 4.271162301E-01 6.839203089E-02 1.025978053E+00
 4.147978276E-01 6.833970547E-02 1.024974928E+00
 4.031562954E-01 6.822719425E-02 1.017297496E+00
 3.914189488E-01 6.804242358E-02 1.006880774E+00
 3.798948377E-01 6.781370193E-02 1.006745209E+00
 3.681678921E-01 6.751268730E-02 9.944738047E-01
 3.554177284E-01 6.712003052E-02 9.904341236E-01
 3.424416780E-01 6.665641442E-02 9.875875288E-01
 3.300077617E-01 6.614071503E-02 9.832816274E-01
 3.176835030E-01 6.555080414E-02 9.733029367E-01
 3.044345528E-01 6.484361738E-02 9.659501924E-01
 2.905565202E-01 6.402530521E-02 9.607070478E-01
 2.772018760E-01 6.315889955E-02 9.567081700E-01
 2.648821622E-01 6.227842532E-02 9.506273871E-01
 2.524968684E-01 6.131415628E-02 9.430184435E-01
 2.400481403E-01 6.027011760E-02 9.378897764E-01
 2.275397182E-01 5.913879350E-02 9.313968017E-01
 2.154656574E-01 5.796444789E-02 9.252300703E-01
 2.038090304E-01 5.674743839E-02 9.165107873E-01
 1.917256340E-01 5.540713295E-02 9.113830061E-01
 1.795797125E-01 5.397036485E-02 9.037106659E-01
 1.682180017E-01 5.253718235E-02 8.969522369E-01
 1.567644179E-01 5.100156926E-02 8.899557306E-01
 1.454664767E-01 4.939183779E-02 8.831376113E-01
 1.344098672E-01 4.770493880E-02 8.737258933E-01
 1.229121983E-01 4.584020935E-02 8.642469117E-01
 1.119988672E-01 4.395245016E-02 8.553058248E-01
 1.017670184E-01 4.206430912E-02 8.452127024E-01
 9.121269360E-02 3.998367675E-02 8.346313869E-01
 7.957752421E-02 3.750864603E-02 8.190632960E-01
 6.850764155E-02 3.495792113E-02 8.049950884E-01
 5.830658786E-02 3.238628432E-02 7.883204029E-01
 7.148693874E-02 -2.286002412E-02 8.203079983E-01
 8.178999647E-02 -2.428555023E-02 8.207233660E-01
 9.205315635E-02 -2.561860904E-02 8.225140782E-01
 1.026893631E-01 -2.691827435E-02 8.244993431E-01
 1.141147986E-01 -2.823612466E-02 8.269055763E-01
 1.259719506E-01 -2.952706162E-02 8.296601953E-01
 1.375058293E-01 -3.071925230E-02 8.331781139E-01
 1.487257704E-01 -3.181995265E-02 8.368701394E-01
 1.607721299E-01 -3.293862194E-02 8.399856142E-01
 1.730164513E-01 -3.401969932E-02 8.447053203E-01
 1.850075945E-01 -3.501901962E-02 8.492557903E-01
 1.965728477E-01 -3.593044542E-02 8.536429200E-01
 2.077079117E-01 -3.675845638E-02 8.582800474E-01
 2.193775550E-01 -3.757120669E-02 8.630608783E-01
 2.319741622E-01 -3.838524036E-02 8.677124353E-01
 2.448575795E-01 -3.915479779E-02 8.734845330E-01
 2.573984563E-01 -3.983785771E-02 8.794585523E-01
 2.692190409E-01 -4.041860066E-02 8.857929497E-01
 2.811285257E-01 -4.093118198E-02 8.903768506E-01
 2.935220301E-01 -4.139053449E-02 8.957703316E-01
 3.058900386E-01 -4.176902398E-02 9.000254402E-01
 3.181597739E-01 -4.206455126E-02 9.059303359E-01
 3.301783204E-01 -4.226426780E-02 9.086191872E-01
 3.417692035E-01 -4.238050431E-02 9.125511720E-01
 3.526844978E-01 -4.240722954E-02 9.163125189E-01
 3.732049763E-01 -4.223023914E-02 9.170491198E-01
 3.839921504E-01 -4.200584441E-02 9.130721290E-01
 3.962589800E-01 -4.165083170E-02 9.068127622E-01
 4.089978933E-01 -4.117585719E-02 9.040205187E-01
 4.212581664E-01 -4.059622809E-02 8.955537795E-01
 4.333395064E-01 -3.991821595E-02 8.858106841E-01
 4.447429776E-01 -3.918455169E-02 8.768759479E-01
 4.558124840E-01 -3.838249296E-02 8.652622819E-01
 4.673255682E-01 -3.746765293E-02 8.529382487E-01
 4.785728604E-01 -3.650808148E-02 8.424310751E-01
 4.903458357E-01 -3.542473912E-02 8.293883055E-01
 5.036837459E-01 -3.412885778E-02 8.144092996E-01
 5.176189840E-01 -3.271877393E-02 8.029112655E-01
 5.318167210E-01 -3.121699486E-02 7.901780810E-01
 5.449644029E-01 -2.977258526E-02 7.777953802E-01
 5.576158166E-01 -2.835329436E-02 7.660005356E-01
 5.705741048E-01 -2.688468155E-02 7.568491466E-01
 5.823276639E-01 -2.553140838E-02 7.471227172E-01
 5.940208733E-01 -2.417349909E-02 7.377683446E-01
 6.080171466E-01 -2.255632821E-02 7.290815505E-01
 6.233658195E-01 -2.077652887E-02 7.193208852E-01
 6.392692029E-01 -1.893433370E-02 7.084567730E-01
 6.541796327E-01 -1.723002922E-02 7.003395253E-01
 6.673595905E-01 -1.572923455E-02 6.922581966E-01
 6.803030670E-01 -1.427920209E-02 6.851106794E-01
 6.929443181E-01 -1.288144570E-02 6.787255069E-01
 7.065747678E-01 -1.140515506E-02 6.721139597E-01
 7.203314900E-01 -9.929304942E-03 6.643556230E-01
 7.333666086E-01 -8.571006823E-03 6.569337947E-01
 7.465190887E-01 -7.249512244E-03 6.530858155E-01
 7.587187588E-01 -6.027745083E-03 6.442421480E-01
 7.706634998E-01 -4.883108893E-03 6.381793762E-01
 7.827087641E-01 -3.784451634E-03 6.333583461E-01
 7.947081625E-01 -2.726782928E-03 6.271015511E-01
 8.066247106E-01 -1.734132238E-03 6.207248067E-01
 8.181912601E-01 -8.379076171E-04 6.163975050E-01
 8.306748867E-01 6.626038521E-05 6.101676476E-01
 8.434174657E-01 9.009463829E-04 6.044518218E-01
 8.555001915E-01 1.597803261E-03 5.998267942E-01
 8.674420118E-01 2.191873209E-03 5.953497498E-01
 8.800163269E-01 2.697224380E-03 5.914906665E-01
 8.931352198E-01 3.081270377E-03 5.888541336E-01
 9.049500823E-01 3.306772211E-03 5.863390254E-01
 9.411175549E-01 3.190048272E-03 5.864779491E-01
 9.521087706E-01 2.926321817E-03 5.867195210E-01
 9.657091200E-01 2.452756278E-03 5.877262681E-01
 9.801664948E-01 1.782781328E-03 5.849013286E-01
 9.934922159E-01 9.741244430E-04 5.859614648E-01
 -5.000000000E-01 9.500000000E-01 7.229405521E-01
 -5.000000000E-01 9.000000000E-01 7.198532585E-01
 -5.000000000E-01 8.500000000E-01 7.174474901E-01
 -5.000000000E-01 8.000000000E-01 7.153764192E-01
 -5.000000000E-01 7.500000000E-01 7.133086886E-01
 -5.000000000E-01 7.000000000E-01 7.113187982E-01
 -5.000000000E-01 6.500000000E-01 7.092497768E-01
 -5.000000000E-01 6.000000000E-01 7.071346218E-01
 -5.000000000E-01 5.500000000E-01 7.049712039E-01
 -5.000000000E-01 5.000000000E-01 7.027556310E-01
 -5.000000000E-01 4.500000000E-01 7.005158763E-01
 -5.000000000E-01 4.000000000E-01 6.982903199E-01
 -5.000000000E-01 3.500000000E-01 6.961052911E-01
 -5.000000000E-01 3.000000000E-01 6.939997156E-01
 -5.000000000E-01 2.500000000E-01 6.920685821E-01
 -5.000000000E-01 2.000000000E-01 6.903717606E-01
 -5.000000000E-01 1.500000000E-01 6.889481325E-01
 -5.000000000E-01 1.000000000E-01 6.879319927E-01
 -5.000000000E-01 5.000000000E-02 6.872300860E-01
 -5.000000000E-01 2.752242878E-12 6.869773236E-01
 -5.000000000E-01 -5.000000000E-02 6.871692362E-01
 -5.000000000E-01 -1.000000000E-01 6.877491430E-01
 -5.000000000E-01 -1.500000000E-01 6.887071215E-01
 -5.000000000E-01 -2.000000000E-01 6.899970019E-01
 -5.000000000E-01 -2.500000000E-01 6.915282889E-01
 -5.000000000E-01 -3.000000000E-01 6.932734072E-01
 -5.000000000E-01 -3.500000000E-01 6.952107611E-01
 -5.000000000E-01 -4.000000000E-01 6.971820691E-01
 -5.000000000E-01 -4.500000000E-01 6.992025965E-01
 -5.000000000E-01 -5.000000000E-01 7.012503745E-01
 -5.000000000E-01 -5.500000000E-01 7.032881028E-01
 -5.000000000E-01 -6.000000000E-01 7.052982700E-01
 -5.000000000E-01 -6.500000000E-01 7.073526750E-01
 -5.000000000E-01 -7.000000000E-01 7.093694667E-01
 -5.000000000E-01 -7.500000000E-01 7.113994428E-01
 -5.000000000E-01 -8.000000000E-01 7.135261991E-01
 -5.000000000E-01 -8.500000000E-01 7.158361993E-01
 -5.000000000E-01 -9.000000000E-01 7.184901131E-01
 -5.000000000E-01 -9.500000000E-01 7.220133098E-01
 -4.500000000E-01 -1.000000000E+00 7.218495115E-01
 -4.000000000E-01 -1.000000000E+00 7.183550069E-01
 -3.500000000E-01 -1.000000000E+00 7.160117798E-01
 -3.000000000E-01 -1.000000000E+00 7.143953282E-01
 -2.500000000E-01 -1.000000000E+00 7.132596196E-01
 -2.000000000E-01 -1.000000000E+00 7.126320984E-01
 -1.500000000E-01 -1.000000000E+00 7.124772715E-01
 -1.000000000E-01 -1.000000000E+00 7.126910422E-01
 -5.000000000E-02 -1.000000000E+00 7.133836518E-01
 -9.424683256E-13 -1.000000000E+00 7.144623472E-01
 5.000000000E-02 -1.000000000E+00 7.158901196E-01
 1.000000000E-01 -1.000000000E+00 7.174817368E-01
 1.500000000E-01 -1.000000000E+00 7.192745642E-01
 2.000000000E-01 -1.000000000E+00 7.211863391E-01
 2.500000000E-01 -1.000000000E+00 7.230234560E-01
 3.000000000E-01 -1.000000000E+00 7.246634035E-01
 3.500000000E-01 -1.000000000E+00 7.260235023E-01
 4.000000000E-01 -1.000000000E+00 7.269744831E-01
 4.500000000E-01 -1.000000000E+00 7.275512811E-01
 5.000000000E-01 -1.000000000E+00 7.275778661E-01
 5.500000000E-01 -1.000000000E+00 7.271386479E-01
 6.000000000E-01 -1.000000000E+00 7.262116369E-01
 6.500000000E-01 -1.000000000E+00 7.248774901E-01
 7.000000000E-01 -1.000000000E+00 7.232232644E-01
 7.500000000E-01 -1.000000000E+00 7.213419482E-01
 8.000000000E-01 -1.000000000E+00 7.193702057E-01
 8.500000000E-01 -1.000000000E+00 7.173628477E-01
 9.000000000E-01 -1.000000000E+00 7.152972296E-01
 9.500000000E-01 -1.000000000E+00 7.134020498E-01
 1.000000000E+00 -1.000000000E+00 7.116803085E-01
 1.050000000E+00 -1.000000000E+00 7.102055828E-01
 1.100000000E+00 -1.000000000E+00 7.089865148E-01
 1.150000000E+00 -1.000000000E+00 7.080133346E-01
 1.200000000E+00 -1.000000000E+00 7.073196910E-01
 1.250000000E+00 -1.000000000E+00 7.068525136E-01
 1.300000000E+00 -1.000000000E+00 7.066073961E-01
 1.350000000E+00 -1.000000000E+00 7.065603300E-01
 1.400000000E+00 -1.000000000E+00 7.066872641E-01
 1.450000000E+00 -1.000000000E+00 7.069602140E-01
 1.500000000E+00 -1.000000000E+00 7.073271771E-01
 1.550000000E+00 -1.000000000E+00 7.078069366E-01
 1.600000000E+00 -1.000000000E+00 7.083889150E-01
 1.650000000E+00 -1.000000000E+00 7.090715210E-01
 1.700000000E+00 -1.000000000E+00 7.097737557E-01
 1.750000000E+00 -1.000000000E+00 7.104514104E-01
 1.800000000E+00 -1.000000000E+00 7.111086498E-01
 1.850000000E+00 -1.000000000E+00 7.118122564E-01
 1.900000000E+00 -1.000000000E+00 7.125644600E-01
 1.950000000E+00 -1.000000000E+00 7.133014552E-01
 2.000000000E+00 -1.000000000E+00 7.140039954E-01
 2.050000000E+00 -1.000000000E+00 7.147062843E-01
 2.100000000E+00 -1.000000000E+00 7.154031932E-01
 2.150000000E+00 -1.000000000E+00 7.160592709E-01
 2.200000000E+00 -1.000000000E+00 7.166788499E-01
 2.250000000E+00 -1.000000000E+00 7.172752665E-01
 2.300000000E+00 -1.000000000E+00 7.178305609E-01
 2.350000000E+00 -1.000000000E+00 7.183472588E-01
 2.400000000E+00 -1.000000000E+00 7.188732764E-01
 2.450000000E+00 -1.000000000E+00 7.193628998E-01
 2.500000000E+00 -1.000000000E+00 7.198007128E-01
 2.550000000E+00 -1.000000000E+00 7.202893250E-01
 2.600000000E+00 -1.000000000E+00 7.207434699E-01
 2.650000000E+00 -1.000000000E+00 7.211492017E-01
 2.700000000E+00 -1.000000000E+00 7.215075944E-01
 2.750000000E+00 -1.000000000E+00 7.218051448E-01
 2.800000000E+00 -1.000000000E+00 7.221157825E-01
 2.850000000E+00 -1.000000000E+00 7.223980920E-01
 2.900000000E+00 -1.000000000E+00 7.226925282E-01
 2.950000000E+00 -1.000000000E+00 7.229968980E-01
 3.000000000E+00 -1.000000000E+00 7.232165499E-01
 3.050000000E+00 -1.000000000E+00 7.234270094E-01
 3.100000000E+00 -1.000000000E+00 7.236682070E-01
 3.150000000E+00 -1.000000000E+00 7.239016506E-01
 3.200000000E+00 -1.000000000E+00 7.241148083E-01
 3.250000000E+00 -1.000000000E+00 7.243476460E-01
 3.300000000E+00 -1.000000000E+00 7.246538222E-01
 3.350000000E+00 -1.000000000E+00 7.250493713E-01
 3.400000000E+00 -1.000000000E+00 7.255947566E-01
 3.450000000E+00 -1.000000000E+00 7.267292053E-01
 3.500000000E+00 -9.500000000E-01 7.299042187E-01
 3.500000000E+00 -9.000000000E-01 7.304395097E-01
 3.500000000E+00 -8.500000000E-01 7.308340523E-01
 3.500000000E+00 -8.000000000E-01 7.311671673E-01
 3.500000000E+00 -7.500000000E-01 7.314262287E-01
 3.500000000E+00 -7.000000000E-01 7.316676679E-01
 3.500000000E+00 -6.500000000E-01 7.319329758E-01
 3.500000000E+00 -6.000000000E-01 7.322044690E-01
 3.500000000E+00 -5.500000000E-01 7.324683560E-01
 3.500000000E+00 -5.000000000E-01 7.327427204E-01
 3.500000000E+00 -4.500000000E-01 7.330148748E-01
 3.500000000E+00 -4.000000000E-01 7.332893727E-01
 3.500000000E+00 -3.500000000E-01 7.335719096E-01
 3.500000000E+00 -3.000000000E-01 7.338379842E-01
 3.500000000E+00 -2.500000000E-01 7.340751466E-01
 3.500000000E+00 -2.000000000E-01 7.342295520E-01
 3.500000000E+00 -1.500000000E-01 7.342790199E-01
 3.500000000E+00 -1.000000000E-01 7.342530967E-01
 3.500000000E+00 -5.000000000E-02 7.342632892E-01
 3.500000000E+00 -2.752242878E-12 7.342852754E-01
 3.500000000E+00 5.000000000E-02 7.342248579E-01
 3.500000000E+00 1.000000000E-01 7.340981877E-01
 3.500000000E+00 1.500000000E-01 7.338728267E-01
 3.500000000E+00 2.000000000E-01 7.335660569E-01
 3.500000000E+00 2.500000000E-01 7.332506158E-01
 3.500000000E+00 3.000000000E-01 7.329690532E-01
 3.500000000E+00 3.500000000E-01 7.326803550E-01
 3.500000000E+00 4.000000000E-01 7.323725731E-01
 3.500000000E+00 4.500000000E-01 7.320210406E-01
 3.500000000E+00 5.000000000E-01 7.316182863E-01
 3.500000000E+00 5.500000000E-01 7.312500918E-01
 3.500000000E+00 6.000000000E-01 7.311837003E-01
 3.500000000E+00 6.500000000E-01 7.316518885E-01
 3.500000000E+00 7.000000000E-01 7.323085787E-01
 3.500000000E+00 7.500000000E-01 7.321912375E-01
 3.500000000E+00 8.000000000E-01 7.303611701E-01
 3.500000000E+00 8.500000000E-01 7.266419096E-01
 3.500000000E+00 9.000000000E-01 7.214335393E-01
 3.500000000E+00 9.500000000E-01 7.156730081E-01
 3.450000000E+00 1.000000000E+00 6.964482911E-01
 3.400000000E+00 1.000000000E+00 6.909597959E-01
 3.350000000E+00 1.000000000E+00 6.896230360E-01
 3.300000000E+00 1.000000000E+00 6.888466469E-01
 3.250000000E+00 1.000000000E+00 6.883709019E-01
 3.200000000E+00 1.000000000E+00 6.882007217E-01
 3.150000000E+00 1.000000000E+00 6.891624375E-01
 3.100000000E+00 1.000000000E+00 6.897404763E-01
 3.050000000E+00 1.000000000E+00 6.898706022E-01
 3.000000000E+00 1.000000000E+00 6.904200687E-01
 2.950000000E+00 1.000000000E+00 6.910332440E-01
 2.900000000E+00 1.000000000E+00 6.915384325E-01
 2.850000000E+00 1.000000000E+00 6.917804641E-01
 2.800000000E+00 1.000000000E+00 6.922276696E-01
 2.750000000E+00 1.000000000E+00 6.927109250E-01
 2.700000000E+00 1.000000000E+00 6.928564557E-01
 2.650000000E+00 1.000000000E+00 6.933409372E-01
 2.600000000E+00 1.000000000E+00 6.937039502E-01
 2.550000000E+00 1.000000000E+00 6.943284568E-01
 2.500000000E+00 1.000000000E+00 6.945982082E-01
 2.450000000E+00 1.000000000E+00 6.949203372E-01
 2.400000000E+00 1.000000000E+00 6.957636586E-01
 2.350000000E+00 1.000000000E+00 6.968119193E-01
 2.300000000E+00 1.000000000E+00 6.970182136E-01
 2.250000000E+00 1.000000000E+00 6.974226683E-01
 2.200000000E+00 1.000000000E+00 6.979883726E-01
 2.150000000E+00 1.000000000E+00 6.986824498E-01
 2.100000000E+00 1.000000000E+00 6.995348106E-01
 2.050000000E+00 1.000000000E+00 6.999253468E-01
 2.000000000E+00 1.000000000E+00 7.005464465E-01
 1.950000000E+00 1.000000000E+00 7.017964425E-01
 1.900000000E+00 1.000000000E+00 7.022159805E-01
 1.850000000E+00 1.000000000E+00 7.031717347E-01
 1.800000000E+00 1.000000000E+00 7.049885047E-01
 1.750000000E+00 1.000000000E+00 7.059366121E-01
 1.700000000E+00 1.000000000E+00 7.067544090E-01
 1.650000000E+00 1.000000000E+00 7.074786114E-01
 1.600000000E+00 1.000000000E+00 7.094664879E-01
 1.550000000E+00 1.000000000E+00 7.114318706E-01
 1.500000000E+00 1.000000000E+00 7.136178679E-01
 1.450000000E+00 1.000000000E+00 7.154985404E-01
 1.400000000E+00 1.000000000E+00 7.173347328E-01
 1.350000000E+00 1.000000000E+00 7.184708645E-01
 1.300000000E+00 1.000000000E+00 7.212941423E-01
 1.250000000E+00 1.000000000E+00 7.253857239E-01
 1.200000000E+00 1.000000000E+00 7.281768598E-01
 1.150000000E+00 1.000000000E+00 7.317615195E-01
 1.100000000E+00 1.000000000E+00 7.356244778E-01
 1.050000000E+00 1.000000000E+00 7.402612092E-01
 1.000000000E+00 1.000000000E+00 7.458936148E-01
 9.500000000E-01 1.000000000E+00 7.492707439E-01
 9.000000000E-01 1.000000000E+00 7.531430448E-01
 8.500000000E-01 1.000000000E+00 7.569531894E-01
 8.000000000E-01 1.000000000E+00 7.610012465E-01
 7.500000000E-01 1.000000000E+00 7.657285374E-01
 7.000000000E-01 1.000000000E+00 7.673211411E-01
 6.500000000E-01 1.000000000E+00 7.689924726E-01
 6.000000000E-01 1.000000000E+00 7.696903942E-01
 5.500000000E-01 1.000000000E+00 7.695666383E-01
 5.000000000E-01 1.000000000E+00 7.681351411E-01
 4.500000000E-01 1.000000000E+00 7.657099792E-01
 4.000000000E-01 1.000000000E+00 7.621368077E-01
 3.500000000E-01 1.000000000E+00 7.568400353E-01
 3.000000000E-01 1.000000000E+00 7.520247109E-01
 2.500000000E-01 1.000000000E+00 7.475638516E-01
 2.000000000E-01 1.000000000E+00 7.420844560E-01
 1.500000000E-01 1.000000000E+00 7.367341755E-01
 1.000000000E-01 1.000000000E+00 7.319074323E-01
 5.000000000E-02 1.000000000E+00 7.276865974E-01
 1.733724275E-12 1.000000000E+00 7.240948149E-01
 -5.000000000E-02 1.000000000E+00 7.211987069E-01
 -1.000000000E-01 1.000000000E+00 7.190802577E-01
 -1.500000000E-01 1.000000000E+00 7.175368374E-01
 -2.000000000E-01 1.000000000E+00 7.167074906E-01
 -2.500000000E-01 1.000000000E+00 7.165493781E-01
 -3.000000000E-01 1.000000000E+00 7.170194964E-01
 -3.500000000E-01 1.000000000E+00 7.181095110E-01
 -4.000000000E-01 1.000000000E+00 7.199144864E-01
 -4.500000000E-01 1.000000000E+00 7.228050156E-01
 9.831763025E-01 -4.145291302E-03 5.910937102E-01
 8.832866446E-01 -2.148461186E-03 5.938046823E-01
 7.984993402E-01 -6.918403159E-03 6.263275086E-01
 7.241605803E-01 -1.522192657E-02 6.629793563E-01
 6.514800211E-01 -2.350410237E-02 7.031068154E-01
 5.800756105E-01 -3.082302467E-02 7.496905381E-01
 5.218796508E-01 -3.822944714E-02 7.985377578E-01
 4.530454893E-01 -4.351284512E-02 8.658127055E-01
 3.997346487E-01 -4.706104894E-02 9.023195188E-01
 3.387239669E-01 -4.696432012E-02 9.083633989E-01
 2.838755649E-01 -4.634929860E-02 8.894962314E-01
 2.224548850E-01 -4.253645040E-02 8.628877424E-01
 1.574995879E-01 -3.820943137E-02 8.378094428E-01
 9.963757181E-02 -3.066460357E-02 8.222306472E-01
 5.164246337E-02 -2.644908395E-02 8.105357803E-01
 9.320704709E-01 -1.954358527E-03 5.886201834E-01
 1.974712972E+00 -9.497198888E-01 7.152087956E-01
 1.974260889E+00 9.588536007E-01 7.105136515E-01
 9.886926178E-01 8.492899834E-03 6.672152247E-01
 9.253781553E-01 2.094660004E-02 7.598898565E-01