TITLE     = "Visualization of the solution"
VARIABLES = "x"
"y"
"Mach"
ZONE T="Zone"
 STRANDID=0, SOLUTIONTIME=0
 Nodes=11904, Elements=23227, ZONETYPE=FEQuadrilateral
 DATAPACKING=POINT
 DT=(DOUBLE DOUBLE DOUBLE )
 1.000276566E+00 5.286089727E-04 5.738510547E-01
 9.883344769E-01 2.856395440E-03 6.267935593E-01
 9.764934182E-01 5.083965603E-03 6.571714225E-01
 9.630700350E-01 7.673727348E-03 6.890646705E-01
 9.498056769E-01 1.012729201E-02 7.035999515E-01
 9.375770688E-01 1.245641802E-02 7.270971619E-01
 9.267631769E-01 1.445331611E-02 7.410730638E-01
 9.149572253E-01 1.663199440E-02 7.634877705E-01
 9.033384323E-01 1.864027604E-02 7.729008635E-01
 8.910542727E-01 2.069998905E-02 7.837435174E-01
 8.790158629E-01 2.265700698E-02 7.943943493E-01
 8.669958115E-01 2.454607189E-02 8.034613962E-01
 8.544763923E-01 2.646256238E-02 8.155779362E-01
 8.424342871E-01 2.818848379E-02 8.163421442E-01
 8.304605484E-01 2.988851070E-02 8.234725302E-01
 8.173221350E-01 3.168381378E-02 8.261044465E-01
 8.040919304E-01 3.348391503E-02 8.350218581E-01
 7.916904092E-01 3.511134908E-02 8.377024267E-01
 7.791092396E-01 3.676640242E-02 8.477255574E-01
 7.666771412E-01 3.837112337E-02 8.583795455E-01
 7.530320287E-01 4.003579915E-02 8.597351557E-01
 7.386492491E-01 4.177935794E-02 8.690689519E-01
 7.275395393E-01 4.309807718E-02 8.778824378E-01
 7.159916759E-01 4.442083463E-02 8.825435882E-01
 7.040838599E-01 4.575094581E-02 8.889593844E-01
 6.901857257E-01 4.728073254E-02 9.016850685E-01
 6.767943501E-01 4.866373539E-02 9.055469797E-01
 6.665136814E-01 4.971070588E-02 9.149794141E-01
 6.548504829E-01 5.085298792E-02 9.229489837E-01
 6.437972188E-01 5.188376829E-02 9.295811029E-01
 6.316715479E-01 5.298626795E-02 9.413753786E-01
 6.203553081E-01 5.392740294E-02 9.434206650E-01
 6.095169187E-01 5.481977016E-02 9.538489200E-01
 5.967943668E-01 5.577813834E-02 9.581963879E-01
 5.848457217E-01 5.664705858E-02 9.718490924E-01
 5.710978508E-01 5.755406991E-02 9.831027330E-01
 5.582046509E-01 5.831838399E-02 9.881257560E-01
 5.454232693E-01 5.898573622E-02 9.944125165E-01
 5.344238281E-01 5.952402204E-02 1.003038317E+00
 5.222311616E-01 6.002461910E-02 9.988366052E-01
 5.091807842E-01 6.048538908E-02 1.003866780E+00
 4.982024431E-01 6.083175540E-02 1.012359059E+00
 4.848659337E-01 6.116450205E-02 1.010473012E+00
 4.717895985E-01 6.139261276E-02 1.004746783E+00
 4.573273659E-01 6.156774610E-02 1.006847349E+00
 4.435411394E-01 6.164498627E-02 1.005095263E+00
 4.303621352E-01 6.162370369E-02 9.968305839E-01
 4.171342552E-01 6.152195856E-02 9.913146908E-01
 4.049890637E-01 6.136614829E-02 9.865518701E-01
 3.925938904E-01 6.113455445E-02 9.787448311E-01
 3.804342747E-01 6.084353477E-02 9.752607057E-01
 3.695033491E-01 6.054425612E-02 9.736159586E-01
 3.564627767E-01 6.009697542E-02 9.647128169E-01
 3.442443609E-01 5.961591750E-02 9.587636433E-01
 3.320482969E-01 5.908073485E-02 9.559093296E-01
 3.216695189E-01 5.856833607E-02 9.489478094E-01
 3.094709218E-01 5.791093037E-02 9.432984429E-01
 2.965581119E-01 5.715256929E-02 9.377157583E-01
 2.827332914E-01 5.625557154E-02 9.311092214E-01
 2.698680758E-01 5.535868928E-02 9.274157890E-01
 2.579251230E-01 5.444680899E-02 9.193399097E-01
 2.451294065E-01 5.340786278E-02 9.132758512E-01
 2.320980430E-01 5.228070542E-02 9.084716032E-01
 2.196096480E-01 5.112452805E-02 9.030641023E-01
 2.077572048E-01 4.995338991E-02 8.963842169E-01
 1.962170154E-01 4.874394089E-02 8.888886132E-01
 1.838486940E-01 4.738515615E-02 8.835979194E-01
 1.720319241E-01 4.601604491E-02 8.788367106E-01
 1.602514386E-01 4.456809163E-02 8.723019762E-01
 1.483270079E-01 4.301895574E-02 8.661848838E-01
 1.372953802E-01 4.150538892E-02 8.593965110E-01
 1.259275228E-01 3.986657783E-02 8.536976481E-01
 1.143968552E-01 3.809650242E-02 8.456741985E-01
 1.036945134E-01 3.636632115E-02 8.399975904E-01
 9.369594604E-02 3.465793282E-02 8.343825776E-01
 8.264017850E-02 3.263835981E-02 8.249134488E-01
 7.065811753E-02 3.029243462E-02 8.159683808E-01
 6.089843065E-02 2.821936645E-02 8.074639996E-01
 5.114410445E-02 2.597744018E-02 7.982988738E-01
 4.227408767E-02 2.374919318E-02 7.873452196E-01
 3.479368240E-02 2.168327756E-02 7.758647146E-01
 2.827750519E-02 1.970841922E-02 7.649741481E-01
 2.283230051E-02 1.788699441E-02 7.545057696E-01
 1.896181516E-02 1.645574719E-02 7.399156608E-01
 1.527830772E-02 1.496862154E-02 7.258319534E-01
 1.265437622E-02 1.380530279E-02 7.104848833E-01
 1.033653039E-02 1.267877780E-02 6.931569637E-01
 8.607838303E-03 1.176369004E-02 6.762048012E-01
 7.038938813E-03 1.086207572E-02 6.595227798E-01
 5.591209512E-03 9.954521433E-03 6.307727258E-01
 3.661195049E-03 8.583588526E-03 5.922767636E-01
 2.018240280E-03 7.194841281E-03 5.445771327E-01
 5.896871444E-04 5.689658690E-03 4.631683736E-01
 -7.983089308E-04 3.647914622E-03 3.470118853E-01
 -1.459518448E-03 2.022250788E-03 2.318756720E-01
 -1.719776075E-03 7.498948253E-04 1.167961756E-01
 -1.744746696E-03 -7.940996438E-04 8.973376646E-03
 -1.391672879E-03 -2.580723958E-03 1.426613833E-01
 -5.139854038E-04 -4.629550502E-03 2.726335253E-01
 9.567917441E-04 -6.816937122E-03 3.825753486E-01
 3.055687994E-03 -9.098440409E-03 4.754832430E-01
 4.907224793E-03 -1.072307676E-02 5.382229397E-01
 7.111404091E-03 -1.239113044E-02 5.818545485E-01
 8.721814491E-03 -1.348139625E-02 6.148417870E-01
 1.076818537E-02 -1.474721823E-02 6.398324557E-01
 1.317260880E-02 -1.610893197E-02 6.678881944E-01
 1.644078828E-02 -1.778120361E-02 6.971540955E-01
 1.958495751E-02 -1.923784427E-02 7.219553484E-01
 2.360760793E-02 -2.094434202E-02 7.423505221E-01
 2.904739603E-02 -2.301672660E-02 7.628112161E-01
 3.483509645E-02 -2.500285208E-02 7.817458748E-01
 4.219002277E-02 -2.728239261E-02 7.985527845E-01
 4.980542883E-02 -2.941234782E-02 8.136305990E-01
 5.874616653E-02 -3.168142959E-02 8.261415770E-01
 6.751223654E-02 -3.370891511E-02 8.365417111E-01
 7.792191207E-02 -3.592034057E-02 8.462749170E-01
 8.789317310E-02 -3.786736354E-02 8.533651626E-01
 9.843227267E-02 -3.978734091E-02 8.613972013E-01
 1.094120592E-01 -4.164916277E-02 8.698391275E-01
 1.208496913E-01 -4.345061257E-02 8.758416114E-01
 1.322571039E-01 -4.513067007E-02 8.818103595E-01
 1.428923905E-01 -4.661500454E-02 8.910796202E-01
 1.541020125E-01 -4.807260260E-02 8.964411808E-01
 1.660022140E-01 -4.952836037E-02 9.030215295E-01
 1.777732819E-01 -5.088029429E-02 9.110033750E-01
 1.896333247E-01 -5.215132236E-02 9.182397107E-01
 2.001868337E-01 -5.321275070E-02 9.261216831E-01
 2.116927505E-01 -5.429721996E-02 9.354824904E-01
 2.239393890E-01 -5.535240471E-02 9.421564164E-01
 2.364954203E-01 -5.634935200E-02 9.508822856E-01
 2.488369495E-01 -5.723959580E-02 9.623562109E-01
 2.613875270E-01 -5.803742260E-02 9.700603031E-01
 2.724296153E-01 -5.866913125E-02 9.810943265E-01
 2.850836515E-01 -5.928572267E-02 9.880925391E-01
 2.975966930E-01 -5.979825556E-02 9.985654995E-01
 3.103863895E-01 -6.021033227E-02 1.007955964E+00
 3.219858110E-01 -6.048448384E-02 1.015680093E+00
 3.343664408E-01 -6.068457663E-02 1.028630591E+00
 3.448915482E-01 -6.074704602E-02 1.043187459E+00
 3.561111391E-01 -6.072153896E-02 1.051599652E+00
 3.670325279E-01 -6.059169024E-02 1.054541515E+00
 3.776450753E-01 -6.038514897E-02 1.055931650E+00
 3.889542222E-01 -6.004895270E-02 1.044691576E+00
 4.015539289E-01 -5.953259394E-02 1.009690217E+00
 4.138251245E-01 -5.892289057E-02 9.962773924E-01
 4.269210100E-01 -5.812427402E-02 9.885487193E-01
 4.394221902E-01 -5.722179264E-02 9.716776367E-01
 4.522421956E-01 -5.616987124E-02 9.520507844E-01
 4.645506740E-01 -5.503956228E-02 9.340728165E-01
 4.769124985E-01 -5.381263793E-02 9.204029139E-01
 4.883140624E-01 -5.256599933E-02 9.006971011E-01
 5.008698702E-01 -5.113942549E-02 8.862716424E-01
 5.145906210E-01 -4.947233573E-02 8.693365614E-01
 5.282314420E-01 -4.771776125E-02 8.502281506E-01
 5.415827036E-01 -4.595526680E-02 8.369887254E-01
 5.553335547E-01 -4.406332970E-02 8.204393505E-01
 5.680217147E-01 -4.226757213E-02 8.043615241E-01
 5.816103816E-01 -4.035689309E-02 7.955396040E-01
 5.937220454E-01 -3.859975934E-02 7.821141361E-01
 6.061825156E-01 -3.680323064E-02 7.737040839E-01
 6.197200418E-01 -3.480414301E-02 7.592213758E-01
 6.343765855E-01 -3.266578540E-02 7.491371527E-01
 6.485839486E-01 -3.059219010E-02 7.390491356E-01
 6.619171500E-01 -2.865141816E-02 7.294739100E-01
 6.756851673E-01 -2.666762285E-02 7.217806905E-01
 6.883887649E-01 -2.482184023E-02 7.110311177E-01
 7.009393573E-01 -2.305057459E-02 7.054415291E-01
 7.155646086E-01 -2.098277025E-02 6.957201042E-01
 7.286355495E-01 -1.915855519E-02 6.862502592E-01
 7.403559089E-01 -1.758661307E-02 6.821382876E-01
 7.530951500E-01 -1.591055654E-02 6.782555868E-01
 7.651937604E-01 -1.426881365E-02 6.654193385E-01
 7.779680490E-01 -1.262938790E-02 6.591289197E-01
 7.904054523E-01 -1.111761853E-02 6.564749340E-01
 8.027026653E-01 -9.600996040E-03 6.462283063E-01
 8.140376806E-01 -8.287679404E-03 6.419011912E-01
 8.253473043E-01 -6.990641356E-03 6.324036217E-01
 8.382731080E-01 -5.654471926E-03 6.306859132E-01
 8.502994776E-01 -4.427376203E-03 6.218593030E-01
 8.622779846E-01 -3.304337384E-03 6.156925216E-01
 8.741589785E-01 -2.303743502E-03 6.117856129E-01
 8.860841990E-01 -1.394168008E-03 6.070691620E-01
 8.991073966E-01 -5.358743365E-04 6.027263707E-01
 9.092234373E-01 2.162278543E-05 6.000422200E-01
 9.194436073E-01 4.778259026E-04 5.992147653E-01
 9.291076660E-01 8.159478311E-04 5.989935643E-01
 9.379895329E-01 1.050469815E-03 5.988544834E-01
 9.501326084E-01 1.247199369E-03 5.999018094E-01
 9.636189342E-01 1.300698961E-03 6.017800302E-01
 9.776828885E-01 1.174513483E-03 6.043916230E-01
 9.902883768E-01 9.003959713E-04 6.106188918E-01
 -5.000000000E-01 -1.000000000E+00 7.243367063E-01
 3.500000000E+00 -1.000000000E+00 7.275337248E-01
 3.500000000E+00 1.000000000E+00 7.152380377E-01
 -5.000000000E-01 1.000000000E+00 7.245362172E-01
 9.943055212E-01 1.692502206E-03 5.926756919E-01
 9.824139476E-01 3.970180522E-03 6.440286454E-01
 9.697817266E-01 6.378846476E-03 6.747293190E-01
 9.564378560E-01 8.900509682E-03 6.966047831E-01
 9.436913729E-01 1.129185501E-02 7.157971277E-01
 9.321701229E-01 1.345486706E-02 7.338559284E-01
 9.208602011E-01 1.554265525E-02 7.530702330E-01
 9.091478288E-01 1.763613522E-02 7.685761453E-01
 8.971963525E-01 1.967013255E-02 7.781200389E-01
 8.850350678E-01 2.167849801E-02 7.893501182E-01
 8.730058372E-01 2.360153943E-02 7.985118300E-01
 8.607361019E-01 2.550431713E-02 8.105548876E-01
 8.484553397E-01 2.732552309E-02 8.155598525E-01
 8.364474177E-01 2.903849725E-02 8.204725761E-01
 8.238913417E-01 3.078616224E-02 8.241044323E-01
 8.107070327E-01 3.258386441E-02 8.310529080E-01
 7.978911698E-01 3.429763205E-02 8.359534811E-01
 7.853998244E-01 3.593887575E-02 8.421994113E-01
 7.728931904E-01 3.756876290E-02 8.543080456E-01
 7.598545849E-01 3.920346126E-02 8.585236991E-01
 7.458406389E-01 4.090757854E-02 8.638616923E-01
 7.330943942E-01 4.243871756E-02 8.740416184E-01
 7.217656076E-01 4.375945590E-02 8.804874417E-01
 7.100377679E-01 4.508589022E-02 8.846259655E-01
 6.971347928E-01 4.651583917E-02 8.964073895E-01
 6.834900379E-01 4.797223397E-02 9.030182691E-01
 6.716540158E-01 4.918722063E-02 9.102989565E-01
 6.606820822E-01 5.028184690E-02 9.195195368E-01
 6.493238509E-01 5.136837810E-02 9.251077038E-01
 6.377343833E-01 5.243501812E-02 9.371904031E-01
 6.260134280E-01 5.345683545E-02 9.406946508E-01
 6.149361134E-01 5.437358655E-02 9.503158397E-01
 6.031556427E-01 5.529895425E-02 9.543239107E-01
 5.908200443E-01 5.621259846E-02 9.654919935E-01
 5.779717863E-01 5.710056424E-02 9.775842508E-01
 5.646512508E-01 5.793622695E-02 9.866700996E-01
 5.518139601E-01 5.865206011E-02 9.893578815E-01
 5.399235487E-01 5.925487913E-02 1.001062794E+00
 5.283274949E-01 5.977432057E-02 1.000945574E+00
 5.157059729E-01 6.025500409E-02 9.993726039E-01
 5.036916137E-01 6.065857224E-02 1.009633159E+00
 4.915341884E-01 6.099812873E-02 1.012613366E+00
 4.783277661E-01 6.127855740E-02 1.006728785E+00
 4.645584822E-01 6.148017943E-02 1.005483213E+00
 4.504342526E-01 6.160636619E-02 1.007027869E+00
 4.369516373E-01 6.163434498E-02 1.000999284E+00
 4.237481952E-01 6.157283112E-02 9.934717339E-01
 4.110616595E-01 6.144405343E-02 9.894511652E-01
 3.987914771E-01 6.125035137E-02 9.827017997E-01
 3.865140826E-01 6.098904461E-02 9.756558430E-01
 3.749688119E-01 6.069389544E-02 9.761097777E-01
 3.629830629E-01 6.032061577E-02 9.688925601E-01
 3.503535688E-01 5.985644646E-02 9.612195023E-01
 3.381463289E-01 5.934832618E-02 9.574492646E-01
 3.268589079E-01 5.882453546E-02 9.528148674E-01
 3.155702204E-01 5.823963322E-02 9.457894754E-01
 3.030145168E-01 5.753174983E-02 9.410855150E-01
 2.896457016E-01 5.670407042E-02 9.336088930E-01
 2.763006836E-01 5.580713041E-02 9.297728226E-01
 2.638965994E-01 5.490274914E-02 9.234629559E-01
 2.515272647E-01 5.392733589E-02 9.160462033E-01
 2.386137247E-01 5.284428410E-02 9.109371356E-01
 2.258538455E-01 5.170261674E-02 9.058089287E-01
 2.136834264E-01 5.053895898E-02 8.999019365E-01
 2.019871101E-01 4.934866540E-02 8.925836077E-01
 1.900328547E-01 4.806454852E-02 8.859460348E-01
 1.779403090E-01 4.670060053E-02 8.814307865E-01
 1.661416814E-01 4.529206827E-02 8.756012313E-01
 1.542892233E-01 4.379352368E-02 8.691443432E-01
 1.428111941E-01 4.226217233E-02 8.626866252E-01
 1.316114515E-01 4.068598337E-02 8.569803554E-01
 1.201621890E-01 3.898154013E-02 8.494365600E-01
 1.090456843E-01 3.723141178E-02 8.424966660E-01
 9.869522974E-02 3.551212698E-02 8.378739624E-01
 8.816806227E-02 3.364814632E-02 8.300312942E-01
 7.664914802E-02 3.146539722E-02 8.209045147E-01
 7.271707430E-02 -3.481462784E-02 8.423610606E-01
 8.290754259E-02 -3.689385206E-02 8.501330387E-01
 9.316272289E-02 -3.882735223E-02 8.570785122E-01
 1.039221659E-01 -4.071825184E-02 8.657565722E-01
 1.151308753E-01 -4.254988767E-02 8.729290891E-01
 1.265533976E-01 -4.429064132E-02 8.787738756E-01
 1.375747472E-01 -4.587283731E-02 8.864479537E-01
 1.484972015E-01 -4.734380357E-02 8.940910035E-01
 1.600521132E-01 -4.880048148E-02 8.993340778E-01
 1.718877479E-01 -5.020432733E-02 9.070557723E-01
 1.837033033E-01 -5.151580833E-02 9.145994461E-01
 1.949100792E-01 -5.268203653E-02 9.223421030E-01
 2.059397921E-01 -5.375498533E-02 9.305575821E-01
 2.178160697E-01 -5.482481234E-02 9.391661738E-01
 2.302174047E-01 -5.585087836E-02 9.459643047E-01
 2.426661849E-01 -5.679447390E-02 9.566007260E-01
 2.551122382E-01 -5.763850920E-02 9.664427101E-01
 2.669085711E-01 -5.835327692E-02 9.754849332E-01
 2.787566334E-01 -5.897742696E-02 9.847723825E-01
 2.913401723E-01 -5.954198912E-02 9.928951654E-01
 3.039915413E-01 -6.000429392E-02 1.003430931E+00
 3.161861002E-01 -6.034740806E-02 1.012343230E+00
 3.281761259E-01 -6.058453023E-02 1.020259301E+00
 3.396289945E-01 -6.071581133E-02 1.037500481E+00
 3.505013436E-01 -6.073429249E-02 1.047311113E+00
 3.615718335E-01 -6.065661460E-02 1.054253189E+00
 3.723388016E-01 -6.048841961E-02 1.055153152E+00
 3.832996488E-01 -6.021705084E-02 1.053573848E+00
 3.952540755E-01 -5.979077332E-02 1.027730404E+00
 4.076895267E-01 -5.922774225E-02 9.997350424E-01
 4.203730673E-01 -5.852358229E-02 9.931169303E-01
 4.331716001E-01 -5.767303333E-02 9.815522899E-01
 4.458321929E-01 -5.669583194E-02 9.611619987E-01
 4.583964348E-01 -5.560471676E-02 9.433986405E-01
 4.707315862E-01 -5.442610011E-02 9.264201032E-01
 4.826132804E-01 -5.318931863E-02 9.118672409E-01
 4.945919663E-01 -5.185271241E-02 8.925539348E-01
 5.077302456E-01 -5.030588061E-02 8.782119710E-01
 5.214110315E-01 -4.859504849E-02 8.598068148E-01
 5.349070728E-01 -4.683651403E-02 8.430948690E-01
 5.484581292E-01 -4.500929825E-02 8.291634304E-01
 5.616776347E-01 -4.316545092E-02 8.121222900E-01
 5.748160481E-01 -4.131223261E-02 7.993372518E-01
 5.876662135E-01 -3.947832622E-02 7.892745918E-01
 5.999522805E-01 -3.770149499E-02 7.775438707E-01
 6.129512787E-01 -3.580368683E-02 7.669587451E-01
 6.270483136E-01 -3.373496421E-02 7.537114013E-01
 6.414802670E-01 -3.162898775E-02 7.441334730E-01
 6.552505493E-01 -2.962180413E-02 7.341278990E-01
 6.688011587E-01 -2.765952051E-02 7.256035349E-01
 6.820369661E-01 -2.574473154E-02 7.164525762E-01
 6.946640611E-01 -2.393620741E-02 7.079821148E-01
 7.082519829E-01 -2.201667242E-02 7.009803917E-01
 7.221000791E-01 -2.007066272E-02 6.906920793E-01
 7.344957292E-01 -1.837258413E-02 6.836661205E-01
 7.467255294E-01 -1.674858481E-02 6.804790980E-01
 7.591444552E-01 -1.508968510E-02 6.722282227E-01
 7.715809047E-01 -1.344910078E-02 6.618521043E-01
 7.841867507E-01 -1.187350322E-02 6.577350217E-01
 7.965540588E-01 -1.035930729E-02 6.517604252E-01
 8.083701730E-01 -8.944337722E-03 6.437786672E-01
 8.196924925E-01 -7.639160380E-03 6.373076168E-01
 8.318102062E-01 -6.322556641E-03 6.315708656E-01
 8.442862928E-01 -5.040924065E-03 6.265379542E-01
 8.562887311E-01 -3.865856794E-03 6.185377574E-01
 8.682184815E-01 -2.804040443E-03 6.137004179E-01
 8.801215887E-01 -1.848955755E-03 6.093310913E-01
 8.925957978E-01 -9.650211723E-04 6.051194979E-01
 9.041654170E-01 -2.571257755E-04 6.008230572E-01
 9.143335223E-01 2.497243440E-04 5.995124613E-01
 9.440610707E-01 1.148834592E-03 5.993791141E-01
 9.568757713E-01 1.273949165E-03 6.008194540E-01
 9.706509113E-01 1.237606222E-03 6.032755569E-01
 9.839856327E-01 1.037454727E-03 6.053484680E-01
 -5.000000000E-01 9.500000000E-01 7.222718923E-01
 -5.000000000E-01 9.000000000E-01 7.188194833E-01
 -5.000000000E-01 8.500000000E-01 7.161823519E-01
 -5.000000000E-01 8.000000000E-01 7.138853647E-01
 -5.000000000E-01 7.500000000E-01 7.116980220E-01
 -5.000000000E-01 7.000000000E-01 7.095482658E-01
 -5.000000000E-01 6.500000000E-01 7.073616507E-01
 -5.000000000E-01 6.000000000E-01 7.051173773E-01
 -5.000000000E-01 5.500000000E-01 7.028297466E-01
 -5.000000000E-01 5.000000000E-01 7.005467721E-01
 -5.000000000E-01 4.500000000E-01 6.981688145E-01
 -5.000000000E-01 4.000000000E-01 6.958174626E-01
 -5.000000000E-01 3.500000000E-01 6.934935802E-01
 -5.000000000E-01 3.000000000E-01 6.912951957E-01
 -5.000000000E-01 2.500000000E-01 6.892375943E-01
 -5.000000000E-01 2.000000000E-01 6.874500633E-01
 -5.000000000E-01 1.500000000E-01 6.859100857E-01
 -5.000000000E-01 1.000000000E-01 6.847558049E-01
 -5.000000000E-01 5.000000000E-02 6.840377137E-01
 -5.000000000E-01 2.752242878E-12 6.837585922E-01
 -5.000000000E-01 -5.000000000E-02 6.839545899E-01
 -5.000000000E-01 -1.000000000E-01 6.846103426E-01
 -5.000000000E-01 -1.500000000E-01 6.857276034E-01
 -5.000000000E-01 -2.000000000E-01 6.872084130E-01
 -5.000000000E-01 -2.500000000E-01 6.889762394E-01
 -5.000000000E-01 -3.000000000E-01 6.909958110E-01
 -5.000000000E-01 -3.500000000E-01 6.931684371E-01
 -5.000000000E-01 -4.000000000E-01 6.954669288E-01
 -5.000000000E-01 -4.500000000E-01 6.978071616E-01
 -5.000000000E-01 -5.000000000E-01 7.001378797E-01
 -5.000000000E-01 -5.500000000E-01 7.024726371E-01
 -5.000000000E-01 -6.000000000E-01 7.047548036E-01
 -5.000000000E-01 -6.500000000E-01 7.069728667E-01
 -5.000000000E-01 -7.000000000E-01 7.091397665E-01
 -5.000000000E-01 -7.500000000E-01 7.113529660E-01
 -5.000000000E-01 -8.000000000E-01 7.135788336E-01
 -5.000000000E-01 -8.500000000E-01 7.159232375E-01
 -5.000000000E-01 -9.000000000E-01 7.185944313E-01
 -5.000000000E-01 -9.500000000E-01 7.220952271E-01
 -4.500000000E-01 -1.000000000E+00 7.219631163E-01
 -4.000000000E-01 -1.000000000E+00 7.185686657E-01
 -3.500000000E-01 -1.000000000E+00 7.164313508E-01
 -3.000000000E-01 -1.000000000E+00 7.150585870E-01
 -2.500000000E-01 -1.000000000E+00 7.142740568E-01
 -2.000000000E-01 -1.000000000E+00 7.141018002E-01
 -1.500000000E-01 -1.000000000E+00 7.145690610E-01
 -1.000000000E-01 -1.000000000E+00 7.155683506E-01
 -5.000000000E-02 -1.000000000E+00 7.171879042E-01
 -9.424683256E-13 -1.000000000E+00 7.194556161E-01
 5.000000000E-02 -1.000000000E+00 7.222111440E-01
 1.000000000E-01 -1.000000000E+00 7.254498498E-01
 1.500000000E-01 -1.000000000E+00 7.289331022E-01
 2.000000000E-01 -1.000000000E+00 7.326695013E-01
 2.500000000E-01 -1.000000000E+00 7.363892473E-01
 3.000000000E-01 -1.000000000E+00 7.398124792E-01
 3.500000000E-01 -1.000000000E+00 7.427828254E-01
 4.000000000E-01 -1.000000000E+00 7.450347920E-01
 4.500000000E-01 -1.000000000E+00 7.466527921E-01
 5.000000000E-01 -1.000000000E+00 7.474531656E-01
 5.500000000E-01 -1.000000000E+00 7.474784698E-01
 6.000000000E-01 -1.000000000E+00 7.467421944E-01
 6.500000000E-01 -1.000000000E+00 7.454090862E-01
 7.000000000E-01 -1.000000000E+00 7.434808455E-01
 7.500000000E-01 -1.000000000E+00 7.412102302E-01
 8.000000000E-01 -1.000000000E+00 7.387939744E-01
 8.500000000E-01 -1.000000000E+00 7.362142228E-01
 9.000000000E-01 -1.000000000E+00 7.336094597E-01
 9.500000000E-01 -1.000000000E+00 7.309711434E-01
 1.000000000E+00 -1.000000000E+00 7.285208800E-01
 1.050000000E+00 -1.000000000E+00 7.261393344E-01
 1.100000000E+00 -1.000000000E+00 7.238304111E-01
 1.150000000E+00 -1.000000000E+00 7.220976525E-01
 1.200000000E+00 -1.000000000E+00 7.204715958E-01
 1.250000000E+00 -1.000000000E+00 7.193091165E-01
 1.300000000E+00 -1.000000000E+00 7.183199544E-01
 1.350000000E+00 -1.000000000E+00 7.174804541E-01
 1.400000000E+00 -1.000000000E+00 7.169313528E-01
 1.450000000E+00 -1.000000000E+00 7.165299102E-01
 1.500000000E+00 -1.000000000E+00 7.162463804E-01
 1.550000000E+00 -1.000000000E+00 7.161021334E-01
 1.600000000E+00 -1.000000000E+00 7.160709199E-01
 1.650000000E+00 -1.000000000E+00 7.161386588E-01
 1.700000000E+00 -1.000000000E+00 7.161268057E-01
 1.750000000E+00 -1.000000000E+00 7.162743957E-01
 1.800000000E+00 -1.000000000E+00 7.166484805E-01
 1.850000000E+00 -1.000000000E+00 7.169585929E-01
 1.900000000E+00 -1.000000000E+00 7.172332159E-01
 1.950000000E+00 -1.000000000E+00 7.175452283E-01
 2.000000000E+00 -1.000000000E+00 7.178963736E-01
 2.050000000E+00 -1.000000000E+00 7.182588768E-01
 2.100000000E+00 -1.000000000E+00 7.186087917E-01
 2.150000000E+00 -1.000000000E+00 7.189243794E-01
 2.200000000E+00 -1.000000000E+00 7.192460378E-01
 2.250000000E+00 -1.000000000E+00 7.195631935E-01
 2.300000000E+00 -1.000000000E+00 7.198821876E-01
 2.350000000E+00 -1.000000000E+00 7.201404475E-01
 2.400000000E+00 -1.000000000E+00 7.204892308E-01
 2.450000000E+00 -1.000000000E+00 7.205762073E-01
 2.500000000E+00 -1.000000000E+00 7.208328160E-01
 2.550000000E+00 -1.000000000E+00 7.211623807E-01
 2.600000000E+00 -1.000000000E+00 7.214235938E-01
 2.650000000E+00 -1.000000000E+00 7.216085619E-01
 2.700000000E+00 -1.000000000E+00 7.217569643E-01
 2.750000000E+00 -1.000000000E+00 7.218859454E-01
 2.800000000E+00 -1.000000000E+00 7.220890091E-01
 2.850000000E+00 -1.000000000E+00 7.222384820E-01
 2.900000000E+00 -1.000000000E+00 7.223395110E-01
 2.950000000E+00 -1.000000000E+00 7.224349561E-01
 3.000000000E+00 -1.000000000E+00 7.225048449E-01
 3.050000000E+00 -1.000000000E+00 7.225842162E-01
 3.100000000E+00 -1.000000000E+00 7.226494843E-01
 3.150000000E+00 -1.000000000E+00 7.227777107E-01
 3.200000000E+00 -1.000000000E+00 7.228821339E-01
 3.250000000E+00 -1.000000000E+00 7.230242744E-01
 3.300000000E+00 -1.000000000E+00 7.232090111E-01
 3.350000000E+00 -1.000000000E+00 7.235038432E-01
 3.400000000E+00 -1.000000000E+00 7.239213117E-01
 3.450000000E+00 -1.000000000E+00 7.250678601E-01
 3.500000000E+00 -9.500000000E-01 7.291246919E-01
 3.500000000E+00 -9.000000000E-01 7.300577330E-01
 3.500000000E+00 -8.500000000E-01 7.307087034E-01
 3.500000000E+00 -8.000000000E-01 7.311075641E-01
 3.500000000E+00 -7.500000000E-01 7.313362902E-01
 3.500000000E+00 -7.000000000E-01 7.315461444E-01
 3.500000000E+00 -6.500000000E-01 7.317843295E-01
 3.500000000E+00 -6.000000000E-01 7.320656420E-01
 3.500000000E+00 -5.500000000E-01 7.323793341E-01
 3.500000000E+00 -5.000000000E-01 7.327008646E-01
 3.500000000E+00 -4.500000000E-01 7.330269089E-01
 3.500000000E+00 -4.000000000E-01 7.333434556E-01
 3.500000000E+00 -3.500000000E-01 7.336542345E-01
 3.500000000E+00 -3.000000000E-01 7.339795742E-01
 3.500000000E+00 -2.500000000E-01 7.342747117E-01
 3.500000000E+00 -2.000000000E-01 7.345031601E-01
 3.500000000E+00 -1.500000000E-01 7.346525275E-01
 3.500000000E+00 -1.000000000E-01 7.347383345E-01
 3.500000000E+00 -5.000000000E-02 7.347673009E-01
 3.500000000E+00 -2.752242878E-12 7.347608992E-01
 3.500000000E+00 5.000000000E-02 7.347155027E-01
 3.500000000E+00 1.000000000E-01 7.346099513E-01
 3.500000000E+00 1.500000000E-01 7.344104794E-01
 3.500000000E+00 2.000000000E-01 7.341330949E-01
 3.500000000E+00 2.500000000E-01 7.338157294E-01
 3.500000000E+00 3.000000000E-01 7.335015771E-01
 3.500000000E+00 3.500000000E-01 7.331861852E-01
 3.500000000E+00 4.000000000E-01 7.328763823E-01
 3.500000000E+00 4.500000000E-01 7.325474472E-01
 3.500000000E+00 5.000000000E-01 7.321815019E-01
 3.500000000E+00 5.500000000E-01 7.317962333E-01
 3.500000000E+00 6.000000000E-01 7.315281777E-01
 3.500000000E+00 6.500000000E-01 7.315484275E-01
 3.500000000E+00 7.000000000E-01 7.318097039E-01
 3.500000000E+00 7.500000000E-01 7.319117889E-01
 3.500000000E+00 8.000000000E-01 7.313001274E-01
 3.500000000E+00 8.500000000E-01 7.295840388E-01
 3.500000000E+00 9.000000000E-01 7.264665836E-01
 3.500000000E+00 9.500000000E-01 7.218552154E-01
 3.450000000E+00 1.000000000E+00 7.060773368E-01
 3.400000000E+00 1.000000000E+00 7.027479431E-01
 3.350000000E+00 1.000000000E+00 7.024107816E-01
 3.300000000E+00 1.000000000E+00 7.020979239E-01
 3.250000000E+00 1.000000000E+00 7.020867765E-01
 3.200000000E+00 1.000000000E+00 7.022112230E-01
 3.150000000E+00 1.000000000E+00 7.025735072E-01
 3.100000000E+00 1.000000000E+00 7.028388190E-01
 3.050000000E+00 1.000000000E+00 7.030380794E-01
 3.000000000E+00 1.000000000E+00 7.030952933E-01
 2.950000000E+00 1.000000000E+00 7.033845793E-01
 2.900000000E+00 1.000000000E+00 7.035946672E-01
 2.850000000E+00 1.000000000E+00 7.033716087E-01
 2.800000000E+00 1.000000000E+00 7.038084470E-01
 2.750000000E+00 1.000000000E+00 7.045841134E-01
 2.700000000E+00 1.000000000E+00 7.052025628E-01
 2.650000000E+00 1.000000000E+00 7.052731275E-01
 2.600000000E+00 1.000000000E+00 7.056694781E-01
 2.550000000E+00 1.000000000E+00 7.060191324E-01
 2.500000000E+00 1.000000000E+00 7.062893492E-01
 2.450000000E+00 1.000000000E+00 7.066389330E-01
 2.400000000E+00 1.000000000E+00 7.069451549E-01
 2.350000000E+00 1.000000000E+00 7.072210814E-01
 2.300000000E+00 1.000000000E+00 7.076537070E-01
 2.250000000E+00 1.000000000E+00 7.081518994E-01
 2.200000000E+00 1.000000000E+00 7.085004731E-01
 2.150000000E+00 1.000000000E+00 7.086851500E-01
 2.100000000E+00 1.000000000E+00 7.090046046E-01
 2.050000000E+00 1.000000000E+00 7.096124193E-01
 2.000000000E+00 1.000000000E+00 7.099628656E-01
 1.950000000E+00 1.000000000E+00 7.103639403E-01
 1.900000000E+00 1.000000000E+00 7.110933211E-01
 1.850000000E+00 1.000000000E+00 7.121787535E-01
 1.800000000E+00 1.000000000E+00 7.124838473E-01
 1.750000000E+00 1.000000000E+00 7.134767073E-01
 1.700000000E+00 1.000000000E+00 7.147960081E-01
 1.650000000E+00 1.000000000E+00 7.158538889E-01
 1.600000000E+00 1.000000000E+00 7.167543886E-01
 1.550000000E+00 1.000000000E+00 7.181101543E-01
 1.500000000E+00 1.000000000E+00 7.197989248E-01
 1.450000000E+00 1.000000000E+00 7.214456473E-01
 1.400000000E+00 1.000000000E+00 7.231957327E-01
 1.350000000E+00 1.000000000E+00 7.249845262E-01
 1.300000000E+00 1.000000000E+00 7.277782590E-01
 1.250000000E+00 1.000000000E+00 7.304665198E-01
 1.200000000E+00 1.000000000E+00 7.331013963E-01
 1.150000000E+00 1.000000000E+00 7.358642637E-01
 1.100000000E+00 1.000000000E+00 7.383675169E-01
 1.050000000E+00 1.000000000E+00 7.413438275E-01
 1.000000000E+00 1.000000000E+00 7.457508356E-01
 9.500000000E-01 1.000000000E+00 7.490451375E-01
 9.000000000E-01 1.000000000E+00 7.534493206E-01
 8.500000000E-01 1.000000000E+00 7.567608859E-01
 8.000000000E-01 1.000000000E+00 7.593397488E-01
 7.500000000E-01 1.000000000E+00 7.615724875E-01
 7.000000000E-01 1.000000000E+00 7.629505355E-01
 6.500000000E-01 1.000000000E+00 7.638560351E-01
 6.000000000E-01 1.000000000E+00 7.640193397E-01
 5.500000000E-01 1.000000000E+00 7.630093330E-01
 5.000000000E-01 1.000000000E+00 7.606385478E-01
 4.500000000E-01 1.000000000E+00 7.584249908E-01
 4.000000000E-01 1.000000000E+00 7.547566248E-01
 3.500000000E-01 1.000000000E+00 7.513376406E-01
 3.000000000E-01 1.000000000E+00 7.466505498E-01
 2.500000000E-01 1.000000000E+00 7.417666137E-01
 2.000000000E-01 1.000000000E+00 7.369116356E-01
 1.500000000E-01 1.000000000E+00 7.321590329E-01
 1.000000000E-01 1.000000000E+00 7.277689019E-01
 5.000000000E-02 1.000000000E+00 7.239716893E-01
 1.733724275E-12 1.000000000E+00 7.206908992E-01
 -5.000000000E-02 1.000000000E+00 7.182464850E-01
 -1.000000000E-01 1.000000000E+00 7.164321325E-01
 -1.500000000E-01 1.000000000E+00 7.152599259E-01
 -2.000000000E-01 1.000000000E+00 7.147199446E-01
 -2.500000000E-01 1.000000000E+00 7.147850169E-01
 -3.000000000E-01 1.000000000E+00 7.154688596E-01
 -3.500000000E-01 1.000000000E+00 7.168012685E-01
 -4.000000000E-01 1.000000000E+00 7.189620601E-01
 -4.500000000E-01 1.000000000E+00 7.221976592E-01
 9.069297752E-01 -4.562895181E-03 6.029648144E-01
 9.870183084E-01 -4.489411198E-03 6.086171651E-01
 8.364470461E-01 -1.148220188E-02 6.322092901E-01
 7.568306981E-01 -2.073897280E-02 6.753952801E-01
 6.856226059E-01 -3.066404615E-02 7.147322480E-01
 6.170120027E-01 -3.994631259E-02 7.628729762E-01
 5.462765206E-01 -5.020496773E-02 8.306612472E-01
 4.799729944E-01 -5.851299419E-02 9.134767704E-01
 4.237402263E-01 -6.399523671E-02 9.857419058E-01
 3.639525644E-01 -6.510757887E-02 1.050140964E+00
 3.131675338E-01 -6.530156701E-02 1.006134563E+00
 2.584215732E-01 -6.382633364E-02 9.646332898E-01
 2.026846400E-01 -5.830620822E-02 9.253806004E-01
 1.441418166E-01 -5.132185174E-02 8.885334855E-01
 8.951435696E-02 -4.384815013E-02 8.491437618E-01
 5.301400917E-02 -3.666866156E-02 8.074894248E-01
 1.684785276E-02 -2.146480838E-02 6.918910287E-01
 1.977156968E+00 -9.579147111E-01 7.200966329E-01
 1.976207710E+00 9.604736418E-01 7.195762449E-01