TITLE     = "Visualization of the solution"
VARIABLES = "x"
"y"
"Mach"
ZONE T="Zone"
 STRANDID=0, SOLUTIONTIME=0
 Nodes=11881, Elements=23177, ZONETYPE=FEQuadrilateral
 DATAPACKING=POINT
 DT=(DOUBLE DOUBLE DOUBLE )
 9.997891784E-01 5.133217783E-04 5.180550810E-01
 9.864999652E-01 3.272651462E-03 6.443910085E-01
 9.734761715E-01 6.022353191E-03 6.745900569E-01
 9.566888213E-01 9.478226304E-03 6.964409862E-01
 9.420840144E-01 1.251982059E-02 7.193359172E-01
 9.283128381E-01 1.530156098E-02 7.286086400E-01
 9.170578718E-01 1.766224392E-02 7.518549471E-01
 9.056062102E-01 1.994132809E-02 7.594919515E-01
 8.939003944E-01 2.227623947E-02 7.727727402E-01
 8.824014664E-01 2.455232665E-02 7.896310294E-01
 8.706921935E-01 2.678010240E-02 7.986405166E-01
 8.584024906E-01 2.906765603E-02 8.084739146E-01
 8.466050625E-01 3.124301322E-02 8.236588706E-01
 8.352602720E-01 3.321274370E-02 8.222176146E-01
 8.238237500E-01 3.525597230E-02 8.417272571E-01
 8.113081455E-01 3.736127540E-02 8.460264513E-01
 7.985069156E-01 3.946167603E-02 8.503579987E-01
 7.861037254E-01 4.148701206E-02 8.612214954E-01
 7.736616731E-01 4.348146170E-02 8.738638935E-01
 7.620133758E-01 4.528250918E-02 8.798711620E-01
 7.487646937E-01 4.727118462E-02 8.846854113E-01
 7.355358601E-01 4.924926162E-02 9.011047882E-01
 7.247467041E-01 5.080615729E-02 9.099690853E-01
 7.134160399E-01 5.236295611E-02 9.101510248E-01
 7.017279267E-01 5.396879837E-02 9.230950458E-01
 6.889366508E-01 5.566605181E-02 9.345089562E-01
 6.762901545E-01 5.726340786E-02 9.416624553E-01
 6.655972004E-01 5.856928229E-02 9.464338993E-01
 6.539482474E-01 5.992390588E-02 9.504549048E-01
 6.425122619E-01 6.122224778E-02 9.434111539E-01
 6.306751370E-01 6.246686354E-02 9.075260518E-01
 6.192401648E-01 6.365410239E-02 1.023312628E+00
 6.086894274E-01 6.463603675E-02 1.159978639E+00
 5.969055295E-01 6.571100652E-02 1.142842575E+00
 5.855528116E-01 6.667603552E-02 1.131704024E+00
 5.723415613E-01 6.769777834E-02 1.130529552E+00
 5.600799322E-01 6.857438385E-02 1.125247744E+00
 5.478845835E-01 6.935352832E-02 1.116245077E+00
 5.367729068E-01 6.998898089E-02 1.111316897E+00
 5.252246857E-01 7.060511410E-02 1.103804410E+00
 5.129123330E-01 7.114209235E-02 1.094292087E+00
 5.020062327E-01 7.158178091E-02 1.092227996E+00
 4.891368151E-01 7.201620936E-02 1.083583551E+00
 4.761838913E-01 7.236520201E-02 1.074603867E+00
 4.629538357E-01 7.262486219E-02 1.065100090E+00
 4.497820139E-01 7.279041409E-02 1.059081188E+00
 4.373285770E-01 7.288347930E-02 1.055496578E+00
 4.247186482E-01 7.290434837E-02 1.050522638E+00
 4.123952091E-01 7.285966724E-02 1.043028152E+00
 3.997854292E-01 7.272572815E-02 1.033649483E+00
 3.876551390E-01 7.253668457E-02 1.030960106E+00
 3.757153749E-01 7.229124755E-02 1.023426245E+00
 3.625335097E-01 7.192383707E-02 1.016429636E+00
 3.497925699E-01 7.151643187E-02 1.015500610E+00
 3.368497491E-01 7.101062685E-02 1.008417011E+00
 3.259087801E-01 7.051980495E-02 1.001671938E+00
 3.134017289E-01 6.989625096E-02 9.976972329E-01
 3.005902767E-01 6.917491555E-02 9.897712056E-01
 2.867805958E-01 6.829949468E-02 9.817893771E-01
 2.745839059E-01 6.745803356E-02 9.773492526E-01
 2.625883520E-01 6.655310094E-02 9.729740343E-01
 2.500481606E-01 6.553464383E-02 9.690639545E-01
 2.374945730E-01 6.440813839E-02 9.608113774E-01
 2.251681089E-01 6.322497129E-02 9.562137355E-01
 2.130662203E-01 6.196108833E-02 9.465288195E-01
 2.008423805E-01 6.059815362E-02 9.403969083E-01
 1.884679794E-01 5.912615731E-02 9.351324848E-01
 1.764696538E-01 5.757556483E-02 9.248849255E-01
 1.648073792E-01 5.597899854E-02 9.173692897E-01
 1.530306190E-01 5.425743759E-02 9.099885037E-01
 1.419616640E-01 5.253458396E-02 9.020392813E-01
 1.302385628E-01 5.058679357E-02 8.941059293E-01
 1.190428138E-01 4.858547822E-02 8.826252117E-01
 1.081878096E-01 4.651928693E-02 8.736718637E-01
 9.795597941E-02 4.444255307E-02 8.637039104E-01
 8.704254776E-02 4.206077754E-02 8.497069050E-01
 7.565634698E-02 3.937850147E-02 8.369265842E-01
 6.563705951E-02 3.681794554E-02 8.227031051E-01
 5.575507879E-02 3.407290205E-02 8.024743987E-01
 4.689870030E-02 3.138753027E-02 7.865288752E-01
 3.929380700E-02 2.886322886E-02 7.696324620E-01
 3.251688182E-02 2.641840093E-02 7.520161934E-01
 2.672289684E-02 2.412257157E-02 7.337762894E-01
 2.251733094E-02 2.231269516E-02 7.130208451E-01
 1.839410327E-02 2.038767561E-02 6.916140491E-01
 1.506988332E-02 1.868837699E-02 6.700716243E-01
 1.208110992E-02 1.702262275E-02 6.456584152E-01
 9.913371876E-03 1.569336839E-02 6.226164493E-01
 7.983622141E-03 1.441229228E-02 6.008765636E-01
 6.216311362E-03 1.311670616E-02 5.654818969E-01
 3.902776167E-03 1.117666438E-02 5.154722082E-01
 2.025658032E-03 9.279960766E-03 4.608913507E-01
 5.485661095E-04 7.386274170E-03 3.694171910E-01
 -8.882336551E-04 4.657066427E-03 2.373607657E-01
 -1.440883731E-03 2.597143175E-03 1.184426061E-01
 -1.557747019E-03 8.823754615E-04 3.291031146E-03
 -1.356407418E-03 -9.393395158E-04 1.096127848E-01
 -8.031394682E-04 -2.829616424E-03 2.126910157E-01
 3.097267472E-04 -5.120562855E-03 3.148469700E-01
 1.930229249E-03 -7.457919419E-03 4.063862588E-01
 4.066672642E-03 -9.835602716E-03 4.839058884E-01
 5.992595572E-03 -1.162170153E-02 5.397810390E-01
 8.235795423E-03 -1.344107278E-02 5.801484143E-01
 1.005233452E-02 -1.476059482E-02 6.138909586E-01
 1.230510138E-02 -1.626051031E-02 6.418503173E-01
 1.476811711E-02 -1.776744053E-02 6.687278142E-01
 1.816533878E-02 -1.965977438E-02 6.976230895E-01
 2.131167613E-02 -2.125366405E-02 7.236568158E-01
 2.531261928E-02 -2.311836742E-02 7.442577693E-01
 3.067430481E-02 -2.537959069E-02 7.683780254E-01
 3.645411506E-02 -2.758908086E-02 7.907647600E-01
 4.330003634E-02 -2.995883673E-02 8.078059303E-01
 5.097133666E-02 -3.236536309E-02 8.236252457E-01
 5.999595672E-02 -3.492581844E-02 8.386923703E-01
 6.891426444E-02 -3.722912446E-02 8.514753846E-01
 7.919356972E-02 -3.965813667E-02 8.626423789E-01
 8.919665217E-02 -4.183214530E-02 8.723357666E-01
 9.964658320E-02 -4.393362626E-02 8.804141875E-01
 1.109437421E-01 -4.604585096E-02 8.906242677E-01
 1.221828386E-01 -4.798975959E-02 8.990026707E-01
 1.341554821E-01 -4.991425201E-02 9.069925135E-01
 1.448802650E-01 -5.152032152E-02 9.152182288E-01
 1.563873738E-01 -5.313300714E-02 9.221544293E-01
 1.684654057E-01 -5.470864102E-02 9.308397837E-01
 1.801548153E-01 -5.612228811E-02 9.384316780E-01
 1.920379102E-01 -5.746395513E-02 9.478092037E-01
 2.029168755E-01 -5.859535933E-02 9.553511974E-01
 2.144157141E-01 -5.970959365E-02 9.638516519E-01
 2.266531587E-01 -6.079185754E-02 9.736744287E-01
 2.390195876E-01 -6.177988276E-02 9.833308896E-01
 2.510244250E-01 -6.264095753E-02 9.952640136E-01
 2.629976571E-01 -6.338520348E-02 1.002849012E+00
 2.739211619E-01 -6.398937106E-02 1.014785989E+00
 2.860175669E-01 -6.453974545E-02 1.020901946E+00
 2.980079651E-01 -6.499624997E-02 1.031910757E+00
 3.105170131E-01 -6.534691155E-02 1.045941300E+00
 3.220632672E-01 -6.555474550E-02 1.053327352E+00
 3.346047103E-01 -6.567999721E-02 1.055454376E+00
 3.453416228E-01 -6.569031626E-02 1.068389168E+00
 3.568149209E-01 -6.557473540E-02 1.078733827E+00
 3.676782548E-01 -6.536225230E-02 1.085985044E+00
 3.787076771E-01 -6.506550312E-02 1.086451567E+00
 3.904584050E-01 -6.462364644E-02 1.037045836E+00
 4.035561383E-01 -6.398501247E-02 9.810165539E-01
 4.159397185E-01 -6.327431649E-02 9.835343889E-01
 4.284194708E-01 -6.241967902E-02 9.806351453E-01
 4.407489300E-01 -6.145045906E-02 9.611110065E-01
 4.527316689E-01 -6.038784608E-02 9.402429995E-01
 4.645607471E-01 -5.924785510E-02 9.232350168E-01
 4.769749343E-01 -5.797735602E-02 9.111066302E-01
 4.888755679E-01 -5.666431785E-02 8.969574809E-01
 5.016655922E-01 -5.515298992E-02 8.783479141E-01
 5.153733492E-01 -5.345349386E-02 8.617516611E-01
 5.283598304E-01 -5.176591128E-02 8.453938369E-01
 5.412548780E-01 -5.005386099E-02 8.333305968E-01
 5.540565252E-01 -4.829135537E-02 8.195138226E-01
 5.678240061E-01 -4.635193571E-02 8.058429329E-01
 5.809625387E-01 -4.446012899E-02 7.924459866E-01
 5.938730240E-01 -4.259952530E-02 7.840292114E-01
 6.070272326E-01 -4.064674303E-02 7.708525275E-01
 6.213721037E-01 -3.850499541E-02 7.587619919E-01
 6.354607344E-01 -3.639393672E-02 7.472453701E-01
 6.500955224E-01 -3.420672566E-02 7.376761882E-01
 6.630594134E-01 -3.226537630E-02 7.285309776E-01
 6.764926314E-01 -3.025596775E-02 7.196009012E-01
 6.888080835E-01 -2.842367068E-02 7.119817872E-01
 7.010282278E-01 -2.660612762E-02 7.032213975E-01
 7.156366706E-01 -2.445746399E-02 6.950145143E-01
 7.286536098E-01 -2.254165523E-02 6.846194506E-01
 7.405933738E-01 -2.084239013E-02 6.802692142E-01
 7.542812228E-01 -1.888821460E-02 6.721187056E-01
 7.662916183E-01 -1.715850830E-02 6.598814401E-01
 7.802749872E-01 -1.528196968E-02 6.577016611E-01
 7.921186090E-01 -1.365749538E-02 6.467866575E-01
 8.049485087E-01 -1.198255271E-02 6.413886395E-01
 8.158566356E-01 -1.057079807E-02 6.331535464E-01
 8.271470666E-01 -9.152176790E-03 6.249223379E-01
 8.402655125E-01 -7.609053515E-03 6.193475146E-01
 8.526065946E-01 -6.194889080E-03 6.095713664E-01
 8.652956486E-01 -4.883333109E-03 6.059378918E-01
 8.760465384E-01 -3.799811238E-03 5.964316158E-01
 8.873909712E-01 -2.798497910E-03 5.931435089E-01
 9.000415802E-01 -1.773015130E-03 5.858136347E-01
 9.103140235E-01 -1.061327872E-03 5.814111546E-01
 9.215431213E-01 -4.217949463E-04 5.797337546E-01
 9.317060709E-01 5.934508590E-05 5.768007834E-01
 9.412333965E-01 4.067249247E-04 5.756646908E-01
 9.528650641E-01 7.103387616E-04 5.736760830E-01
 9.654676318E-01 8.776606992E-04 5.717254120E-01
 9.783588648E-01 8.872126928E-04 5.675160469E-01
 9.896243811E-01 7.519097999E-04 5.565626988E-01
 -5.000000000E-01 -1.000000000E+00 7.232806377E-01
 3.500000000E+00 -1.000000000E+00 7.279331062E-01
 3.500000000E+00 1.000000000E+00 7.084542896E-01
 -5.000000000E-01 1.000000000E+00 7.234961408E-01
 9.931445718E-01 1.892986620E-03 6.163638341E-01
 9.799880683E-01 4.647502326E-03 6.589326628E-01
 9.650824964E-01 7.750289747E-03 6.857697485E-01
 9.493864179E-01 1.099902345E-02 7.090449090E-01
 9.351984262E-01 1.391069079E-02 7.232729563E-01
 9.226853549E-01 1.648190245E-02 7.413112344E-01
 9.113320410E-01 1.880178601E-02 7.556590732E-01
 8.997533023E-01 2.110878378E-02 7.655262011E-01
 8.881509304E-01 2.341428306E-02 7.818091784E-01
 8.765468299E-01 2.566621453E-02 7.945282201E-01
 8.645473421E-01 2.792387921E-02 8.024722136E-01
 8.525037766E-01 3.015533462E-02 8.180213798E-01
 8.409326673E-01 3.222787846E-02 8.210223334E-01
 8.295420110E-01 3.423435800E-02 8.330812979E-01
 8.175659478E-01 3.630862385E-02 8.443163772E-01
 8.049075305E-01 3.841147572E-02 8.476410332E-01
 7.923053205E-01 4.047434404E-02 8.552921706E-01
 7.798826993E-01 4.248423688E-02 8.679867539E-01
 7.678375244E-01 4.438198544E-02 8.777428444E-01
 7.553890347E-01 4.627684690E-02 8.810760488E-01
 7.421502769E-01 4.826022312E-02 8.925047759E-01
 7.301412821E-01 5.002770945E-02 9.075736797E-01
 7.190813720E-01 5.158455670E-02 9.087101037E-01
 7.075719833E-01 5.316587724E-02 9.163283422E-01
 6.953322887E-01 5.481742509E-02 9.295029705E-01
 6.826134026E-01 5.646472983E-02 9.378116833E-01
 6.709436774E-01 5.791634507E-02 9.452694460E-01
 6.597727239E-01 5.924659409E-02 9.470311206E-01
 6.482302547E-01 6.057307683E-02 9.528520205E-01
 6.365936995E-01 6.184455566E-02 9.209378973E-01
 6.249576509E-01 6.306048296E-02 9.333093489E-01
 6.139647961E-01 6.414506957E-02 1.124027186E+00
 6.027974784E-01 6.517352164E-02 1.157460604E+00
 5.912291706E-01 6.619352102E-02 1.134523279E+00
 5.789471865E-01 6.718690693E-02 1.130857629E+00
 5.662107468E-01 6.813608110E-02 1.128975498E+00
 5.539822578E-01 6.896395609E-02 1.120589236E+00
 5.423287451E-01 6.967125461E-02 1.112525166E+00
 5.309987962E-01 7.029704750E-02 1.110274459E+00
 5.190685093E-01 7.087360322E-02 1.096058175E+00
 5.074592829E-01 7.136193663E-02 1.094974301E+00
 4.955715239E-01 7.179899514E-02 1.087871334E+00
 4.826603532E-01 7.219070569E-02 1.079276887E+00
 4.695688635E-01 7.249503210E-02 1.069733291E+00
 4.563679248E-01 7.270763814E-02 1.061190593E+00
 4.435552955E-01 7.283694670E-02 1.057718883E+00
 4.310236126E-01 7.289391384E-02 1.052832127E+00
 4.185569286E-01 7.288200781E-02 1.047812248E+00
 4.060903192E-01 7.279269770E-02 1.037292262E+00
 3.937202841E-01 7.263120636E-02 1.032012472E+00
 3.816852570E-01 7.241396606E-02 1.028705334E+00
 3.691244423E-01 7.210754231E-02 1.017896584E+00
 3.561630398E-01 7.172013447E-02 1.017135734E+00
 3.433211595E-01 7.126352936E-02 1.011782880E+00
 3.313792646E-01 7.076521590E-02 1.004858516E+00
 3.196552545E-01 7.020802796E-02 9.998194060E-01
 3.069960028E-01 6.953558326E-02 9.944592628E-01
 2.936854362E-01 6.873720512E-02 9.847986971E-01
 2.806822509E-01 6.787876412E-02 9.797752419E-01
 2.685861290E-01 6.700556725E-02 9.747194856E-01
 2.563182563E-01 6.604387239E-02 9.720053719E-01
 2.437713668E-01 6.497139111E-02 9.641379455E-01
 2.313313410E-01 6.381655484E-02 9.592226865E-01
 2.191171646E-01 6.259302981E-02 9.512950405E-01
 2.069543004E-01 6.127962098E-02 9.429673838E-01
 1.946551800E-01 5.986215547E-02 9.386055280E-01
 1.824688166E-01 5.835086107E-02 9.295727257E-01
 1.706385165E-01 5.677728169E-02 9.212524298E-01
 1.589189991E-01 5.511821806E-02 9.135070900E-01
 1.474961415E-01 5.339601077E-02 9.062338794E-01
 1.361001134E-01 5.156068876E-02 8.983548245E-01
 1.246406883E-01 4.958613589E-02 8.882694755E-01
 1.136153117E-01 4.755238257E-02 8.779043236E-01
 1.030718945E-01 4.548092000E-02 8.694107177E-01
 9.249926358E-02 4.325166531E-02 8.571688022E-01
 8.134944737E-02 4.071963951E-02 8.428250476E-01
 7.064670324E-02 3.809822351E-02 8.302509833E-01
 6.069606915E-02 3.544542380E-02 8.152141626E-01
 7.405391708E-02 -3.844363056E-02 8.584236763E-01
 8.419511095E-02 -4.074514098E-02 8.676259903E-01
 9.442161769E-02 -4.288288578E-02 8.766006488E-01
 1.052951626E-01 -4.498973861E-02 8.850764995E-01
 1.165632904E-01 -4.701780528E-02 8.954379913E-01
 1.281691603E-01 -4.895200580E-02 9.024553638E-01
 1.395178735E-01 -5.071728677E-02 9.118450563E-01
 1.506338194E-01 -5.232666433E-02 9.183657612E-01
 1.624263898E-01 -5.392082408E-02 9.262504234E-01
 1.743101105E-01 -5.541546457E-02 9.350271247E-01
 1.860963628E-01 -5.679312162E-02 9.425992984E-01
 1.974773929E-01 -5.802965723E-02 9.523831377E-01
 2.086662948E-01 -5.915247649E-02 9.590187530E-01
 2.205344364E-01 -6.025072560E-02 9.687432961E-01
 2.328363732E-01 -6.128587015E-02 9.783813168E-01
 2.450220063E-01 -6.221042015E-02 9.890934910E-01
 2.570110410E-01 -6.301308051E-02 9.997025869E-01
 2.684594095E-01 -6.368728727E-02 1.008218061E+00
 2.799693644E-01 -6.426455826E-02 1.018796831E+00
 2.920127660E-01 -6.476799771E-02 1.024953539E+00
 3.042624891E-01 -6.517158076E-02 1.039035338E+00
 3.162901402E-01 -6.545082852E-02 1.051410976E+00
 3.283339888E-01 -6.561737135E-02 1.053459646E+00
 3.399731666E-01 -6.568515673E-02 1.061162842E+00
 3.510782719E-01 -6.563252583E-02 1.074153870E+00
 3.622465879E-01 -6.546849385E-02 1.082933700E+00
 3.731929660E-01 -6.521387771E-02 1.088759639E+00
 3.845830411E-01 -6.484457478E-02 1.070179281E+00
 3.970072716E-01 -6.430432945E-02 1.001231778E+00
 4.097479284E-01 -6.362966448E-02 9.787082788E-01
 4.221795946E-01 -6.284699775E-02 9.854721132E-01
 4.345842004E-01 -6.193506904E-02 9.714435091E-01
 4.467402995E-01 -6.091915257E-02 9.507297451E-01
 4.586462080E-01 -5.981785059E-02 9.312509934E-01
 4.707678407E-01 -5.861260556E-02 9.167064065E-01
 4.829252511E-01 -5.732083693E-02 9.046812335E-01
 4.952705801E-01 -5.590865389E-02 8.879519794E-01
 5.085194707E-01 -5.430324189E-02 8.695556538E-01
 5.218665898E-01 -5.260970257E-02 8.537119439E-01
 5.348073542E-01 -5.090988614E-02 8.388890713E-01
 5.476557016E-01 -4.917260818E-02 8.267965357E-01
 5.609402657E-01 -4.732164554E-02 8.124992398E-01
 5.743932724E-01 -4.540603235E-02 7.990638207E-01
 5.874177814E-01 -4.352982715E-02 7.879364531E-01
 6.004501283E-01 -4.162313417E-02 7.779073079E-01
 6.141996682E-01 -3.957586922E-02 7.646037709E-01
 6.284164190E-01 -3.744946606E-02 7.529090019E-01
 6.427781284E-01 -3.530033119E-02 7.422944735E-01
 6.565774679E-01 -3.323605098E-02 7.330738842E-01
 6.697760224E-01 -3.126067203E-02 7.240979399E-01
 6.826503575E-01 -2.933981922E-02 7.156291941E-01
 6.949181557E-01 -2.751489915E-02 7.077287985E-01
 7.083324492E-01 -2.553179581E-02 6.991923382E-01
 7.221451402E-01 -2.349955961E-02 6.897984965E-01
 7.346234918E-01 -2.169202268E-02 6.820034822E-01
 7.474372983E-01 -1.986530237E-02 6.767147127E-01
 7.602864206E-01 -1.802336145E-02 6.656979711E-01
 7.732833028E-01 -1.622023899E-02 6.585594686E-01
 7.861967981E-01 -1.446973253E-02 6.526890500E-01
 7.985335588E-01 -1.282002404E-02 6.439415230E-01
 8.104025722E-01 -1.127667539E-02 6.373312267E-01
 8.215018511E-01 -9.861487430E-03 6.290172663E-01
 8.337062895E-01 -8.380615152E-03 6.223332832E-01
 8.464360535E-01 -6.901971297E-03 6.142242173E-01
 8.589511216E-01 -5.539111095E-03 6.079252624E-01
 8.706710935E-01 -4.341572174E-03 6.010324001E-01
 8.817187548E-01 -3.299154574E-03 5.945790064E-01
 8.937162757E-01 -2.285756520E-03 5.899091091E-01
 9.051778018E-01 -1.417171501E-03 5.828896709E-01
 9.159285724E-01 -7.415614091E-04 5.806856299E-01
 9.266245961E-01 -1.812249302E-04 5.780495950E-01
 9.470492303E-01 5.585318431E-04 5.746024500E-01
 9.591663480E-01 7.939997304E-04 5.730434999E-01
 9.719132483E-01 8.824366960E-04 5.702979939E-01
 9.839916229E-01 8.195612463E-04 5.619218630E-01
 9.947067797E-01 6.326157891E-04 5.522944505E-01
 -5.000000000E-01 9.500000000E-01 7.208519199E-01
 -5.000000000E-01 9.000000000E-01 7.167202071E-01
 -5.000000000E-01 8.500000000E-01 7.135539447E-01
 -5.000000000E-01 8.000000000E-01 7.108023879E-01
 -5.000000000E-01 7.500000000E-01 7.081608053E-01
 -5.000000000E-01 7.000000000E-01 7.055627630E-01
 -5.000000000E-01 6.500000000E-01 7.029450986E-01
 -5.000000000E-01 6.000000000E-01 7.002640300E-01
 -5.000000000E-01 5.500000000E-01 6.975344947E-01
 -5.000000000E-01 5.000000000E-01 6.947717813E-01
 -5.000000000E-01 4.500000000E-01 6.919084805E-01
 -5.000000000E-01 4.000000000E-01 6.891193007E-01
 -5.000000000E-01 3.500000000E-01 6.863507522E-01
 -5.000000000E-01 3.000000000E-01 6.837076126E-01
 -5.000000000E-01 2.500000000E-01 6.812533091E-01
 -5.000000000E-01 2.000000000E-01 6.791239541E-01
 -5.000000000E-01 1.500000000E-01 6.772980531E-01
 -5.000000000E-01 1.000000000E-01 6.759289571E-01
 -5.000000000E-01 5.000000000E-02 6.750770093E-01
 -5.000000000E-01 2.752242878E-12 6.747544037E-01
 -5.000000000E-01 -5.000000000E-02 6.750641064E-01
 -5.000000000E-01 -1.000000000E-01 6.758157855E-01
 -5.000000000E-01 -1.500000000E-01 6.771210890E-01
 -5.000000000E-01 -2.000000000E-01 6.788974344E-01
 -5.000000000E-01 -2.500000000E-01 6.809865957E-01
 -5.000000000E-01 -3.000000000E-01 6.833468629E-01
 -5.000000000E-01 -3.500000000E-01 6.859209170E-01
 -5.000000000E-01 -4.000000000E-01 6.886237605E-01
 -5.000000000E-01 -4.500000000E-01 6.913817968E-01
 -5.000000000E-01 -5.000000000E-01 6.941282772E-01
 -5.000000000E-01 -5.500000000E-01 6.968608154E-01
 -5.000000000E-01 -6.000000000E-01 6.995752421E-01
 -5.000000000E-01 -6.500000000E-01 7.022143960E-01
 -5.000000000E-01 -7.000000000E-01 7.048512595E-01
 -5.000000000E-01 -7.500000000E-01 7.074310930E-01
 -5.000000000E-01 -8.000000000E-01 7.101076616E-01
 -5.000000000E-01 -8.500000000E-01 7.129570282E-01
 -5.000000000E-01 -9.000000000E-01 7.162574172E-01
 -5.000000000E-01 -9.500000000E-01 7.205076615E-01
 -4.500000000E-01 -1.000000000E+00 7.203405949E-01
 -4.000000000E-01 -1.000000000E+00 7.161801537E-01
 -3.500000000E-01 -1.000000000E+00 7.135238953E-01
 -3.000000000E-01 -1.000000000E+00 7.117577746E-01
 -2.500000000E-01 -1.000000000E+00 7.106990899E-01
 -2.000000000E-01 -1.000000000E+00 7.103595959E-01
 -1.500000000E-01 -1.000000000E+00 7.107677017E-01
 -1.000000000E-01 -1.000000000E+00 7.118714734E-01
 -5.000000000E-02 -1.000000000E+00 7.134870095E-01
 -9.424683256E-13 -1.000000000E+00 7.157999225E-01
 5.000000000E-02 -1.000000000E+00 7.189089194E-01
 1.000000000E-01 -1.000000000E+00 7.224210636E-01
 1.500000000E-01 -1.000000000E+00 7.261415841E-01
 2.000000000E-01 -1.000000000E+00 7.302128362E-01
 2.500000000E-01 -1.000000000E+00 7.343424180E-01
 3.000000000E-01 -1.000000000E+00 7.379201010E-01
 3.500000000E-01 -1.000000000E+00 7.409400094E-01
 4.000000000E-01 -1.000000000E+00 7.434284950E-01
 4.500000000E-01 -1.000000000E+00 7.451822143E-01
 5.000000000E-01 -1.000000000E+00 7.460091491E-01
 5.500000000E-01 -1.000000000E+00 7.459175835E-01
 6.000000000E-01 -1.000000000E+00 7.450097812E-01
 6.500000000E-01 -1.000000000E+00 7.435512319E-01
 7.000000000E-01 -1.000000000E+00 7.414522499E-01
 7.500000000E-01 -1.000000000E+00 7.390327023E-01
 8.000000000E-01 -1.000000000E+00 7.364193914E-01
 8.500000000E-01 -1.000000000E+00 7.335536370E-01
 9.000000000E-01 -1.000000000E+00 7.306868345E-01
 9.500000000E-01 -1.000000000E+00 7.278299818E-01
 1.000000000E+00 -1.000000000E+00 7.249408678E-01
 1.050000000E+00 -1.000000000E+00 7.223289958E-01
 1.100000000E+00 -1.000000000E+00 7.200741112E-01
 1.150000000E+00 -1.000000000E+00 7.181787953E-01
 1.200000000E+00 -1.000000000E+00 7.165777437E-01
 1.250000000E+00 -1.000000000E+00 7.152362608E-01
 1.300000000E+00 -1.000000000E+00 7.142095343E-01
 1.350000000E+00 -1.000000000E+00 7.134361039E-01
 1.400000000E+00 -1.000000000E+00 7.128982826E-01
 1.450000000E+00 -1.000000000E+00 7.125439099E-01
 1.500000000E+00 -1.000000000E+00 7.123954872E-01
 1.550000000E+00 -1.000000000E+00 7.123868841E-01
 1.600000000E+00 -1.000000000E+00 7.125251425E-01
 1.650000000E+00 -1.000000000E+00 7.127306258E-01
 1.700000000E+00 -1.000000000E+00 7.130332871E-01
 1.750000000E+00 -1.000000000E+00 7.134166456E-01
 1.800000000E+00 -1.000000000E+00 7.138116621E-01
 1.850000000E+00 -1.000000000E+00 7.142666648E-01
 1.900000000E+00 -1.000000000E+00 7.147059843E-01
 1.950000000E+00 -1.000000000E+00 7.151743230E-01
 2.000000000E+00 -1.000000000E+00 7.156104299E-01
 2.050000000E+00 -1.000000000E+00 7.161119169E-01
 2.100000000E+00 -1.000000000E+00 7.166787709E-01
 2.150000000E+00 -1.000000000E+00 7.171480625E-01
 2.200000000E+00 -1.000000000E+00 7.174936215E-01
 2.250000000E+00 -1.000000000E+00 7.178705266E-01
 2.300000000E+00 -1.000000000E+00 7.183222417E-01
 2.350000000E+00 -1.000000000E+00 7.187301586E-01
 2.400000000E+00 -1.000000000E+00 7.191597360E-01
 2.450000000E+00 -1.000000000E+00 7.194600423E-01
 2.500000000E+00 -1.000000000E+00 7.197551381E-01
 2.550000000E+00 -1.000000000E+00 7.200812442E-01
 2.600000000E+00 -1.000000000E+00 7.203936381E-01
 2.650000000E+00 -1.000000000E+00 7.207298897E-01
 2.700000000E+00 -1.000000000E+00 7.209897407E-01
 2.750000000E+00 -1.000000000E+00 7.212084928E-01
 2.800000000E+00 -1.000000000E+00 7.214141968E-01
 2.850000000E+00 -1.000000000E+00 7.216518911E-01
 2.900000000E+00 -1.000000000E+00 7.218476642E-01
 2.950000000E+00 -1.000000000E+00 7.219901739E-01
 3.000000000E+00 -1.000000000E+00 7.221254055E-01
 3.050000000E+00 -1.000000000E+00 7.222382912E-01
 3.100000000E+00 -1.000000000E+00 7.224002448E-01
 3.150000000E+00 -1.000000000E+00 7.225454228E-01
 3.200000000E+00 -1.000000000E+00 7.227022279E-01
 3.250000000E+00 -1.000000000E+00 7.228149678E-01
 3.300000000E+00 -1.000000000E+00 7.230624933E-01
 3.350000000E+00 -1.000000000E+00 7.234155847E-01
 3.400000000E+00 -1.000000000E+00 7.239465339E-01
 3.450000000E+00 -1.000000000E+00 7.252582111E-01
 3.500000000E+00 -9.500000000E-01 7.296371404E-01
 3.500000000E+00 -9.000000000E-01 7.305509523E-01
 3.500000000E+00 -8.500000000E-01 7.311714420E-01
 3.500000000E+00 -8.000000000E-01 7.315954554E-01
 3.500000000E+00 -7.500000000E-01 7.318956147E-01
 3.500000000E+00 -7.000000000E-01 7.321846110E-01
 3.500000000E+00 -6.500000000E-01 7.325139919E-01
 3.500000000E+00 -6.000000000E-01 7.328711935E-01
 3.500000000E+00 -5.500000000E-01 7.332455813E-01
 3.500000000E+00 -5.000000000E-01 7.336306274E-01
 3.500000000E+00 -4.500000000E-01 7.340254040E-01
 3.500000000E+00 -4.000000000E-01 7.343834284E-01
 3.500000000E+00 -3.500000000E-01 7.347654363E-01
 3.500000000E+00 -3.000000000E-01 7.351484818E-01
 3.500000000E+00 -2.500000000E-01 7.355345992E-01
 3.500000000E+00 -2.000000000E-01 7.358244838E-01
 3.500000000E+00 -1.500000000E-01 7.359740937E-01
 3.500000000E+00 -1.000000000E-01 7.359964296E-01
 3.500000000E+00 -5.000000000E-02 7.359684054E-01
 3.500000000E+00 -2.752242878E-12 7.359307232E-01
 3.500000000E+00 5.000000000E-02 7.359004022E-01
 3.500000000E+00 1.000000000E-01 7.357758454E-01
 3.500000000E+00 1.500000000E-01 7.355051793E-01
 3.500000000E+00 2.000000000E-01 7.351392354E-01
 3.500000000E+00 2.500000000E-01 7.347402428E-01
 3.500000000E+00 3.000000000E-01 7.343483289E-01
 3.500000000E+00 3.500000000E-01 7.339654585E-01
 3.500000000E+00 4.000000000E-01 7.335609159E-01
 3.500000000E+00 4.500000000E-01 7.331386271E-01
 3.500000000E+00 5.000000000E-01 7.326646029E-01
 3.500000000E+00 5.500000000E-01 7.322224751E-01
 3.500000000E+00 6.000000000E-01 7.320271109E-01
 3.500000000E+00 6.500000000E-01 7.322496896E-01
 3.500000000E+00 7.000000000E-01 7.326627663E-01
 3.500000000E+00 7.500000000E-01 7.324876734E-01
 3.500000000E+00 8.000000000E-01 7.311074311E-01
 3.500000000E+00 8.500000000E-01 7.278013507E-01
 3.500000000E+00 9.000000000E-01 7.228324894E-01
 3.500000000E+00 9.500000000E-01 7.167124579E-01
 3.450000000E+00 1.000000000E+00 6.958858758E-01
 3.400000000E+00 1.000000000E+00 6.902125069E-01
 3.350000000E+00 1.000000000E+00 6.888928199E-01
 3.300000000E+00 1.000000000E+00 6.883803770E-01
 3.250000000E+00 1.000000000E+00 6.883834929E-01
 3.200000000E+00 1.000000000E+00 6.885225550E-01
 3.150000000E+00 1.000000000E+00 6.887984486E-01
 3.100000000E+00 1.000000000E+00 6.889286912E-01
 3.050000000E+00 1.000000000E+00 6.897911691E-01
 3.000000000E+00 1.000000000E+00 6.903621246E-01
 2.950000000E+00 1.000000000E+00 6.901898131E-01
 2.900000000E+00 1.000000000E+00 6.907139404E-01
 2.850000000E+00 1.000000000E+00 6.910161881E-01
 2.800000000E+00 1.000000000E+00 6.913753039E-01
 2.750000000E+00 1.000000000E+00 6.917462002E-01
 2.700000000E+00 1.000000000E+00 6.922403012E-01
 2.650000000E+00 1.000000000E+00 6.928264876E-01
 2.600000000E+00 1.000000000E+00 6.932843939E-01
 2.550000000E+00 1.000000000E+00 6.937370488E-01
 2.500000000E+00 1.000000000E+00 6.940479598E-01
 2.450000000E+00 1.000000000E+00 6.943101131E-01
 2.400000000E+00 1.000000000E+00 6.947119558E-01
 2.350000000E+00 1.000000000E+00 6.956371321E-01
 2.300000000E+00 1.000000000E+00 6.961692410E-01
 2.250000000E+00 1.000000000E+00 6.967133332E-01
 2.200000000E+00 1.000000000E+00 6.975624907E-01
 2.150000000E+00 1.000000000E+00 6.984603433E-01
 2.100000000E+00 1.000000000E+00 6.989522060E-01
 2.050000000E+00 1.000000000E+00 6.992694714E-01
 2.000000000E+00 1.000000000E+00 7.000060411E-01
 1.950000000E+00 1.000000000E+00 7.007380777E-01
 1.900000000E+00 1.000000000E+00 7.016502391E-01
 1.850000000E+00 1.000000000E+00 7.022450716E-01
 1.800000000E+00 1.000000000E+00 7.032097259E-01
 1.750000000E+00 1.000000000E+00 7.045974465E-01
 1.700000000E+00 1.000000000E+00 7.055818643E-01
 1.650000000E+00 1.000000000E+00 7.062868039E-01
 1.600000000E+00 1.000000000E+00 7.074401598E-01
 1.550000000E+00 1.000000000E+00 7.101557922E-01
 1.500000000E+00 1.000000000E+00 7.110813839E-01
 1.450000000E+00 1.000000000E+00 7.127038341E-01
 1.400000000E+00 1.000000000E+00 7.149976368E-01
 1.350000000E+00 1.000000000E+00 7.178328300E-01
 1.300000000E+00 1.000000000E+00 7.204570575E-01
 1.250000000E+00 1.000000000E+00 7.228550283E-01
 1.200000000E+00 1.000000000E+00 7.262467584E-01
 1.150000000E+00 1.000000000E+00 7.299864129E-01
 1.100000000E+00 1.000000000E+00 7.331397392E-01
 1.050000000E+00 1.000000000E+00 7.387476041E-01
 1.000000000E+00 1.000000000E+00 7.437444668E-01
 9.500000000E-01 1.000000000E+00 7.485332829E-01
 9.000000000E-01 1.000000000E+00 7.541984602E-01
 8.500000000E-01 1.000000000E+00 7.581488628E-01
 8.000000000E-01 1.000000000E+00 7.633331450E-01
 7.500000000E-01 1.000000000E+00 7.666507455E-01
 7.000000000E-01 1.000000000E+00 7.683030825E-01
 6.500000000E-01 1.000000000E+00 7.708632098E-01
 6.000000000E-01 1.000000000E+00 7.714374099E-01
 5.500000000E-01 1.000000000E+00 7.710957840E-01
 5.000000000E-01 1.000000000E+00 7.690833939E-01
 4.500000000E-01 1.000000000E+00 7.656074829E-01
 4.000000000E-01 1.000000000E+00 7.615339033E-01
 3.500000000E-01 1.000000000E+00 7.565838503E-01
 3.000000000E-01 1.000000000E+00 7.510271523E-01
 2.500000000E-01 1.000000000E+00 7.448504475E-01
 2.000000000E-01 1.000000000E+00 7.393879827E-01
 1.500000000E-01 1.000000000E+00 7.335026345E-01
 1.000000000E-01 1.000000000E+00 7.281441442E-01
 5.000000000E-02 1.000000000E+00 7.234163591E-01
 1.733724275E-12 1.000000000E+00 7.194538408E-01
 -5.000000000E-02 1.000000000E+00 7.163636916E-01
 -1.000000000E-01 1.000000000E+00 7.141052857E-01
 -1.500000000E-01 1.000000000E+00 7.126020091E-01
 -2.000000000E-01 1.000000000E+00 7.118538521E-01
 -2.500000000E-01 1.000000000E+00 7.118795883E-01
 -3.000000000E-01 1.000000000E+00 7.126857092E-01
 -3.500000000E-01 1.000000000E+00 7.142559306E-01
 -4.000000000E-01 1.000000000E+00 7.167544981E-01
 -4.500000000E-01 1.000000000E+00 7.206820413E-01
 9.864967557E-01 -3.923566248E-03 5.678260510E-01
 9.032869325E-01 -6.456373167E-03 5.876024580E-01
 8.246566696E-01 -1.392495018E-02 6.288692581E-01
 7.575108696E-01 -2.338055803E-02 6.704853188E-01
 6.870733147E-01 -3.422383992E-02 7.137628216E-01
 6.184619206E-01 -4.513293430E-02 7.621707438E-01
 5.523033239E-01 -5.457309024E-02 8.215136610E-01
 4.918298449E-01 -6.190081249E-02 8.910575079E-01
 4.319709866E-01 -6.794353549E-02 9.720036113E-01
 3.762970797E-01 -7.061499166E-02 1.081419166E+00
 3.252587841E-01 -7.118465535E-02 1.049059019E+00
 2.652657377E-01 -6.813374661E-02 1.001456655E+00
 2.106538228E-01 -6.425613826E-02 9.579291545E-01
 1.596791102E-01 -5.806409927E-02 9.218205844E-01
 1.013248570E-01 -4.919723189E-02 8.771913975E-01