TITLE     = "Visualization of the solution"
VARIABLES = "x"
"y"
"Mach"
ZONE T="Zone"
 STRANDID=0, SOLUTIONTIME=0
 Nodes=11854, Elements=23130, ZONETYPE=FEQuadrilateral
 DATAPACKING=POINT
 DT=(DOUBLE DOUBLE DOUBLE )
 9.998192787E-01 5.310620181E-04 5.807383363E-01
 9.864623547E-01 2.690860769E-03 6.315008541E-01
 9.749331474E-01 4.549051169E-03 6.633196809E-01
 9.626101851E-01 6.540865637E-03 6.885551728E-01
 9.504567981E-01 8.485977538E-03 7.092894336E-01
 9.391978383E-01 1.023678388E-02 7.241337632E-01
 9.288007617E-01 1.184448414E-02 7.406080385E-01
 9.162380099E-01 1.372326352E-02 7.560046384E-01
 9.049728513E-01 1.536538266E-02 7.735235155E-01
 8.921385407E-01 1.707389392E-02 7.799958086E-01
 8.794680238E-01 1.868959144E-02 7.886279465E-01
 8.675554991E-01 2.012584358E-02 7.932472273E-01
 8.548389077E-01 2.159665339E-02 7.967426210E-01
 8.430477977E-01 2.294252068E-02 8.052759903E-01
 8.308939934E-01 2.424233221E-02 8.059766681E-01
 8.175709844E-01 2.564051934E-02 8.099410966E-01
 8.042784333E-01 2.699434571E-02 8.129029823E-01
 7.925813794E-01 2.817787416E-02 8.189672538E-01
 7.796572447E-01 2.944044396E-02 8.221368703E-01
 7.670925856E-01 3.066062182E-02 8.295334234E-01
 7.536704540E-01 3.190700710E-02 8.327100276E-01
 7.395672798E-01 3.319332749E-02 8.385768347E-01
 7.281020284E-01 3.421160951E-02 8.438107020E-01
 7.162081003E-01 3.524235636E-02 8.488749551E-01
 7.039186954E-01 3.627185151E-02 8.528764831E-01
 6.900172234E-01 3.741319850E-02 8.604527981E-01
 6.761447787E-01 3.850805014E-02 8.687655559E-01
 6.650412083E-01 3.933401033E-02 8.719498054E-01
 6.527526975E-01 4.022047296E-02 8.780297951E-01
 6.416652203E-01 4.098809510E-02 8.842971424E-01
 6.292350888E-01 4.179991782E-02 8.905399795E-01
 6.177957654E-01 4.249846190E-02 8.942747722E-01
 6.063615084E-01 4.314812273E-02 8.971874749E-01
 5.936540365E-01 4.385127500E-02 9.078942158E-01
 5.810602903E-01 4.445005953E-02 9.079656720E-01
 5.672423840E-01 4.506311193E-02 9.145440722E-01
 5.538488626E-01 4.558142275E-02 9.181434975E-01
 5.405471921E-01 4.601923376E-02 9.207858011E-01
 5.290580392E-01 4.634569585E-02 9.228717512E-01
 5.166121125E-01 4.662984237E-02 9.221628856E-01
 5.037381053E-01 4.687349871E-02 9.263624789E-01
 4.929929972E-01 4.701375589E-02 9.248114533E-01
 4.797843993E-01 4.711883515E-02 9.220385551E-01
 4.672090709E-01 4.715371877E-02 9.189985869E-01
 4.531078041E-01 4.714335129E-02 9.197658639E-01
 4.388813674E-01 4.703481123E-02 9.145950848E-01
 4.256691635E-01 4.687684402E-02 9.112784518E-01
 4.122383595E-01 4.664958268E-02 9.068726241E-01
 4.000281096E-01 4.640037194E-02 9.047019190E-01
 3.875623047E-01 4.609200731E-02 9.009705100E-01
 3.757055998E-01 4.574842378E-02 8.968635968E-01
 3.648715019E-01 4.540464655E-02 8.940897453E-01
 3.519741595E-01 4.493711889E-02 8.885971015E-01
 3.405480981E-01 4.449590296E-02 8.864264222E-01
 3.290006816E-01 4.400423169E-02 8.819918662E-01
 3.190331459E-01 4.355771095E-02 8.802892167E-01
 3.076885343E-01 4.300786555E-02 8.760154543E-01
 2.952942550E-01 4.237397015E-02 8.728992244E-01
 2.819455862E-01 4.164067656E-02 8.687084024E-01
 2.696370780E-01 4.092887416E-02 8.663835834E-01
 2.577711344E-01 4.019526765E-02 8.620333676E-01
 2.454363108E-01 3.939770535E-02 8.584898994E-01
 2.326190919E-01 3.853382543E-02 8.568966756E-01
 2.208876610E-01 3.769304603E-02 8.530062668E-01
 2.095589787E-01 3.684625402E-02 8.500949928E-01
 1.986253560E-01 3.600175306E-02 8.486443209E-01
 1.863745153E-01 3.500437737E-02 8.455219702E-01
 1.745907664E-01 3.400192410E-02 8.432327184E-01
 1.629058123E-01 3.296161070E-02 8.407524193E-01
 1.509343237E-01 3.184568882E-02 8.388794832E-01
 1.400930882E-01 3.078850545E-02 8.376819285E-01
 1.289364696E-01 2.964286506E-02 8.355127816E-01
 1.173733547E-01 2.839524299E-02 8.344970161E-01
 1.066244170E-01 2.716821618E-02 8.329978788E-01
 9.681397676E-02 2.598813176E-02 8.322151038E-01
 8.553773165E-02 2.454386652E-02 8.310623544E-01
 7.389887422E-02 2.294479311E-02 8.317700828E-01
 6.420323998E-02 2.150051109E-02 8.317120895E-01
 5.493015051E-02 2.000251412E-02 8.321740002E-01
 4.613276571E-02 1.844734885E-02 8.334210919E-01
 3.828752041E-02 1.690907776E-02 8.345016719E-01
 3.166397288E-02 1.546783466E-02 8.339934124E-01
 2.588994987E-02 1.405719202E-02 8.340779935E-01
 2.168469131E-02 1.291717868E-02 8.341396460E-01
 1.792576723E-02 1.178413071E-02 8.332396412E-01
 1.530084945E-02 1.090550609E-02 8.303034662E-01
 1.300729904E-02 1.006708667E-02 8.251824018E-01
 1.131038461E-02 9.393159300E-03 8.195972774E-01
 9.660429321E-03 8.681356907E-03 8.104190227E-01
 8.064888418E-03 7.922085933E-03 7.944044397E-01
 5.951738916E-03 6.786129903E-03 7.709362053E-01
 4.168624524E-03 5.648189690E-03 7.312395520E-01
 2.582160290E-03 4.413112532E-03 6.625237233E-01
 1.047595870E-03 2.849119715E-03 5.779756804E-01
 1.159502426E-04 1.497999416E-03 4.832297853E-01
 -4.026238457E-04 3.928781080E-04 3.574415809E-01
 -7.676695241E-04 -1.035979250E-03 2.209888951E-01
 -7.801189786E-04 -2.916526981E-03 6.806467370E-02
 -2.557217958E-04 -4.967996851E-03 9.836201822E-02
 9.298044024E-04 -7.253902964E-03 2.411305654E-01
 2.772911219E-03 -9.632655419E-03 3.526452109E-01
 4.560661037E-03 -1.144150179E-02 4.246995192E-01
 6.752516143E-03 -1.330588385E-02 4.826539134E-01
 8.346688934E-03 -1.450869441E-02 5.241696541E-01
 1.029442064E-02 -1.584488899E-02 5.552768589E-01
 1.267095469E-02 -1.733408123E-02 5.886643416E-01
 1.579158194E-02 -1.910312474E-02 6.223288893E-01
 1.905017160E-02 -2.078449540E-02 6.549195187E-01
 2.312087081E-02 -2.268909104E-02 6.837178021E-01
 2.858604304E-02 -2.498738095E-02 7.129782899E-01
 3.411678970E-02 -2.709956095E-02 7.394448606E-01
 4.139301181E-02 -2.959166281E-02 7.611626622E-01
 4.881913587E-02 -3.189961612E-02 7.812490393E-01
 5.739162490E-02 -3.432403505E-02 7.976007199E-01
 6.604115665E-02 -3.655815497E-02 8.113734402E-01
 7.646412402E-02 -3.903317079E-02 8.299305733E-01
 8.639395982E-02 -4.118711129E-02 8.395939388E-01
 9.717766196E-02 -4.336581007E-02 8.505203138E-01
 1.081554219E-01 -4.542191327E-02 8.615937830E-01
 1.202386171E-01 -4.752470925E-02 8.716446044E-01
 1.315281689E-01 -4.934902117E-02 8.798113411E-01
 1.422138363E-01 -5.098026991E-02 8.904494193E-01
 1.532872766E-01 -5.255941302E-02 8.979669920E-01
 1.650290489E-01 -5.413115397E-02 9.061783766E-01
 1.764557660E-01 -5.556520820E-02 9.152212710E-01
 1.882519871E-01 -5.695248395E-02 9.250967609E-01
 1.984865218E-01 -5.807265639E-02 9.325494217E-01
 2.096457779E-01 -5.922354013E-02 9.415707561E-01
 2.216895819E-01 -6.036503240E-02 9.487576940E-01
 2.335322350E-01 -6.141438335E-02 9.614197491E-01
 2.455223501E-01 -6.236683205E-02 9.690410563E-01
 2.583314478E-01 -6.330503523E-02 9.829427579E-01
 2.698269486E-01 -6.403678656E-02 9.947682322E-01
 2.826291323E-01 -6.475476176E-02 1.004233350E+00
 2.953868806E-01 -6.536029279E-02 1.018177088E+00
 3.078870475E-01 -6.583226472E-02 1.029483912E+00
 3.195732534E-01 -6.617426127E-02 1.038460081E+00
 3.317589164E-01 -6.643094122E-02 1.050244544E+00
 3.418776691E-01 -6.655138731E-02 1.070832288E+00
 3.529140651E-01 -6.656748056E-02 1.075634386E+00
 3.643188775E-01 -6.651690602E-02 1.087790268E+00
 3.751230836E-01 -6.633626670E-02 1.102958535E+00
 3.867272139E-01 -6.604313850E-02 1.112232537E+00
 3.986479938E-01 -6.561771780E-02 1.121044827E+00
 4.105488062E-01 -6.506515294E-02 1.142987594E+00
 4.238506556E-01 -6.429023296E-02 1.148063146E+00
 4.366565049E-01 -6.342757493E-02 1.016816518E+00
 4.501236677E-01 -6.237104163E-02 9.382076410E-01
 4.629373252E-01 -6.118245423E-02 9.487286889E-01
 4.756900966E-01 -5.992314219E-02 9.417502258E-01
 4.876465499E-01 -5.864939466E-02 9.317541300E-01
 4.994714558E-01 -5.727578700E-02 9.149107087E-01
 5.125932097E-01 -5.564348772E-02 8.924244084E-01
 5.262287855E-01 -5.387868360E-02 8.762148638E-01
 5.392902493E-01 -5.212867633E-02 8.636113793E-01
 5.533953905E-01 -5.014024302E-02 8.450354878E-01
 5.659560561E-01 -4.832748324E-02 8.316015533E-01
 5.792068243E-01 -4.637676477E-02 8.182047640E-01
 5.921568871E-01 -4.443758354E-02 8.058824155E-01
 6.045914888E-01 -4.254147038E-02 7.928322306E-01
 6.170288920E-01 -4.064772651E-02 7.834225765E-01
 6.309365034E-01 -3.851211816E-02 7.733889887E-01
 6.436049938E-01 -3.652282432E-02 7.594536570E-01
 6.574207544E-01 -3.440591693E-02 7.535098939E-01
 6.709603071E-01 -3.227646276E-02 7.398998132E-01
 6.838359833E-01 -3.028478846E-02 7.313023148E-01
 6.965904236E-01 -2.834341489E-02 7.258477693E-01
 7.112736106E-01 -2.605964243E-02 7.122789252E-01
 7.245944738E-01 -2.406075411E-02 7.075571505E-01
 7.360674739E-01 -2.230534144E-02 6.959893694E-01
 7.485223413E-01 -2.048143744E-02 6.929145999E-01
 7.615773678E-01 -1.852588169E-02 6.795608006E-01
 7.748729587E-01 -1.663270593E-02 6.741247128E-01
 7.872634530E-01 -1.492037531E-02 6.699565441E-01
 7.997013927E-01 -1.318126079E-02 6.589741740E-01
 8.109270334E-01 -1.168202143E-02 6.536979328E-01
 8.219549060E-01 -1.023612265E-02 6.465051705E-01
 8.335071802E-01 -8.752245456E-03 6.364977550E-01
 8.457700610E-01 -7.310966495E-03 6.327281475E-01
 8.575958610E-01 -5.976711866E-03 6.258438288E-01
 8.690881133E-01 -4.760182928E-03 6.197393703E-01
 8.808772564E-01 -3.605685430E-03 6.129832824E-01
 8.939386606E-01 -2.495025517E-03 6.091601973E-01
 9.042024016E-01 -1.743871369E-03 6.075411666E-01
 9.141764641E-01 -1.084476360E-03 6.058013838E-01
 9.240798950E-01 -5.458430969E-04 6.045270132E-01
 9.337733388E-01 -1.017686882E-04 6.045447328E-01
 9.469299912E-01 3.392689105E-04 6.060930263E-01
 9.617288113E-01 6.325435243E-04 6.095760990E-01
 9.765568376E-01 7.356094429E-04 6.134059338E-01
 9.897716045E-01 6.665705587E-04 6.223107533E-01
 -5.000000000E-01 -1.000000000E+00 7.248325996E-01
 3.500000000E+00 -1.000000000E+00 7.250595783E-01
 3.500000000E+00 1.000000000E+00 7.222954293E-01
 -5.000000000E-01 1.000000000E+00 7.248734953E-01
 9.931408167E-01 1.610961393E-03 5.998430303E-01
 9.806977510E-01 3.619955969E-03 6.500937383E-01
 9.687716663E-01 5.544958403E-03 6.774114491E-01
 9.565334916E-01 7.513421588E-03 7.001209447E-01
 9.448273182E-01 9.361380711E-03 7.165898516E-01
 9.339993000E-01 1.104063401E-02 7.327269519E-01
 9.225193858E-01 1.278387383E-02 7.479254342E-01
 9.106054306E-01 1.454432309E-02 7.660482928E-01
 8.985556960E-01 1.621963829E-02 7.767367077E-01
 8.858032823E-01 1.788174268E-02 7.844926955E-01
 8.735117614E-01 1.940771751E-02 7.914180330E-01
 8.611972034E-01 2.086124849E-02 7.942742975E-01
 8.489433527E-01 2.226958703E-02 8.017917179E-01
 8.369708955E-01 2.359242644E-02 8.055204326E-01
 8.242324889E-01 2.494142577E-02 8.080297311E-01
 8.109247088E-01 2.631743252E-02 8.109699661E-01
 7.984299064E-01 2.758610994E-02 8.163958993E-01
 7.861193120E-01 2.880915906E-02 8.200200089E-01
 7.733749151E-01 3.005053289E-02 8.262865516E-01
 7.603815198E-01 3.128381446E-02 8.309659123E-01
 7.466188669E-01 3.255016729E-02 8.355200487E-01
 7.338346541E-01 3.370246850E-02 8.411945650E-01
 7.221550643E-01 3.472698294E-02 8.465333782E-01
 7.100633979E-01 3.575710393E-02 8.506225735E-01
 6.969679594E-01 3.684252501E-02 8.563770731E-01
 6.830810010E-01 3.796062432E-02 8.649248080E-01
 6.705929935E-01 3.892103024E-02 8.704919345E-01
 6.588969529E-01 3.977724165E-02 8.746666971E-01
 6.472089589E-01 4.060428403E-02 8.814269643E-01
 6.354501545E-01 4.139400646E-02 8.873130532E-01
 6.235154271E-01 4.214918986E-02 8.930482703E-01
 6.120786369E-01 4.282329232E-02 8.944861270E-01
 6.000077724E-01 4.349969886E-02 9.036920046E-01
 5.873571634E-01 4.415066727E-02 9.076126461E-01
 5.741513371E-01 4.475658573E-02 9.111451654E-01
 5.605456233E-01 4.532226734E-02 9.168192282E-01
 5.471980274E-01 4.580032825E-02 9.190212363E-01
 5.348026156E-01 4.618246481E-02 9.226747643E-01
 5.228350759E-01 4.648776911E-02 9.219803529E-01
 5.101751089E-01 4.675167054E-02 9.242618973E-01
 4.983655512E-01 4.694362730E-02 9.263773040E-01
 4.863886982E-01 4.706629552E-02 9.234946490E-01
 4.734967351E-01 4.713627696E-02 9.198681235E-01
 4.601584375E-01 4.714853503E-02 9.202248678E-01
 4.459945858E-01 4.708908126E-02 9.167880657E-01
 4.322752655E-01 4.695582762E-02 9.133281383E-01
 4.189537615E-01 4.676321335E-02 9.086161106E-01
 4.061332345E-01 4.652497731E-02 9.059194816E-01
 3.937952071E-01 4.624618962E-02 9.030616507E-01
 3.816339523E-01 4.592021555E-02 8.983590458E-01
 3.702885509E-01 4.557653517E-02 8.962425152E-01
 3.584228307E-01 4.517088272E-02 8.907104120E-01
 3.462611288E-01 4.471651092E-02 8.878103666E-01
 3.347743899E-01 4.425006732E-02 8.840347305E-01
 3.133608401E-01 4.328278825E-02 8.780531357E-01
 3.014913946E-01 4.269091785E-02 8.747203366E-01
 2.886199206E-01 4.200732335E-02 8.704533772E-01
 2.757913321E-01 4.128477536E-02 8.677413847E-01
 2.637041062E-01 4.056207091E-02 8.642429563E-01
 2.516037226E-01 3.979648650E-02 8.600762440E-01
 2.390277013E-01 3.896576539E-02 8.577300840E-01
 2.267533764E-01 3.811343573E-02 8.550293560E-01
 2.152233198E-01 3.726965003E-02 8.512041465E-01
 2.040921673E-01 3.642400354E-02 8.497052762E-01
 1.924999356E-01 3.550306521E-02 8.469828841E-01
 1.804826409E-01 3.450315073E-02 8.443849527E-01
 1.687482893E-01 3.348176740E-02 8.420527354E-01
 1.569200680E-01 3.240364976E-02 8.395418477E-01
 1.455137059E-01 3.131709713E-02 8.385045518E-01
 1.345147789E-01 3.021568526E-02 8.366043894E-01
 1.231549121E-01 2.901905403E-02 8.349053419E-01
 1.119988859E-01 2.778172959E-02 8.338556483E-01
 9.117585421E-02 2.526599914E-02 8.317728469E-01
 7.971830294E-02 2.374432981E-02 8.314820785E-01
 7.125264034E-02 -3.779566288E-02 8.219708019E-01
 8.142904192E-02 -4.011014104E-02 8.356812312E-01
 9.178581089E-02 -4.227646068E-02 8.445338347E-01
 1.026665419E-01 -4.439386167E-02 8.565040083E-01
 1.141970195E-01 -4.647331126E-02 8.662396520E-01
 1.258833930E-01 -4.843686521E-02 8.764135396E-01
 1.368710026E-01 -5.016464554E-02 8.847187284E-01
 1.477505565E-01 -5.176984146E-02 8.946297055E-01
 1.591581628E-01 -5.334528349E-02 9.017349524E-01
 1.707424074E-01 -5.484818108E-02 9.107982114E-01
 1.823538765E-01 -5.625884607E-02 9.198939059E-01
 1.933692545E-01 -5.751257017E-02 9.296418521E-01
 2.040661499E-01 -5.864809826E-02 9.364137246E-01
 2.156676799E-01 -5.979428627E-02 9.453812978E-01
 2.276109084E-01 -6.088970788E-02 9.543181416E-01
 2.395272925E-01 -6.189060770E-02 9.661590156E-01
 2.519268990E-01 -6.283593364E-02 9.743072172E-01
 2.640791982E-01 -6.367091089E-02 9.904067828E-01
 2.762280405E-01 -6.439577416E-02 9.987873628E-01
 2.890080065E-01 -6.505752727E-02 1.010891620E+00
 3.016369641E-01 -6.559627876E-02 1.024526931E+00
 3.137301505E-01 -6.600326300E-02 1.034265407E+00
 3.256660849E-01 -6.630260125E-02 1.042971095E+00
 3.368182927E-01 -6.649116427E-02 1.060793537E+00
 3.473958671E-01 -6.655943394E-02 1.075642321E+00
 3.586164713E-01 -6.654219329E-02 1.078382409E+00
 3.697209805E-01 -6.642658636E-02 1.097426225E+00
 3.809251487E-01 -6.618970260E-02 1.107370681E+00
 3.926876038E-01 -6.583042815E-02 1.116539543E+00
 4.045984000E-01 -6.534143537E-02 1.129109858E+00
 4.171997309E-01 -6.467769295E-02 1.155145277E+00
 4.302535802E-01 -6.385890394E-02 1.102987157E+00
 4.433900863E-01 -6.289930828E-02 9.532203073E-01
 4.565304965E-01 -6.177674793E-02 9.451099411E-01
 4.693137109E-01 -6.055279821E-02 9.465448707E-01
 4.816683233E-01 -5.928626843E-02 9.369301937E-01
 4.935590029E-01 -5.796259083E-02 9.245780174E-01
 5.060323328E-01 -5.645963736E-02 9.034994304E-01
 5.194109976E-01 -5.476108566E-02 8.836607734E-01
 5.327595174E-01 -5.300367996E-02 8.700377205E-01
 5.463428199E-01 -5.113445967E-02 8.545180272E-01
 5.596757233E-01 -4.923386313E-02 8.379761102E-01
 5.725814402E-01 -4.735212401E-02 8.249079217E-01
 5.856818557E-01 -4.540717416E-02 8.118667693E-01
 5.983741879E-01 -4.348952696E-02 7.994264125E-01
 6.108101904E-01 -4.159459844E-02 7.878670936E-01
 6.239826977E-01 -3.957992233E-02 7.785509709E-01
 6.372707486E-01 -3.751747124E-02 7.665621100E-01
 6.505128741E-01 -3.546437062E-02 7.560229129E-01
 6.641905308E-01 -3.334118985E-02 7.472897387E-01
 6.773981452E-01 -3.128062561E-02 7.349658026E-01
 6.902132034E-01 -2.931410167E-02 7.286686901E-01
 7.039320171E-01 -2.720152866E-02 7.194252489E-01
 7.179340422E-01 -2.506019827E-02 7.093217589E-01
 7.303309739E-01 -2.318304777E-02 7.021066090E-01
 7.422949076E-01 -2.139338944E-02 6.941985984E-01
 7.550498545E-01 -1.950365957E-02 6.866883923E-01
 7.682251632E-01 -1.757929381E-02 6.763055503E-01
 7.810682058E-01 -1.577654062E-02 6.720946755E-01
 7.934824228E-01 -1.405081805E-02 6.647217886E-01
 8.053142130E-01 -1.243164111E-02 6.560037396E-01
 8.164409697E-01 -1.095907204E-02 6.502952247E-01
 8.277310431E-01 -9.494184051E-03 6.415208800E-01
 8.396386206E-01 -8.031605976E-03 6.344543089E-01
 8.516829610E-01 -6.643839180E-03 6.293766474E-01
 8.633419871E-01 -5.368447397E-03 6.227409234E-01
 8.749826849E-01 -4.182934179E-03 6.161868764E-01
 8.874079585E-01 -3.050355474E-03 6.112892884E-01
 8.990705311E-01 -2.119448443E-03 6.079171576E-01
 9.403516650E-01 1.187501111E-04 6.050412875E-01
 9.543294013E-01 4.859062174E-04 6.078270787E-01
 9.691428244E-01 6.840764836E-04 6.115933632E-01
 9.831642210E-01 7.010900008E-04 6.155177124E-01
 -5.000000000E-01 9.500000000E-01 7.228699546E-01
 -5.000000000E-01 9.000000000E-01 7.197493967E-01
 -5.000000000E-01 8.500000000E-01 7.173635550E-01
 -5.000000000E-01 8.000000000E-01 7.152986297E-01
 -5.000000000E-01 7.500000000E-01 7.133078312E-01
 -5.000000000E-01 7.000000000E-01 7.113866304E-01
 -5.000000000E-01 6.500000000E-01 7.094118939E-01
 -5.000000000E-01 6.000000000E-01 7.074314619E-01
 -5.000000000E-01 5.500000000E-01 7.053917415E-01
 -5.000000000E-01 5.000000000E-01 7.033139606E-01
 -5.000000000E-01 4.500000000E-01 7.011947781E-01
 -5.000000000E-01 4.000000000E-01 6.990829057E-01
 -5.000000000E-01 3.500000000E-01 6.969760964E-01
 -5.000000000E-01 3.000000000E-01 6.949820270E-01
 -5.000000000E-01 2.500000000E-01 6.930703441E-01
 -5.000000000E-01 2.000000000E-01 6.913753205E-01
 -5.000000000E-01 1.500000000E-01 6.899459985E-01
 -5.000000000E-01 1.000000000E-01 6.888234261E-01
 -5.000000000E-01 5.000000000E-02 6.880762733E-01
 -5.000000000E-01 2.752242878E-12 6.877587769E-01
 -5.000000000E-01 -5.000000000E-02 6.878705582E-01
 -5.000000000E-01 -1.000000000E-01 6.884016472E-01
 -5.000000000E-01 -1.500000000E-01 6.893216961E-01
 -5.000000000E-01 -2.000000000E-01 6.906313967E-01
 -5.000000000E-01 -2.500000000E-01 6.922323196E-01
 -5.000000000E-01 -3.000000000E-01 6.940867408E-01
 -5.000000000E-01 -3.500000000E-01 6.960994197E-01
 -5.000000000E-01 -4.000000000E-01 6.982138414E-01
 -5.000000000E-01 -4.500000000E-01 7.004259541E-01
 -5.000000000E-01 -5.000000000E-01 7.025933673E-01
 -5.000000000E-01 -5.500000000E-01 7.047744017E-01
 -5.000000000E-01 -6.000000000E-01 7.069148897E-01
 -5.000000000E-01 -6.500000000E-01 7.089991265E-01
 -5.000000000E-01 -7.000000000E-01 7.110367690E-01
 -5.000000000E-01 -7.500000000E-01 7.130580707E-01
 -5.000000000E-01 -8.000000000E-01 7.151020033E-01
 -5.000000000E-01 -8.500000000E-01 7.172480717E-01
 -5.000000000E-01 -9.000000000E-01 7.196801061E-01
 -5.000000000E-01 -9.500000000E-01 7.228350986E-01
 -4.500000000E-01 -1.000000000E+00 7.227241441E-01
 -4.000000000E-01 -1.000000000E+00 7.197376641E-01
 -3.500000000E-01 -1.000000000E+00 7.178154021E-01
 -3.000000000E-01 -1.000000000E+00 7.166667848E-01
 -2.500000000E-01 -1.000000000E+00 7.161197804E-01
 -2.000000000E-01 -1.000000000E+00 7.162074400E-01
 -1.500000000E-01 -1.000000000E+00 7.167869135E-01
 -1.000000000E-01 -1.000000000E+00 7.180266702E-01
 -5.000000000E-02 -1.000000000E+00 7.199844066E-01
 -9.424683256E-13 -1.000000000E+00 7.226732397E-01
 5.000000000E-02 -1.000000000E+00 7.259060813E-01
 1.000000000E-01 -1.000000000E+00 7.295044855E-01
 1.500000000E-01 -1.000000000E+00 7.336076551E-01
 2.000000000E-01 -1.000000000E+00 7.378876107E-01
 2.500000000E-01 -1.000000000E+00 7.421539542E-01
 3.000000000E-01 -1.000000000E+00 7.460272379E-01
 3.500000000E-01 -1.000000000E+00 7.494083895E-01
 4.000000000E-01 -1.000000000E+00 7.520773130E-01
 4.500000000E-01 -1.000000000E+00 7.539938770E-01
 5.000000000E-01 -1.000000000E+00 7.548428684E-01
 5.500000000E-01 -1.000000000E+00 7.547991685E-01
 6.000000000E-01 -1.000000000E+00 7.538344175E-01
 6.500000000E-01 -1.000000000E+00 7.523006394E-01
 7.000000000E-01 -1.000000000E+00 7.501921823E-01
 7.500000000E-01 -1.000000000E+00 7.477263310E-01
 8.000000000E-01 -1.000000000E+00 7.448857041E-01
 8.500000000E-01 -1.000000000E+00 7.419575158E-01
 9.000000000E-01 -1.000000000E+00 7.390928053E-01
 9.500000000E-01 -1.000000000E+00 7.358606943E-01
 1.000000000E+00 -1.000000000E+00 7.331290932E-01
 1.050000000E+00 -1.000000000E+00 7.304268748E-01
 1.100000000E+00 -1.000000000E+00 7.278052007E-01
 1.150000000E+00 -1.000000000E+00 7.257713323E-01
 1.200000000E+00 -1.000000000E+00 7.240678355E-01
 1.250000000E+00 -1.000000000E+00 7.225622568E-01
 1.300000000E+00 -1.000000000E+00 7.212393726E-01
 1.350000000E+00 -1.000000000E+00 7.200851392E-01
 1.400000000E+00 -1.000000000E+00 7.190136645E-01
 1.450000000E+00 -1.000000000E+00 7.183396575E-01
 1.500000000E+00 -1.000000000E+00 7.177968116E-01
 1.550000000E+00 -1.000000000E+00 7.173350920E-01
 1.600000000E+00 -1.000000000E+00 7.169698778E-01
 1.650000000E+00 -1.000000000E+00 7.167542109E-01
 1.700000000E+00 -1.000000000E+00 7.164945215E-01
 1.750000000E+00 -1.000000000E+00 7.163877943E-01
 1.800000000E+00 -1.000000000E+00 7.164380519E-01
 1.850000000E+00 -1.000000000E+00 7.164521170E-01
 1.900000000E+00 -1.000000000E+00 7.166560163E-01
 1.950000000E+00 -1.000000000E+00 7.169462554E-01
 2.000000000E+00 -1.000000000E+00 7.170082576E-01
 2.050000000E+00 -1.000000000E+00 7.169396993E-01
 2.100000000E+00 -1.000000000E+00 7.172354534E-01
 2.150000000E+00 -1.000000000E+00 7.169944183E-01
 2.200000000E+00 -1.000000000E+00 7.172276504E-01
 2.250000000E+00 -1.000000000E+00 7.175684968E-01
 2.300000000E+00 -1.000000000E+00 7.177793558E-01
 2.350000000E+00 -1.000000000E+00 7.179039247E-01
 2.400000000E+00 -1.000000000E+00 7.179902278E-01
 2.450000000E+00 -1.000000000E+00 7.181560204E-01
 2.500000000E+00 -1.000000000E+00 7.182553842E-01
 2.550000000E+00 -1.000000000E+00 7.183570974E-01
 2.600000000E+00 -1.000000000E+00 7.184333860E-01
 2.650000000E+00 -1.000000000E+00 7.185077584E-01
 2.700000000E+00 -1.000000000E+00 7.185885142E-01
 2.750000000E+00 -1.000000000E+00 7.188106566E-01
 2.800000000E+00 -1.000000000E+00 7.189102529E-01
 2.850000000E+00 -1.000000000E+00 7.188946817E-01
 2.900000000E+00 -1.000000000E+00 7.189026298E-01
 2.950000000E+00 -1.000000000E+00 7.189430717E-01
 3.000000000E+00 -1.000000000E+00 7.189450534E-01
 3.050000000E+00 -1.000000000E+00 7.189781566E-01
 3.100000000E+00 -1.000000000E+00 7.189887391E-01
 3.150000000E+00 -1.000000000E+00 7.191098290E-01
 3.200000000E+00 -1.000000000E+00 7.189323283E-01
 3.250000000E+00 -1.000000000E+00 7.189439695E-01
 3.300000000E+00 -1.000000000E+00 7.190734830E-01
 3.350000000E+00 -1.000000000E+00 7.195060702E-01
 3.400000000E+00 -1.000000000E+00 7.198719001E-01
 3.450000000E+00 -1.000000000E+00 7.213361085E-01
 3.500000000E+00 -9.500000000E-01 7.277294781E-01
 3.500000000E+00 -9.000000000E-01 7.294539608E-01
 3.500000000E+00 -8.500000000E-01 7.304941548E-01
 3.500000000E+00 -8.000000000E-01 7.310359346E-01
 3.500000000E+00 -7.500000000E-01 7.312050051E-01
 3.500000000E+00 -7.000000000E-01 7.312484920E-01
 3.500000000E+00 -6.500000000E-01 7.313879582E-01
 3.500000000E+00 -6.000000000E-01 7.316326652E-01
 3.500000000E+00 -5.500000000E-01 7.319187145E-01
 3.500000000E+00 -5.000000000E-01 7.322353613E-01
 3.500000000E+00 -4.500000000E-01 7.325483868E-01
 3.500000000E+00 -4.000000000E-01 7.328430050E-01
 3.500000000E+00 -3.500000000E-01 7.331266491E-01
 3.500000000E+00 -3.000000000E-01 7.334246247E-01
 3.500000000E+00 -2.500000000E-01 7.337238745E-01
 3.500000000E+00 -2.000000000E-01 7.339697528E-01
 3.500000000E+00 -1.500000000E-01 7.341153774E-01
 3.500000000E+00 -1.000000000E-01 7.341687958E-01
 3.500000000E+00 -5.000000000E-02 7.341684475E-01
 3.500000000E+00 -2.752242878E-12 7.341614226E-01
 3.500000000E+00 5.000000000E-02 7.341554625E-01
 3.500000000E+00 1.000000000E-01 7.341205310E-01
 3.500000000E+00 1.500000000E-01 7.339972730E-01
 3.500000000E+00 2.000000000E-01 7.337643420E-01
 3.500000000E+00 2.500000000E-01 7.334655872E-01
 3.500000000E+00 3.000000000E-01 7.331631836E-01
 3.500000000E+00 3.500000000E-01 7.328791634E-01
 3.500000000E+00 4.000000000E-01 7.326108613E-01
 3.500000000E+00 4.500000000E-01 7.323256707E-01
 3.500000000E+00 5.000000000E-01 7.320341306E-01
 3.500000000E+00 5.500000000E-01 7.317175680E-01
 3.500000000E+00 6.000000000E-01 7.314229503E-01
 3.500000000E+00 6.500000000E-01 7.312566381E-01
 3.500000000E+00 7.000000000E-01 7.312551198E-01
 3.500000000E+00 7.500000000E-01 7.312889266E-01
 3.500000000E+00 8.000000000E-01 7.310942524E-01
 3.500000000E+00 8.500000000E-01 7.303679567E-01
 3.500000000E+00 9.000000000E-01 7.287559926E-01
 3.500000000E+00 9.500000000E-01 7.260936315E-01
 3.450000000E+00 1.000000000E+00 7.173035844E-01
 3.400000000E+00 1.000000000E+00 7.155677931E-01
 3.350000000E+00 1.000000000E+00 7.153819697E-01
 3.300000000E+00 1.000000000E+00 7.152264916E-01
 3.250000000E+00 1.000000000E+00 7.152895769E-01
 3.200000000E+00 1.000000000E+00 7.154296944E-01
 3.150000000E+00 1.000000000E+00 7.155732245E-01
 3.100000000E+00 1.000000000E+00 7.157457956E-01
 3.050000000E+00 1.000000000E+00 7.159689371E-01
 3.000000000E+00 1.000000000E+00 7.161762499E-01
 2.950000000E+00 1.000000000E+00 7.162196325E-01
 2.900000000E+00 1.000000000E+00 7.163022316E-01
 2.850000000E+00 1.000000000E+00 7.162729722E-01
 2.800000000E+00 1.000000000E+00 7.165931153E-01
 2.750000000E+00 1.000000000E+00 7.170629491E-01
 2.700000000E+00 1.000000000E+00 7.172613686E-01
 2.650000000E+00 1.000000000E+00 7.171418656E-01
 2.600000000E+00 1.000000000E+00 7.174048496E-01
 2.550000000E+00 1.000000000E+00 7.176796526E-01
 2.500000000E+00 1.000000000E+00 7.179044952E-01
 2.450000000E+00 1.000000000E+00 7.181333025E-01
 2.400000000E+00 1.000000000E+00 7.183137266E-01
 2.350000000E+00 1.000000000E+00 7.185823640E-01
 2.300000000E+00 1.000000000E+00 7.187652560E-01
 2.250000000E+00 1.000000000E+00 7.190679989E-01
 2.200000000E+00 1.000000000E+00 7.193266466E-01
 2.150000000E+00 1.000000000E+00 7.194531587E-01
 2.100000000E+00 1.000000000E+00 7.197401291E-01
 2.050000000E+00 1.000000000E+00 7.200579241E-01
 2.000000000E+00 1.000000000E+00 7.204342755E-01
 1.950000000E+00 1.000000000E+00 7.206686134E-01
 1.900000000E+00 1.000000000E+00 7.208933271E-01
 1.850000000E+00 1.000000000E+00 7.212955395E-01
 1.800000000E+00 1.000000000E+00 7.219214944E-01
 1.750000000E+00 1.000000000E+00 7.225394071E-01
 1.700000000E+00 1.000000000E+00 7.234470994E-01
 1.650000000E+00 1.000000000E+00 7.240293704E-01
 1.600000000E+00 1.000000000E+00 7.247054512E-01
 1.550000000E+00 1.000000000E+00 7.262776433E-01
 1.500000000E+00 1.000000000E+00 7.272317886E-01
 1.450000000E+00 1.000000000E+00 7.284160873E-01
 1.400000000E+00 1.000000000E+00 7.296775889E-01
 1.350000000E+00 1.000000000E+00 7.306618209E-01
 1.300000000E+00 1.000000000E+00 7.328954260E-01
 1.250000000E+00 1.000000000E+00 7.349097898E-01
 1.200000000E+00 1.000000000E+00 7.365893059E-01
 1.150000000E+00 1.000000000E+00 7.385088972E-01
 1.100000000E+00 1.000000000E+00 7.406787484E-01
 1.050000000E+00 1.000000000E+00 7.434009267E-01
 1.000000000E+00 1.000000000E+00 7.458241317E-01
 9.500000000E-01 1.000000000E+00 7.483845931E-01
 9.000000000E-01 1.000000000E+00 7.505003366E-01
 8.500000000E-01 1.000000000E+00 7.524518933E-01
 8.000000000E-01 1.000000000E+00 7.538870384E-01
 7.500000000E-01 1.000000000E+00 7.546004614E-01
 7.000000000E-01 1.000000000E+00 7.552527162E-01
 6.500000000E-01 1.000000000E+00 7.557055816E-01
 6.000000000E-01 1.000000000E+00 7.550427956E-01
 5.500000000E-01 1.000000000E+00 7.538685395E-01
 5.000000000E-01 1.000000000E+00 7.519786253E-01
 4.500000000E-01 1.000000000E+00 7.495040844E-01
 4.000000000E-01 1.000000000E+00 7.467971959E-01
 3.500000000E-01 1.000000000E+00 7.432833390E-01
 3.000000000E-01 1.000000000E+00 7.398272943E-01
 2.500000000E-01 1.000000000E+00 7.361092117E-01
 2.000000000E-01 1.000000000E+00 7.324920799E-01
 1.500000000E-01 1.000000000E+00 7.288163008E-01
 1.000000000E-01 1.000000000E+00 7.255083519E-01
 5.000000000E-02 1.000000000E+00 7.226306630E-01
 1.733724275E-12 1.000000000E+00 7.202127301E-01
 -5.000000000E-02 1.000000000E+00 7.182323539E-01
 -1.000000000E-01 1.000000000E+00 7.168049699E-01
 -1.500000000E-01 1.000000000E+00 7.159542029E-01
 -2.000000000E-01 1.000000000E+00 7.156491584E-01
 -2.500000000E-01 1.000000000E+00 7.158595301E-01
 -3.000000000E-01 1.000000000E+00 7.165614663E-01
 -3.500000000E-01 1.000000000E+00 7.178253615E-01
 -4.000000000E-01 1.000000000E+00 7.197649157E-01
 -4.500000000E-01 1.000000000E+00 7.227038559E-01
 8.911193695E-01 -7.805296211E-03 6.134430861E-01
 8.139658630E-01 -1.618710779E-02 6.533880480E-01
 7.465152725E-01 -2.635485353E-02 6.937030464E-01
 6.742289163E-01 -3.724046281E-02 7.385351196E-01
 9.799945454E-01 -5.366006571E-03 6.181833273E-01
 6.083484750E-01 -4.699201071E-02 7.895420451E-01
 5.436453212E-01 -5.751064479E-02 8.564247671E-01
 4.788967455E-01 -6.529698749E-02 9.337392544E-01
 4.215820686E-01 -6.996784639E-02 1.149197476E+00
 3.615723042E-01 -7.113826117E-02 1.078318389E+00
 3.046824011E-01 -7.067413705E-02 1.023456862E+00
 2.490142580E-01 -6.871151307E-02 9.690768562E-01
 1.903255719E-01 -6.166421060E-02 9.245372696E-01
 1.390621650E-01 -5.436718462E-02 8.848632954E-01
 8.779103269E-02 -4.622778664E-02 8.361351807E-01
 5.102907427E-02 -3.971204351E-02 7.747094479E-01
 1.573261238E-02 -2.242770701E-02 6.196927466E-01
 1.974896750E+00 -9.585384177E-01 7.206780704E-01
 1.971535911E+00 9.537892883E-01 7.271460296E-01
 9.370373302E-01 1.450745960E-02 7.280765234E-01
 8.829386212E-01 2.460665022E-02 7.848395939E-01
 8.217765229E-01 3.098945548E-02 8.085165355E-01