TITLE     = "Visualization of the solution"
VARIABLES = "x"
"y"
"Mach"
ZONE T="Zone"
 STRANDID=0, SOLUTIONTIME=0
 Nodes=12002, Elements=23422, ZONETYPE=FEQuadrilateral
 DATAPACKING=POINT
 DT=(DOUBLE DOUBLE DOUBLE )
 1.000322700E+00 5.134797539E-04 5.438138640E-01
 9.880658984E-01 2.825506497E-03 6.502520610E-01
 9.753223658E-01 5.157809705E-03 6.740443414E-01
 9.597402811E-01 8.101943880E-03 6.992041430E-01
 9.451940060E-01 1.087557711E-02 7.253257703E-01
 9.303540587E-01 1.354167331E-02 7.325551208E-01
 9.183673859E-01 1.576941088E-02 7.507338845E-01
 9.060625434E-01 1.802179404E-02 7.673367477E-01
 8.937674761E-01 2.017811872E-02 7.737181958E-01
 8.818510175E-01 2.230555378E-02 7.933929589E-01
 8.696663976E-01 2.437300794E-02 8.033473980E-01
 8.573169708E-01 2.637794986E-02 8.069502876E-01
 8.450295925E-01 2.838652208E-02 8.234702938E-01
 8.335531354E-01 3.013654426E-02 8.224634679E-01
 8.221213818E-01 3.189770505E-02 8.333347735E-01
 8.095567226E-01 3.376673907E-02 8.391990632E-01
 7.966924906E-01 3.563760966E-02 8.449793131E-01
 7.843419909E-01 3.741092235E-02 8.534300806E-01
 7.718850374E-01 3.916671872E-02 8.632478594E-01
 7.600784898E-01 4.078134522E-02 8.699894616E-01
 7.467617989E-01 4.254266247E-02 8.736277581E-01
 7.331588268E-01 4.433218017E-02 8.854108174E-01
 7.224465013E-01 4.570661858E-02 8.948861115E-01
 7.114197612E-01 4.707770050E-02 9.032640864E-01
 6.998668313E-01 4.846790433E-02 9.092955612E-01
 6.866226792E-01 4.999485239E-02 9.128942872E-01
 6.738306880E-01 5.147494376E-02 9.329977765E-01
 6.634805202E-01 5.259151012E-02 9.361183894E-01
 6.520119309E-01 5.377779528E-02 9.397492461E-01
 6.405994296E-01 5.494406447E-02 9.525051540E-01
 6.287482381E-01 5.608544499E-02 9.639474686E-01
 6.175530553E-01 5.712113902E-02 9.750487638E-01
 6.069039702E-01 5.802306160E-02 9.760529038E-01
 5.945545435E-01 5.903795734E-02 9.891110609E-01
 5.828790665E-01 5.992269889E-02 9.945286731E-01
 5.695910454E-01 6.086211652E-02 1.000503597E+00
 5.570604205E-01 6.165840104E-02 1.012241436E+00
 5.446770787E-01 6.239017472E-02 1.034659902E+00
 5.334573388E-01 6.295082718E-02 1.045184347E+00
 5.216919780E-01 6.350715458E-02 1.053278932E+00
 5.091603398E-01 6.400135905E-02 1.048696410E+00
 4.980843067E-01 6.439594179E-02 1.043340927E+00
 4.847854078E-01 6.477032602E-02 1.032238184E+00
 4.715824723E-01 6.505255401E-02 1.025786947E+00
 4.576676190E-01 6.526775658E-02 1.028856617E+00
 4.443621039E-01 6.541550905E-02 1.029764180E+00
 4.316118658E-01 6.545638293E-02 1.018096952E+00
 4.187457860E-01 6.542745233E-02 1.014530790E+00
 4.064506888E-01 6.534153223E-02 1.009840964E+00
 3.940796852E-01 6.516817212E-02 1.001175776E+00
 3.821127117E-01 6.495527178E-02 9.974558603E-01
 3.704626262E-01 6.467256695E-02 9.894276202E-01
 3.574353158E-01 6.430631876E-02 9.875079664E-01
 3.450065255E-01 6.388143450E-02 9.819342828E-01
 3.323424459E-01 6.337994337E-02 9.778241157E-01
 3.213660419E-01 6.288676709E-02 9.721089942E-01
 3.087001145E-01 6.224933267E-02 9.654094497E-01
 2.957951725E-01 6.152796000E-02 9.596033394E-01
 2.819568217E-01 6.067549065E-02 9.550328935E-01
 2.696130872E-01 5.983344465E-02 9.481250869E-01
 2.577758133E-01 5.896336585E-02 9.421104342E-01
 2.452558577E-01 5.797193572E-02 9.368771041E-01
 2.329119891E-01 5.692423135E-02 9.327999992E-01
 2.206897885E-01 5.580154061E-02 9.263074279E-01
 2.089450210E-01 5.464402214E-02 9.193063636E-01
 1.973612309E-01 5.343784019E-02 9.143960188E-01
 1.851714104E-01 5.208117142E-02 9.079375444E-01
 1.733130664E-01 5.067345500E-02 9.017374928E-01
 1.620210409E-01 4.925255105E-02 8.957171455E-01
 1.501030326E-01 4.764689505E-02 8.875043384E-01
 1.393843144E-01 4.612229392E-02 8.804930023E-01
 1.278613061E-01 4.439087957E-02 8.746945194E-01
 1.163990349E-01 4.254316539E-02 8.668171513E-01
 1.058514938E-01 4.073794931E-02 8.574282749E-01
 9.602314234E-02 3.894262388E-02 8.501692041E-01
 8.490313590E-02 3.677406907E-02 8.385879774E-01
 7.329954952E-02 3.433245048E-02 8.281368414E-01
 6.326006353E-02 3.204393387E-02 8.168603786E-01
 5.341390520E-02 2.959593013E-02 8.004868757E-01
 4.461480305E-02 2.721373178E-02 7.878660024E-01
 3.705693781E-02 2.496616356E-02 7.732801818E-01
 3.033964150E-02 2.277767658E-02 7.572830798E-01
 2.470756695E-02 2.076255158E-02 7.407360888E-01
 2.064365335E-02 1.916482113E-02 7.226203843E-01
 1.679491065E-02 1.752569899E-02 7.038685239E-01
 1.385897212E-02 1.615466364E-02 6.840898794E-01
 1.115895063E-02 1.477927901E-02 6.638410136E-01
 9.162331931E-03 1.366803888E-02 6.430201683E-01
 7.385141216E-03 1.259719301E-02 6.202817533E-01
 5.775642581E-03 1.152969059E-02 5.904353041E-01
 3.648316721E-03 9.929833002E-03 5.454675315E-01
 1.840338926E-03 8.306412026E-03 4.855925372E-01
 3.272923059E-04 6.598498672E-03 3.960198882E-01
 -1.090060221E-03 4.278782755E-03 2.724195067E-01
 -1.695110230E-03 2.481032629E-03 1.469353734E-01
 -1.870751730E-03 1.054411754E-03 2.645112756E-02
 -1.767044188E-03 -5.139444838E-04 9.659556073E-02
 -1.317374525E-03 -2.176953014E-03 2.126644611E-01
 -3.602822835E-04 -4.135275260E-03 3.259984709E-01
 1.097763889E-03 -6.147364154E-03 4.215705807E-01
 3.089184174E-03 -8.207479492E-03 5.039277512E-01
 4.917739425E-03 -9.759977460E-03 5.608619589E-01
 7.051643450E-03 -1.132333651E-02 6.010204456E-01
 8.713307790E-03 -1.241259277E-02 6.344280511E-01
 1.078343671E-02 -1.364878565E-02 6.577582434E-01
 1.316026598E-02 -1.494533196E-02 6.810666673E-01
 1.643371023E-02 -1.656251587E-02 7.075856075E-01
 1.942650788E-02 -1.790421084E-02 7.318146922E-01
 2.333912998E-02 -1.951176487E-02 7.501847852E-01
 2.862849832E-02 -2.146829851E-02 7.689977902E-01
 3.437457606E-02 -2.338975109E-02 7.864101287E-01
 4.138150439E-02 -2.549902722E-02 8.016412803E-01
 4.888800159E-02 -2.754609659E-02 8.136909142E-01
 5.777725205E-02 -2.975194529E-02 8.232069563E-01
 6.653738022E-02 -3.173793107E-02 8.329394522E-01
 7.675547153E-02 -3.387004510E-02 8.424364227E-01
 8.664022386E-02 -3.577072546E-02 8.471428427E-01
 9.687059373E-02 -3.760743886E-02 8.558903535E-01
 1.078825295E-01 -3.945314139E-02 8.626824578E-01
 1.190573573E-01 -4.119547457E-02 8.680820970E-01
 1.307486892E-01 -4.290872440E-02 8.749415343E-01
 1.414916068E-01 -4.438516498E-02 8.813510977E-01
 1.527628899E-01 -4.584930837E-02 8.880539676E-01
 1.648955047E-01 -4.732433707E-02 8.943100577E-01
 1.766327322E-01 -4.866773635E-02 9.023449149E-01
 1.884905845E-01 -4.993406311E-02 9.092857033E-01
 1.991887391E-01 -5.100647733E-02 9.164285394E-01
 2.105932385E-01 -5.207700655E-02 9.244295407E-01
 2.227402925E-01 -5.312702060E-02 9.309463162E-01
 2.351589948E-01 -5.411689356E-02 9.384599551E-01
 2.476389408E-01 -5.503257364E-02 9.509079294E-01
 2.601116896E-01 -5.583316833E-02 9.575041568E-01
 2.712180018E-01 -5.647017062E-02 9.636477354E-01
 2.838951051E-01 -5.711977184E-02 9.758223043E-01
 2.961944640E-01 -5.763109773E-02 9.842704120E-01
 3.089524806E-01 -5.806844309E-02 9.942527715E-01
 3.207049370E-01 -5.835628137E-02 1.000345369E+00
 3.332970738E-01 -5.857191980E-02 1.009066216E+00
 3.440859318E-01 -5.865544453E-02 1.021406125E+00
 3.553366363E-01 -5.862655491E-02 1.015170199E+00
 3.663550615E-01 -5.853310227E-02 1.016826252E+00
 3.771364093E-01 -5.833006278E-02 1.017686342E+00
 3.887309134E-01 -5.800983682E-02 1.010770050E+00
 4.016033411E-01 -5.750621855E-02 9.919853909E-01
 4.140484631E-01 -5.692040920E-02 9.855529503E-01
 4.268916249E-01 -5.615300313E-02 9.724758821E-01
 4.392963648E-01 -5.528065190E-02 9.510424397E-01
 4.514455199E-01 -5.433315039E-02 9.388174844E-01
 4.633665979E-01 -5.328874290E-02 9.242091372E-01
 4.758174121E-01 -5.209549516E-02 9.082294115E-01
 4.872775972E-01 -5.090055242E-02 8.916399553E-01
 4.997548759E-01 -4.952459782E-02 8.757153716E-01
 5.134470463E-01 -4.791987687E-02 8.586741518E-01
 5.268219709E-01 -4.628178477E-02 8.444180544E-01
 5.400525928E-01 -4.458021745E-02 8.273205631E-01
 5.529648662E-01 -4.289146513E-02 8.165675003E-01
 5.663071871E-01 -4.107288271E-02 8.015995431E-01
 5.791633725E-01 -3.928375244E-02 7.873510933E-01
 5.914143920E-01 -3.756989911E-02 7.763754966E-01
 6.041740775E-01 -3.577402979E-02 7.660564870E-01
 6.181835532E-01 -3.379052505E-02 7.551275878E-01
 6.326110363E-01 -3.173761070E-02 7.442092544E-01
 6.471819282E-01 -2.967304736E-02 7.353796632E-01
 6.601412892E-01 -2.781837247E-02 7.249522159E-01
 6.734479070E-01 -2.591437846E-02 7.141251780E-01
 6.862079501E-01 -2.412839420E-02 7.070617648E-01
 6.985158324E-01 -2.242473513E-02 6.999955677E-01
 7.131172419E-01 -2.041566744E-02 6.912516043E-01
 7.262753248E-01 -1.863616705E-02 6.849384816E-01
 7.379005551E-01 -1.704002172E-02 6.735654455E-01
 7.513403893E-01 -1.529906504E-02 6.699164298E-01
 7.634965777E-01 -1.369978953E-02 6.588613693E-01
 7.770749927E-01 -1.202468574E-02 6.551160913E-01
 7.891168594E-01 -1.055785082E-02 6.488422443E-01
 8.015708923E-01 -9.045945480E-03 6.385367527E-01
 8.126109242E-01 -7.771519944E-03 6.316915925E-01
 8.242736459E-01 -6.508820690E-03 6.267777956E-01
 8.371433616E-01 -5.193827674E-03 6.215025405E-01
 8.496340513E-01 -3.985672258E-03 6.149956852E-01
 8.616806269E-01 -2.894626930E-03 6.077350379E-01
 8.730549216E-01 -1.968157245E-03 6.026658227E-01
 8.849515319E-01 -1.122455345E-03 5.992613144E-01
 8.980794549E-01 -3.157186438E-04 5.951462153E-01
 9.082895517E-01 2.082235733E-04 5.920723244E-01
 9.188846946E-01 6.411274662E-04 5.907158505E-01
 9.288468361E-01 9.457342676E-04 5.901736099E-01
 9.378368258E-01 1.144936541E-03 5.895149587E-01
 9.499257207E-01 1.292434754E-03 5.898438081E-01
 9.629153013E-01 1.305332989E-03 5.901745156E-01
 9.767709970E-01 1.160477637E-03 5.892049598E-01
 9.891629815E-01 8.864747942E-04 5.827649449E-01
 -5.000000000E-01 -1.000000000E+00 7.240796843E-01
 3.500000000E+00 -1.000000000E+00 7.281978342E-01
 3.500000000E+00 1.000000000E+00 7.123227414E-01
 -5.000000000E-01 1.000000000E+00 7.244208348E-01
 9.941942990E-01 1.669493126E-03 6.286389433E-01
 9.816941321E-01 3.991658101E-03 6.623807164E-01
 9.675313234E-01 6.629876792E-03 6.866256241E-01
 9.524671435E-01 9.488760494E-03 7.137624614E-01
 9.377740324E-01 1.220862521E-02 7.289555635E-01
 9.243607223E-01 1.465554209E-02 7.411851678E-01
 9.122149646E-01 1.689560246E-02 7.602188589E-01
 8.999150097E-01 1.909995638E-02 7.696315170E-01
 8.878092468E-01 2.124183625E-02 7.837573974E-01
 8.757587075E-01 2.333928086E-02 7.996051278E-01
 8.634916842E-01 2.537547890E-02 8.036963149E-01
 8.511732817E-01 2.738223597E-02 8.167829478E-01
 8.392913640E-01 2.926153317E-02 8.221923095E-01
 8.278372586E-01 3.101712465E-02 8.280624857E-01
 8.158390522E-01 3.283222206E-02 8.364745171E-01
 8.031246066E-01 3.470217437E-02 8.418274279E-01
 7.905172408E-01 3.652426600E-02 8.489510461E-01
 7.781135142E-01 3.828882053E-02 8.584002846E-01
 7.659817636E-01 3.997403197E-02 8.673709406E-01
 7.534201443E-01 4.166200384E-02 8.710380599E-01
 7.399603128E-01 4.343742132E-02 8.791895800E-01
 7.278026640E-01 4.501939937E-02 8.906295451E-01
 7.169331312E-01 4.639215954E-02 8.989289283E-01
 7.056432962E-01 4.777280241E-02 9.074626868E-01
 6.932447553E-01 4.923137836E-02 9.087157997E-01
 6.802266836E-01 5.073489808E-02 9.236889749E-01
 6.686556041E-01 5.203322694E-02 9.360305211E-01
 6.577462256E-01 5.318465270E-02 9.361638221E-01
 6.463056803E-01 5.436092988E-02 9.468155272E-01
 6.346738338E-01 5.551475473E-02 9.567992284E-01
 6.231506467E-01 5.660329200E-02 9.718821843E-01
 6.122285128E-01 5.757210031E-02 9.739151831E-01
 6.007292569E-01 5.853050947E-02 9.829854410E-01
 5.887168050E-01 5.948032811E-02 9.920711246E-01
 5.762350559E-01 6.039240770E-02 9.978095917E-01
 5.633257329E-01 6.126025878E-02 1.003667877E+00
 5.508687496E-01 6.202428788E-02 1.025186391E+00
 5.390672088E-01 6.267050095E-02 1.038894187E+00
 5.275746584E-01 6.322899088E-02 1.052409893E+00
 5.154261589E-01 6.375425681E-02 1.049952819E+00
 5.036223233E-01 6.419865042E-02 1.047934484E+00
 4.914348572E-01 6.458313391E-02 1.037320436E+00
 4.781839401E-01 6.491144001E-02 1.028092221E+00
 4.646250457E-01 6.516015530E-02 1.026006099E+00
 4.510148615E-01 6.534163281E-02 1.031898470E+00
 4.379869848E-01 6.543594599E-02 1.023576111E+00
 4.251788259E-01 6.544191763E-02 1.015263119E+00
 4.125982374E-01 6.538449228E-02 1.013779580E+00
 4.002651870E-01 6.525485218E-02 1.004161201E+00
 3.880961984E-01 6.506172195E-02 1.000355599E+00
 3.762876689E-01 6.481391937E-02 9.926053506E-01
 3.639489710E-01 6.448944286E-02 9.886994776E-01
 3.512209207E-01 6.409387663E-02 9.847985642E-01
 3.386744857E-01 6.363068894E-02 9.795971451E-01
 3.268542439E-01 6.313335523E-02 9.754918742E-01
 3.150330782E-01 6.256804988E-02 9.686498006E-01
 3.022476435E-01 6.188864633E-02 9.623638054E-01
 2.888759971E-01 6.110172532E-02 9.573570114E-01
 2.757849544E-01 6.025446765E-02 9.515169051E-01
 2.636944503E-01 5.939840525E-02 9.452264932E-01
 2.515158355E-01 5.846765079E-02 9.391275476E-01
 2.390839234E-01 5.744808353E-02 9.351091294E-01
 2.268008888E-01 5.636288598E-02 9.297625202E-01
 2.148174047E-01 5.522278138E-02 9.224368649E-01
 2.031531259E-01 5.404093117E-02 9.171712347E-01
 1.912663206E-01 5.275950581E-02 9.111791362E-01
 1.792422384E-01 5.137731321E-02 9.045592104E-01
 1.676670536E-01 4.996300302E-02 8.993293350E-01
 1.560620368E-01 4.844972305E-02 8.912690564E-01
 1.447436735E-01 4.688459449E-02 8.839817553E-01
 1.336228102E-01 4.525658675E-02 8.780341390E-01
 1.221301705E-01 4.346702248E-02 8.701553466E-01
 1.111252643E-01 4.164055735E-02 8.636666152E-01
 9.046313912E-02 3.785834648E-02 8.447167058E-01
 7.910134271E-02 3.555325978E-02 8.330989375E-01
 6.827980652E-02 3.318819217E-02 8.228863509E-01
 5.833698437E-02 3.081993200E-02 8.103795279E-01
 7.164642587E-02 -3.280398808E-02 8.391756967E-01
 9.175540879E-02 -3.668908216E-02 8.525823744E-01
 1.023765616E-01 -3.853029013E-02 8.589557110E-01
 1.134699434E-01 -4.032430798E-02 8.658108368E-01
 1.249030232E-01 -4.205209948E-02 8.710547350E-01
 1.361201480E-01 -4.364694469E-02 8.786316162E-01
 1.471272483E-01 -4.511723667E-02 8.845511132E-01
 1.588291973E-01 -4.658682272E-02 8.910933162E-01
 1.707641184E-01 -4.799603671E-02 8.982410559E-01
 1.825616583E-01 -4.930089973E-02 9.059443635E-01
 1.938396618E-01 -5.047027022E-02 9.129654065E-01
 2.048909888E-01 -5.154174194E-02 9.202110152E-01
 2.166667655E-01 -5.260201357E-02 9.278739359E-01
 2.289496437E-01 -5.362195708E-02 9.343051116E-01
 2.413989678E-01 -5.457473360E-02 9.442043518E-01
 2.538753152E-01 -5.543287098E-02 9.551903386E-01
 2.656648457E-01 -5.615166947E-02 9.603146571E-01
 2.775565535E-01 -5.679497123E-02 9.686937702E-01
 2.900447845E-01 -5.737543479E-02 9.812199364E-01
 3.025734723E-01 -5.784977041E-02 9.883037462E-01
 3.148287088E-01 -5.821236223E-02 9.986645595E-01
 3.270010054E-01 -5.846410058E-02 1.002855901E+00
 3.386915028E-01 -5.861368217E-02 1.016663543E+00
 3.497112840E-01 -5.864099972E-02 1.020206466E+00
 3.608458489E-01 -5.857982859E-02 1.013607948E+00
 3.717457354E-01 -5.843158253E-02 1.019090576E+00
 3.829336613E-01 -5.816994980E-02 1.014812884E+00
 3.951671273E-01 -5.775802769E-02 1.002126803E+00
 4.078259021E-01 -5.721331388E-02 9.868663906E-01
 4.204700440E-01 -5.653670616E-02 9.811787055E-01
 4.330939949E-01 -5.571682751E-02 9.616006163E-01
 4.453709424E-01 -5.480690114E-02 9.439023503E-01
 4.574060589E-01 -5.381094664E-02 9.324205849E-01
 4.695920050E-01 -5.269211903E-02 9.158228424E-01
 4.815475047E-01 -5.149802379E-02 9.004131704E-01
 4.935162365E-01 -5.021257512E-02 8.834663191E-01
 5.066009611E-01 -4.872223735E-02 8.670854343E-01
 5.201345086E-01 -4.710083082E-02 8.514170618E-01
 5.334372818E-01 -4.543100111E-02 8.359892865E-01
 5.465087295E-01 -4.373584129E-02 8.214683154E-01
 5.596360266E-01 -4.198217392E-02 8.095889422E-01
 5.727352798E-01 -4.017831758E-02 7.942067961E-01
 5.852888823E-01 -3.842682578E-02 7.815357805E-01
 5.977942348E-01 -3.667196445E-02 7.713539126E-01
 6.111788154E-01 -3.478227742E-02 7.605724639E-01
 6.253972948E-01 -3.276406787E-02 7.495895001E-01
 6.398964822E-01 -3.070532903E-02 7.396834763E-01
 6.536616087E-01 -2.874570992E-02 7.303436961E-01
 6.667945981E-01 -2.686637547E-02 7.194202006E-01
 6.798279285E-01 -2.502138633E-02 7.102520101E-01
 6.923618913E-01 -2.327656467E-02 7.035817523E-01
 7.058165371E-01 -2.142020129E-02 6.957209468E-01
 7.196962833E-01 -1.952591725E-02 6.879991828E-01
 7.320879400E-01 -1.783809438E-02 6.792738394E-01
 7.446204722E-01 -1.616954338E-02 6.717009566E-01
 7.574184835E-01 -1.449942729E-02 6.644792917E-01
 7.702857852E-01 -1.286223764E-02 6.567454759E-01
 7.830959260E-01 -1.129126828E-02 6.521304626E-01
 7.953438759E-01 -9.801898152E-03 6.438880232E-01
 8.070909083E-01 -8.408732712E-03 6.347693742E-01
 8.184422851E-01 -7.140170317E-03 6.291824185E-01
 8.307085037E-01 -5.851324182E-03 6.242058474E-01
 8.433887064E-01 -4.589749966E-03 6.183777952E-01
 8.556573391E-01 -3.440149594E-03 6.113755510E-01
 8.673677742E-01 -2.431392088E-03 6.049751511E-01
 8.790032268E-01 -1.545306295E-03 6.007793285E-01
 8.915154934E-01 -7.190869946E-04 5.975647733E-01
 9.031845033E-01 -5.374753528E-05 5.930438981E-01
 9.135871232E-01 4.246755198E-04 5.912862691E-01
 9.438812733E-01 1.218685647E-03 5.897154120E-01
 9.564205110E-01 1.298883872E-03 5.901250645E-01
 9.698431492E-01 1.232905313E-03 5.899275203E-01
 9.829669893E-01 1.023476216E-03 5.858324950E-01
 9.947428405E-01 6.999772741E-04 5.804391361E-01
 -5.000000000E-01 9.500000000E-01 7.221759038E-01
 -5.000000000E-01 9.000000000E-01 7.186721727E-01
 -5.000000000E-01 8.500000000E-01 7.160411080E-01
 -5.000000000E-01 8.000000000E-01 7.137245599E-01
 -5.000000000E-01 7.500000000E-01 7.114470655E-01
 -5.000000000E-01 7.000000000E-01 7.092214500E-01
 -5.000000000E-01 6.500000000E-01 7.069599603E-01
 -5.000000000E-01 6.000000000E-01 7.046777810E-01
 -5.000000000E-01 5.500000000E-01 7.022984055E-01
 -5.000000000E-01 5.000000000E-01 6.998852116E-01
 -5.000000000E-01 4.500000000E-01 6.974578587E-01
 -5.000000000E-01 4.000000000E-01 6.949882026E-01
 -5.000000000E-01 3.500000000E-01 6.925821883E-01
 -5.000000000E-01 3.000000000E-01 6.902472601E-01
 -5.000000000E-01 2.500000000E-01 6.881230292E-01
 -5.000000000E-01 2.000000000E-01 6.862511419E-01
 -5.000000000E-01 1.500000000E-01 6.846300566E-01
 -5.000000000E-01 1.000000000E-01 6.834086728E-01
 -5.000000000E-01 5.000000000E-02 6.826434184E-01
 -5.000000000E-01 2.752242878E-12 6.823448209E-01
 -5.000000000E-01 -5.000000000E-02 6.825022881E-01
 -5.000000000E-01 -1.000000000E-01 6.831950226E-01
 -5.000000000E-01 -1.500000000E-01 6.842912825E-01
 -5.000000000E-01 -2.000000000E-01 6.857554341E-01
 -5.000000000E-01 -2.500000000E-01 6.875590261E-01
 -5.000000000E-01 -3.000000000E-01 6.895887205E-01
 -5.000000000E-01 -3.500000000E-01 6.917800473E-01
 -5.000000000E-01 -4.000000000E-01 6.941102460E-01
 -5.000000000E-01 -4.500000000E-01 6.964850228E-01
 -5.000000000E-01 -5.000000000E-01 6.988721166E-01
 -5.000000000E-01 -5.500000000E-01 7.012185596E-01
 -5.000000000E-01 -6.000000000E-01 7.035649536E-01
 -5.000000000E-01 -6.500000000E-01 7.058414622E-01
 -5.000000000E-01 -7.000000000E-01 7.080910970E-01
 -5.000000000E-01 -7.500000000E-01 7.103442997E-01
 -5.000000000E-01 -8.000000000E-01 7.126899223E-01
 -5.000000000E-01 -8.500000000E-01 7.151015757E-01
 -5.000000000E-01 -9.000000000E-01 7.179695055E-01
 -5.000000000E-01 -9.500000000E-01 7.216557652E-01
 -4.500000000E-01 -1.000000000E+00 7.215114569E-01
 -4.000000000E-01 -1.000000000E+00 7.179113621E-01
 -3.500000000E-01 -1.000000000E+00 7.155703980E-01
 -3.000000000E-01 -1.000000000E+00 7.140401660E-01
 -2.500000000E-01 -1.000000000E+00 7.131188828E-01
 -2.000000000E-01 -1.000000000E+00 7.127925978E-01
 -1.500000000E-01 -1.000000000E+00 7.130373440E-01
 -1.000000000E-01 -1.000000000E+00 7.139273482E-01
 -5.000000000E-02 -1.000000000E+00 7.154172216E-01
 -9.424683256E-13 -1.000000000E+00 7.174036061E-01
 5.000000000E-02 -1.000000000E+00 7.198696549E-01
 1.000000000E-01 -1.000000000E+00 7.227622493E-01
 1.500000000E-01 -1.000000000E+00 7.260003924E-01
 2.000000000E-01 -1.000000000E+00 7.294368065E-01
 2.500000000E-01 -1.000000000E+00 7.329589433E-01
 3.000000000E-01 -1.000000000E+00 7.360397349E-01
 3.500000000E-01 -1.000000000E+00 7.387309696E-01
 4.000000000E-01 -1.000000000E+00 7.409662210E-01
 4.500000000E-01 -1.000000000E+00 7.425195851E-01
 5.000000000E-01 -1.000000000E+00 7.432885707E-01
 5.500000000E-01 -1.000000000E+00 7.433668904E-01
 6.000000000E-01 -1.000000000E+00 7.427165907E-01
 6.500000000E-01 -1.000000000E+00 7.414815104E-01
 7.000000000E-01 -1.000000000E+00 7.397403655E-01
 7.500000000E-01 -1.000000000E+00 7.375987912E-01
 8.000000000E-01 -1.000000000E+00 7.351438017E-01
 8.500000000E-01 -1.000000000E+00 7.325477241E-01
 9.000000000E-01 -1.000000000E+00 7.300458810E-01
 9.500000000E-01 -1.000000000E+00 7.274688365E-01
 1.000000000E+00 -1.000000000E+00 7.250358016E-01
 1.050000000E+00 -1.000000000E+00 7.228475696E-01
 1.100000000E+00 -1.000000000E+00 7.209194436E-01
 1.150000000E+00 -1.000000000E+00 7.192290539E-01
 1.200000000E+00 -1.000000000E+00 7.178479468E-01
 1.250000000E+00 -1.000000000E+00 7.167111159E-01
 1.300000000E+00 -1.000000000E+00 7.158237672E-01
 1.350000000E+00 -1.000000000E+00 7.151824490E-01
 1.400000000E+00 -1.000000000E+00 7.147661626E-01
 1.450000000E+00 -1.000000000E+00 7.145129431E-01
 1.500000000E+00 -1.000000000E+00 7.144192865E-01
 1.550000000E+00 -1.000000000E+00 7.144624003E-01
 1.600000000E+00 -1.000000000E+00 7.146076111E-01
 1.650000000E+00 -1.000000000E+00 7.148379273E-01
 1.700000000E+00 -1.000000000E+00 7.150932433E-01
 1.750000000E+00 -1.000000000E+00 7.154286509E-01
 1.800000000E+00 -1.000000000E+00 7.158080148E-01
 1.850000000E+00 -1.000000000E+00 7.162112721E-01
 1.900000000E+00 -1.000000000E+00 7.166277944E-01
 1.950000000E+00 -1.000000000E+00 7.170556754E-01
 2.000000000E+00 -1.000000000E+00 7.174876859E-01
 2.050000000E+00 -1.000000000E+00 7.179181383E-01
 2.100000000E+00 -1.000000000E+00 7.183320640E-01
 2.150000000E+00 -1.000000000E+00 7.187400548E-01
 2.200000000E+00 -1.000000000E+00 7.190967628E-01
 2.250000000E+00 -1.000000000E+00 7.195017513E-01
 2.300000000E+00 -1.000000000E+00 7.199329208E-01
 2.350000000E+00 -1.000000000E+00 7.202850354E-01
 2.400000000E+00 -1.000000000E+00 7.206219802E-01
 2.450000000E+00 -1.000000000E+00 7.209415617E-01
 2.500000000E+00 -1.000000000E+00 7.212136580E-01
 2.550000000E+00 -1.000000000E+00 7.214943658E-01
 2.600000000E+00 -1.000000000E+00 7.217623180E-01
 2.650000000E+00 -1.000000000E+00 7.220024268E-01
 2.700000000E+00 -1.000000000E+00 7.222414562E-01
 2.750000000E+00 -1.000000000E+00 7.224504342E-01
 2.800000000E+00 -1.000000000E+00 7.226334543E-01
 2.850000000E+00 -1.000000000E+00 7.228034798E-01
 2.900000000E+00 -1.000000000E+00 7.229518279E-01
 2.950000000E+00 -1.000000000E+00 7.230835022E-01
 3.000000000E+00 -1.000000000E+00 7.231862624E-01
 3.050000000E+00 -1.000000000E+00 7.233384254E-01
 3.100000000E+00 -1.000000000E+00 7.234753498E-01
 3.150000000E+00 -1.000000000E+00 7.235958307E-01
 3.200000000E+00 -1.000000000E+00 7.237246086E-01
 3.250000000E+00 -1.000000000E+00 7.238825464E-01
 3.300000000E+00 -1.000000000E+00 7.240951439E-01
 3.350000000E+00 -1.000000000E+00 7.244087600E-01
 3.400000000E+00 -1.000000000E+00 7.248644838E-01
 3.450000000E+00 -1.000000000E+00 7.259781896E-01
 3.500000000E+00 -9.500000000E-01 7.295607362E-01
 3.500000000E+00 -9.000000000E-01 7.302989065E-01
 3.500000000E+00 -8.500000000E-01 7.308371374E-01
 3.500000000E+00 -8.000000000E-01 7.312144920E-01
 3.500000000E+00 -7.500000000E-01 7.314783486E-01
 3.500000000E+00 -7.000000000E-01 7.317269214E-01
 3.500000000E+00 -6.500000000E-01 7.320091391E-01
 3.500000000E+00 -6.000000000E-01 7.323055414E-01
 3.500000000E+00 -5.500000000E-01 7.326258022E-01
 3.500000000E+00 -5.000000000E-01 7.329497282E-01
 3.500000000E+00 -4.500000000E-01 7.332826150E-01
 3.500000000E+00 -4.000000000E-01 7.336063533E-01
 3.500000000E+00 -3.500000000E-01 7.339312645E-01
 3.500000000E+00 -3.000000000E-01 7.342444620E-01
 3.500000000E+00 -2.500000000E-01 7.345490128E-01
 3.500000000E+00 -2.000000000E-01 7.347814087E-01
 3.500000000E+00 -1.500000000E-01 7.348974874E-01
 3.500000000E+00 -1.000000000E-01 7.349265416E-01
 3.500000000E+00 -5.000000000E-02 7.349307348E-01
 3.500000000E+00 -2.752242878E-12 7.349180459E-01
 3.500000000E+00 5.000000000E-02 7.348746143E-01
 3.500000000E+00 1.000000000E-01 7.347625316E-01
 3.500000000E+00 1.500000000E-01 7.345505419E-01
 3.500000000E+00 2.000000000E-01 7.342587817E-01
 3.500000000E+00 2.500000000E-01 7.339273310E-01
 3.500000000E+00 3.000000000E-01 7.335632953E-01
 3.500000000E+00 3.500000000E-01 7.332273236E-01
 3.500000000E+00 4.000000000E-01 7.329112851E-01
 3.500000000E+00 4.500000000E-01 7.325574260E-01
 3.500000000E+00 5.000000000E-01 7.321460851E-01
 3.500000000E+00 5.500000000E-01 7.317574027E-01
 3.500000000E+00 6.000000000E-01 7.315545551E-01
 3.500000000E+00 6.500000000E-01 7.316446203E-01
 3.500000000E+00 7.000000000E-01 7.319222571E-01
 3.500000000E+00 7.500000000E-01 7.321140865E-01
 3.500000000E+00 8.000000000E-01 7.313912606E-01
 3.500000000E+00 8.500000000E-01 7.288611418E-01
 3.500000000E+00 9.000000000E-01 7.246063338E-01
 3.500000000E+00 9.500000000E-01 7.193423242E-01
 3.450000000E+00 1.000000000E+00 7.019804900E-01
 3.400000000E+00 1.000000000E+00 6.976164458E-01
 3.350000000E+00 1.000000000E+00 6.966589421E-01
 3.300000000E+00 1.000000000E+00 6.961945045E-01
 3.250000000E+00 1.000000000E+00 6.961992933E-01
 3.200000000E+00 1.000000000E+00 6.963455863E-01
 3.150000000E+00 1.000000000E+00 6.965565314E-01
 3.100000000E+00 1.000000000E+00 6.968413216E-01
 3.050000000E+00 1.000000000E+00 6.977100709E-01
 3.000000000E+00 1.000000000E+00 6.979689042E-01
 2.950000000E+00 1.000000000E+00 6.980189875E-01
 2.900000000E+00 1.000000000E+00 6.981988151E-01
 2.850000000E+00 1.000000000E+00 6.985310528E-01
 2.800000000E+00 1.000000000E+00 6.987338596E-01
 2.750000000E+00 1.000000000E+00 6.990519576E-01
 2.700000000E+00 1.000000000E+00 6.995167941E-01
 2.650000000E+00 1.000000000E+00 7.000963557E-01
 2.600000000E+00 1.000000000E+00 7.003223724E-01
 2.550000000E+00 1.000000000E+00 7.005913155E-01
 2.500000000E+00 1.000000000E+00 7.008619005E-01
 2.450000000E+00 1.000000000E+00 7.016431498E-01
 2.400000000E+00 1.000000000E+00 7.019955172E-01
 2.350000000E+00 1.000000000E+00 7.025870134E-01
 2.300000000E+00 1.000000000E+00 7.030723129E-01
 2.250000000E+00 1.000000000E+00 7.036405830E-01
 2.200000000E+00 1.000000000E+00 7.040220155E-01
 2.150000000E+00 1.000000000E+00 7.047764616E-01
 2.100000000E+00 1.000000000E+00 7.056508191E-01
 2.050000000E+00 1.000000000E+00 7.061184250E-01
 2.000000000E+00 1.000000000E+00 7.064795845E-01
 1.950000000E+00 1.000000000E+00 7.069357529E-01
 1.900000000E+00 1.000000000E+00 7.076036013E-01
 1.850000000E+00 1.000000000E+00 7.085971633E-01
 1.800000000E+00 1.000000000E+00 7.095355942E-01
 1.750000000E+00 1.000000000E+00 7.104698686E-01
 1.700000000E+00 1.000000000E+00 7.116608670E-01
 1.650000000E+00 1.000000000E+00 7.131817673E-01
 1.600000000E+00 1.000000000E+00 7.142989513E-01
 1.550000000E+00 1.000000000E+00 7.160555987E-01
 1.500000000E+00 1.000000000E+00 7.174523104E-01
 1.450000000E+00 1.000000000E+00 7.193874832E-01
 1.400000000E+00 1.000000000E+00 7.215760821E-01
 1.350000000E+00 1.000000000E+00 7.236514134E-01
 1.300000000E+00 1.000000000E+00 7.251349978E-01
 1.250000000E+00 1.000000000E+00 7.272966663E-01
 1.200000000E+00 1.000000000E+00 7.304121313E-01
 1.150000000E+00 1.000000000E+00 7.337426634E-01
 1.100000000E+00 1.000000000E+00 7.367728249E-01
 1.050000000E+00 1.000000000E+00 7.410409416E-01
 1.000000000E+00 1.000000000E+00 7.459203765E-01
 9.500000000E-01 1.000000000E+00 7.501481851E-01
 9.000000000E-01 1.000000000E+00 7.536980724E-01
 8.500000000E-01 1.000000000E+00 7.577787044E-01
 8.000000000E-01 1.000000000E+00 7.605010780E-01
 7.500000000E-01 1.000000000E+00 7.631763066E-01
 7.000000000E-01 1.000000000E+00 7.651287485E-01
 6.500000000E-01 1.000000000E+00 7.670935070E-01
 6.000000000E-01 1.000000000E+00 7.678411168E-01
 5.500000000E-01 1.000000000E+00 7.669613042E-01
 5.000000000E-01 1.000000000E+00 7.654000189E-01
 4.500000000E-01 1.000000000E+00 7.627753317E-01
 4.000000000E-01 1.000000000E+00 7.588052842E-01
 3.500000000E-01 1.000000000E+00 7.545100617E-01
 3.000000000E-01 1.000000000E+00 7.499198062E-01
 2.500000000E-01 1.000000000E+00 7.447871133E-01
 2.000000000E-01 1.000000000E+00 7.395137379E-01
 1.500000000E-01 1.000000000E+00 7.342435284E-01
 1.000000000E-01 1.000000000E+00 7.295147314E-01
 5.000000000E-02 1.000000000E+00 7.254210004E-01
 1.733724275E-12 1.000000000E+00 7.219262455E-01
 -5.000000000E-02 1.000000000E+00 7.189918255E-01
 -1.000000000E-01 1.000000000E+00 7.168334800E-01
 -1.500000000E-01 1.000000000E+00 7.154441830E-01
 -2.000000000E-01 1.000000000E+00 7.147731064E-01
 -2.500000000E-01 1.000000000E+00 7.148038721E-01
 -3.000000000E-01 1.000000000E+00 7.154225236E-01
 -3.500000000E-01 1.000000000E+00 7.166860592E-01
 -4.000000000E-01 1.000000000E+00 7.187282467E-01
 -4.500000000E-01 1.000000000E+00 7.220375008E-01
 9.059095113E-01 -4.336896904E-03 5.952434016E-01
 9.853958691E-01 -4.892890332E-03 5.916793480E-01
 8.335124849E-01 -1.135107971E-02 6.251650478E-01
 7.550719430E-01 -2.016303018E-02 6.684493159E-01
 6.849363165E-01 -2.937152602E-02 7.084495680E-01
 6.154167011E-01 -4.132587341E-02 7.581097993E-01
 5.441229389E-01 -4.955198549E-02 8.235464205E-01
 4.792895452E-01 -5.610843055E-02 9.016038169E-01
 4.232192147E-01 -6.084785887E-02 9.734737260E-01
 3.692711352E-01 -6.320438217E-02 1.013005684E+00
 3.113372849E-01 -6.296109877E-02 9.921250427E-01
 2.501641612E-01 -6.054848684E-02 9.493740559E-01
 1.910534027E-01 -5.532392925E-02 9.084917678E-01
 1.325420997E-01 -4.773541268E-02 8.735622842E-01
 8.084619340E-02 -3.924953177E-02 8.384967705E-01
 4.300986324E-02 -3.236101336E-02 7.920705379E-01
 1.974311808E+00 -9.563490614E-01 7.189455255E-01
 1.975236685E+00 9.570889953E-01 7.162920808E-01