TITLE     = "Visualization of the solution"
VARIABLES = "x"
"y"
"Mach"
ZONE T="Zone"
 STRANDID=0, SOLUTIONTIME=0
 Nodes=12172, Elements=23763, ZONETYPE=FEQuadrilateral
 DATAPACKING=POINT
 DT=(DOUBLE DOUBLE DOUBLE )
 9.995503426E-01 5.063464632E-04 5.424645570E-01
 9.873489738E-01 2.843675204E-03 6.447747048E-01
 9.749526978E-01 5.287846085E-03 6.760984558E-01
 9.590242505E-01 8.396796882E-03 6.987552121E-01
 9.443486929E-01 1.129634492E-02 7.227899774E-01
 9.291719794E-01 1.418108959E-02 7.332268369E-01
 9.173842072E-01 1.646723598E-02 7.498154796E-01
 9.051184654E-01 1.880670711E-02 7.618249675E-01
 8.935065269E-01 2.102783322E-02 7.805383683E-01
 8.813862801E-01 2.323158458E-02 7.871604719E-01
 8.690922260E-01 2.543793246E-02 7.945469546E-01
 8.572672606E-01 2.760305628E-02 8.171925950E-01
 8.446596265E-01 2.976255491E-02 8.237121571E-01
 8.333564997E-01 3.162983432E-02 8.263561461E-01
 8.218701482E-01 3.353267163E-02 8.375483496E-01
 8.092863560E-01 3.555954248E-02 8.462733942E-01
 7.964515090E-01 3.756939247E-02 8.534459328E-01
 7.841616869E-01 3.945689648E-02 8.611935011E-01
 7.719168067E-01 4.130316526E-02 8.706182642E-01
 7.602310181E-01 4.303186387E-02 8.808792401E-01
 7.471440434E-01 4.489554092E-02 8.865987092E-01
 7.333799005E-01 4.681621492E-02 8.971362491E-01
 7.228683829E-01 4.824977741E-02 9.065315360E-01
 7.120580077E-01 4.967918992E-02 9.138177256E-01
 7.006666660E-01 5.114910752E-02 9.230710029E-01
 6.873112917E-01 5.281228572E-02 9.340528244E-01
 6.743504405E-01 5.435985327E-02 9.436310859E-01
 6.644331813E-01 5.549062788E-02 9.486761703E-01
 6.533482671E-01 5.672602728E-02 9.607987297E-01
 6.418396235E-01 5.794526264E-02 9.648473084E-01
 6.300998330E-01 5.911773816E-02 9.712847151E-01
 6.191195846E-01 6.021053344E-02 9.869466454E-01
 6.085137129E-01 6.116933003E-02 9.700944401E-01
 5.959555507E-01 6.225783378E-02 9.716123613E-01
 5.843821764E-01 6.316554546E-02 1.055813673E+00
 5.711557865E-01 6.415185332E-02 1.105854448E+00
 5.589109659E-01 6.496226788E-02 1.092479367E+00
 5.468630195E-01 6.569868326E-02 1.090368661E+00
 5.360323787E-01 6.629683077E-02 1.085951229E+00
 5.245395899E-01 6.686073542E-02 1.080050039E+00
 5.118972659E-01 6.739725173E-02 1.075520077E+00
 5.006691813E-01 6.780289114E-02 1.069212771E+00
 4.873333871E-01 6.820625812E-02 1.065949646E+00
 4.739046693E-01 6.854093820E-02 1.059521404E+00
 4.596704841E-01 6.878363341E-02 1.049662379E+00
 4.461279809E-01 6.892258674E-02 1.044030518E+00
 4.333830178E-01 6.898806989E-02 1.035418759E+00
 4.205360115E-01 6.895151734E-02 1.025211129E+00
 4.082598984E-01 6.886384636E-02 1.025053175E+00
 3.959925473E-01 6.871447712E-02 1.019574685E+00
 3.836687803E-01 6.847415864E-02 1.009457494E+00
 3.721927404E-01 6.820376217E-02 1.004693187E+00
 3.588130772E-01 6.781103462E-02 9.959916228E-01
 3.462203741E-01 6.735945493E-02 9.901706209E-01
 3.332757354E-01 6.685146689E-02 9.912707270E-01
 3.221460283E-01 6.632449478E-02 9.810298690E-01
 3.091632426E-01 6.565858424E-02 9.758294943E-01
 2.958115935E-01 6.487586349E-02 9.666590271E-01
 2.819137573E-01 6.399416924E-02 9.644511017E-01
 2.693918645E-01 6.310737133E-02 9.575926078E-01
 2.574653625E-01 6.218955666E-02 9.505192175E-01
 2.450474948E-01 6.116028875E-02 9.438587066E-01
 2.326580733E-01 6.005482748E-02 9.376671909E-01
 2.202543169E-01 5.887063965E-02 9.333111032E-01
 2.086465657E-01 5.767935142E-02 9.274284385E-01
 1.971294135E-01 5.640744418E-02 9.181297071E-01
 1.847403944E-01 5.495782942E-02 9.114916070E-01
 1.729017645E-01 5.348651111E-02 9.064249351E-01
 1.617832482E-01 5.200335756E-02 8.968857384E-01
 1.498585641E-01 5.032286420E-02 8.905779069E-01
 1.392733455E-01 4.873460159E-02 8.825318600E-01
 1.276523173E-01 4.687704518E-02 8.730298076E-01
 1.161971241E-01 4.493424296E-02 8.658674444E-01
 1.056736484E-01 4.302222282E-02 8.545059311E-01
 9.592322260E-02 4.113863781E-02 8.469101436E-01
 8.475109935E-02 3.883378208E-02 8.336302319E-01
 7.277933508E-02 3.615766391E-02 8.204802094E-01
 6.277431548E-02 3.373300657E-02 8.064627334E-01
 5.274964124E-02 3.108119033E-02 7.878989691E-01
 4.408499226E-02 2.857479267E-02 7.725959690E-01
 3.662448376E-02 2.622048371E-02 7.544535930E-01
 3.000285476E-02 2.393276058E-02 7.347634890E-01
 2.445461415E-02 2.183235623E-02 7.163968500E-01
 2.045352943E-02 2.017494105E-02 6.959052022E-01
 1.663821936E-02 1.846143417E-02 6.748736469E-01
 1.373357419E-02 1.704249345E-02 6.529597174E-01
 1.103060879E-02 1.560678706E-02 6.299493106E-01
 9.028342552E-03 1.444891095E-02 6.085053593E-01
 7.303114980E-03 1.336416323E-02 5.884804185E-01
 5.713765044E-03 1.228196081E-02 5.565393984E-01
 3.607172985E-03 1.065098681E-02 5.071478831E-01
 1.768249203E-03 8.971403353E-03 4.498812585E-01
 2.085558954E-04 7.190142293E-03 3.571272594E-01
 -1.281944569E-03 4.732598085E-03 2.267142057E-01
 -1.885578618E-03 2.882265253E-03 1.065052458E-01
 -2.049533650E-03 1.421269961E-03 1.383037185E-02
 -1.916581765E-03 -1.647822064E-04 1.432372976E-01
 -1.459829742E-03 -1.750266529E-03 2.641931282E-01
 -5.004074774E-04 -3.623731434E-03 3.830444909E-01
 9.485035553E-04 -5.546716042E-03 4.789129238E-01
 2.956223674E-03 -7.537538186E-03 5.562266362E-01
 4.769797437E-03 -8.999202400E-03 6.096087481E-01
 6.848810706E-03 -1.044276077E-02 6.478450233E-01
 8.478907868E-03 -1.145395543E-02 6.767807069E-01
 1.054038294E-02 -1.261573844E-02 6.986015330E-01
 1.287021209E-02 -1.381041110E-02 7.206584919E-01
 1.617013291E-02 -1.533689443E-02 7.427815929E-01
 1.910143718E-02 -1.656448282E-02 7.620980731E-01
 2.290340327E-02 -1.801403798E-02 7.742467748E-01
 2.819545381E-02 -1.983967051E-02 7.892969383E-01
 3.393664584E-02 -2.161859348E-02 8.029236069E-01
 4.110453650E-02 -2.361101657E-02 8.128865142E-01
 4.866000265E-02 -2.551374957E-02 8.213539718E-01
 5.766539648E-02 -2.756320126E-02 8.280486692E-01
 6.645553559E-02 -2.939561009E-02 8.342286694E-01
 7.656309009E-02 -3.134140372E-02 8.408990609E-01
 8.639995009E-02 -3.308851644E-02 8.444516757E-01
 9.648393095E-02 -3.476399928E-02 8.505195293E-01
 1.073040441E-01 -3.644585609E-02 8.550139531E-01
 1.183593795E-01 -3.805319965E-02 8.592111881E-01
 1.299562901E-01 -3.964273259E-02 8.647264917E-01
 1.406060904E-01 -4.101460055E-02 8.693431827E-01
 1.517036855E-01 -4.237546399E-02 8.755321025E-01
 1.638156027E-01 -4.376880452E-02 8.808866746E-01
 1.754862070E-01 -4.503394663E-02 8.872905996E-01
 1.874546558E-01 -4.625358433E-02 8.938668778E-01
 1.981262118E-01 -4.726907238E-02 8.987797711E-01
 2.093193233E-01 -4.827998206E-02 9.057798512E-01
 2.215591371E-01 -4.929937050E-02 9.107250152E-01
 2.343581319E-01 -5.029424652E-02 9.191512911E-01
 2.469672114E-01 -5.119067430E-02 9.288848416E-01
 2.594590783E-01 -5.198034644E-02 9.348890574E-01
 2.706231773E-01 -5.262156203E-02 9.429286778E-01
 2.832863331E-01 -5.325005576E-02 9.475639215E-01
 2.960928380E-01 -5.381333455E-02 9.591186253E-01
 3.087962866E-01 -5.425531417E-02 9.678726287E-01
 3.205316365E-01 -5.457230285E-02 9.754068855E-01
 3.330550492E-01 -5.479425937E-02 9.777178451E-01
 3.439315856E-01 -5.490835384E-02 9.834525852E-01
 3.553859890E-01 -5.493346602E-02 9.873145805E-01
 3.662531078E-01 -5.486479774E-02 9.903374046E-01
 3.768466711E-01 -5.469610170E-02 9.840417024E-01
 3.882097900E-01 -5.443974584E-02 9.820772444E-01
 4.012312889E-01 -5.400859937E-02 9.769248116E-01
 4.136953354E-01 -5.345235392E-02 9.636013221E-01
 4.266832173E-01 -5.276147276E-02 9.527531879E-01
 4.392682314E-01 -5.196034908E-02 9.426429027E-01
 4.511573911E-01 -5.108276755E-02 9.282691907E-01
 4.629578888E-01 -5.010351166E-02 9.108639083E-01
 4.754270017E-01 -4.898270965E-02 8.983306131E-01
 4.868340790E-01 -4.785051569E-02 8.817771862E-01
 4.995589554E-01 -4.652211070E-02 8.672980842E-01
 5.134322643E-01 -4.497300088E-02 8.514186547E-01
 5.272037983E-01 -4.335027561E-02 8.357968443E-01
 5.407112837E-01 -4.167653248E-02 8.184753836E-01
 5.536753535E-01 -4.004380479E-02 8.064633863E-01
 5.671476722E-01 -3.830908611E-02 7.952158510E-01
 5.802790523E-01 -3.656970710E-02 7.836491537E-01
 5.920306444E-01 -3.496001661E-02 7.684778677E-01
 6.045820117E-01 -3.327316418E-02 7.606899585E-01
 6.188775897E-01 -3.131284937E-02 7.479717841E-01
 6.336851120E-01 -2.929054201E-02 7.380765445E-01
 6.487054229E-01 -2.724002674E-02 7.287569432E-01
 6.615946293E-01 -2.545612678E-02 7.173877078E-01
 6.751967669E-01 -2.360563725E-02 7.090769963E-01
 6.878862381E-01 -2.190396003E-02 7.028210116E-01
 7.000607252E-01 -2.025234699E-02 6.929786320E-01
 7.143611312E-01 -1.833603345E-02 6.820374967E-01
 7.278617024E-01 -1.662985235E-02 6.797975895E-01
 7.396396399E-01 -1.510946266E-02 6.700780596E-01
 7.527951598E-01 -1.346683316E-02 6.638956986E-01
 7.649152875E-01 -1.197574008E-02 6.569003915E-01
 7.779864669E-01 -1.040641218E-02 6.497857353E-01
 7.896100879E-01 -9.037424810E-03 6.421129871E-01
 8.023403287E-01 -7.591315079E-03 6.350004647E-01
 8.131297827E-01 -6.402648520E-03 6.269497972E-01
 8.248538375E-01 -5.200747401E-03 6.220100143E-01
 8.378568292E-01 -3.953868058E-03 6.168133565E-01
 8.503739238E-01 -2.819151850E-03 6.102322680E-01
 8.624836802E-01 -1.803792082E-03 6.033069601E-01
 8.743053675E-01 -9.255395853E-04 5.983326682E-01
 8.863956332E-01 -1.521569066E-04 5.948276509E-01
 8.994398117E-01 5.581516889E-04 5.901103834E-01
 9.098858833E-01 9.990314720E-04 5.884403016E-01
 9.199885130E-01 1.338101691E-03 5.862193741E-01
 9.293218851E-01 1.553855953E-03 5.857961217E-01
 9.376196861E-01 1.679777866E-03 5.853027348E-01
 9.494603276E-01 1.742274268E-03 5.855200210E-01
 9.621906281E-01 1.671923441E-03 5.852724627E-01
 9.759702682E-01 1.422431204E-03 5.842480904E-01
 9.887350202E-01 1.044226810E-03 5.754148949E-01
 -5.000000000E-01 -1.000000000E+00 7.239401115E-01
 3.500000000E+00 -1.000000000E+00 7.285318616E-01
 3.500000000E+00 1.000000000E+00 7.098965254E-01
 -5.000000000E-01 1.000000000E+00 7.243348251E-01
 9.934496582E-01 1.675010833E-03 6.280101397E-01
 9.811508358E-01 4.065760644E-03 6.612470498E-01
 9.669884741E-01 6.842321483E-03 6.875918062E-01
 9.516864717E-01 9.846570902E-03 7.120676561E-01
 9.367603362E-01 1.273871725E-02 7.281016143E-01
 9.232780933E-01 1.532416278E-02 7.416854877E-01
 9.112513363E-01 1.763697155E-02 7.554696317E-01
 8.993124962E-01 1.991727017E-02 7.720229903E-01
 8.874464035E-01 2.212970890E-02 7.844590203E-01
 8.752392530E-01 2.433475852E-02 7.892773018E-01
 8.631797433E-01 2.652049437E-02 8.069504109E-01
 8.509634435E-01 2.868280560E-02 8.214229116E-01
 8.390080631E-01 3.069619462E-02 8.243394977E-01
 8.276133239E-01 3.258125298E-02 8.319376745E-01
 8.155782521E-01 3.454610705E-02 8.421288998E-01
 8.028689325E-01 3.656446747E-02 8.497837419E-01
 7.903065979E-01 3.851314448E-02 8.572976769E-01
 7.780392468E-01 4.038003087E-02 8.654743670E-01
 7.660739124E-01 4.216751456E-02 8.765465448E-01
 7.536875308E-01 4.396370240E-02 8.834048148E-01
 7.402619720E-01 4.585587792E-02 8.913755884E-01
 7.281241417E-01 4.753299616E-02 9.024950928E-01
 7.174631953E-01 4.896448366E-02 9.099686476E-01
 7.063623369E-01 5.041414872E-02 9.184259425E-01
 6.939889789E-01 5.198069662E-02 9.284754738E-01
 6.808308661E-01 5.358606949E-02 9.391237104E-01
 6.588907242E-01 5.610832758E-02 9.551630862E-01
 6.475939453E-01 5.733564496E-02 9.641770061E-01
 6.359697282E-01 5.853150040E-02 9.648710330E-01
 6.246097088E-01 5.966413580E-02 9.828121692E-01
 6.138166487E-01 6.068993174E-02 9.800738263E-01
 6.022346318E-01 6.171358190E-02 9.643824641E-01
 5.901688635E-01 6.271168962E-02 1.002808574E+00
 5.777689815E-01 6.365869939E-02 1.096285397E+00
 5.650333762E-01 6.455706060E-02 1.098785343E+00
 5.528869927E-01 6.533047557E-02 1.090770782E+00
 5.414476991E-01 6.599775702E-02 1.088767248E+00
 5.302859843E-01 6.657878309E-02 1.083010956E+00
 5.182184279E-01 6.712899357E-02 1.077636793E+00
 5.062832236E-01 6.760007143E-02 1.072448473E+00
 4.940012842E-01 6.800457463E-02 1.067192630E+00
 4.806190282E-01 6.837359816E-02 1.064038281E+00
 4.667875767E-01 6.866228580E-02 1.053960241E+00
 4.528992325E-01 6.885311007E-02 1.046300190E+00
 4.397554994E-01 6.895532832E-02 1.041227126E+00
 4.269595146E-01 6.896979362E-02 1.028521988E+00
 4.143979549E-01 6.890768185E-02 1.024945171E+00
 4.021262228E-01 6.878916174E-02 1.023948770E+00
 3.898306638E-01 6.859431788E-02 1.013245989E+00
 3.779307604E-01 6.833896041E-02 1.007644307E+00
 3.655029088E-01 6.800739840E-02 1.000783136E+00
 3.525167257E-01 6.758524477E-02 9.911585497E-01
 3.397480547E-01 6.710546091E-02 9.923472851E-01
 3.277108818E-01 6.658798084E-02 9.855073499E-01
 3.156546354E-01 6.599153951E-02 9.793725842E-01
 3.024874181E-01 6.526722386E-02 9.702278421E-01
 2.888626754E-01 6.443501636E-02 9.657786117E-01
 2.756528109E-01 6.355077028E-02 9.611403187E-01
 2.634286135E-01 6.264846399E-02 9.541652833E-01
 2.512564287E-01 6.167492270E-02 9.471412683E-01
 2.388527840E-01 6.060755812E-02 9.406457000E-01
 2.264561951E-01 5.946273357E-02 9.353244946E-01
 2.144504413E-01 5.827499554E-02 9.308450630E-01
 2.028879896E-01 5.704339780E-02 9.228912191E-01
 1.909349039E-01 5.568263680E-02 9.143102281E-01
 1.788210794E-01 5.422217026E-02 9.093815763E-01
 1.673425063E-01 5.274493434E-02 9.018174249E-01
 1.558209062E-01 5.116311088E-02 8.933061939E-01
 1.445659548E-01 4.952873290E-02 8.873424523E-01
 1.334628314E-01 4.780582339E-02 8.774569934E-01
 1.219247207E-01 4.590564407E-02 8.693935582E-01
 1.109353863E-01 4.397823289E-02 8.613690248E-01
 9.033716097E-02 3.998620994E-02 8.408078279E-01
 7.876521721E-02 3.749572299E-02 8.262362220E-01
 6.777682528E-02 3.494533524E-02 8.140743427E-01
 5.776197836E-02 3.240709845E-02 7.989866931E-01
 7.150931284E-02 -3.036850691E-02 8.383556388E-01
 9.144194052E-02 -3.392625786E-02 8.483694832E-01
 1.018939875E-01 -3.560492769E-02 8.525674989E-01
 1.128317118E-01 -3.724952787E-02 8.572486811E-01
 1.241578348E-01 -3.884796612E-02 8.616534378E-01
 1.352811903E-01 -4.032866657E-02 8.674080018E-01
 1.461548880E-01 -4.169503227E-02 8.721736279E-01
 1.577596441E-01 -4.307213426E-02 8.781439399E-01
 1.696509048E-01 -4.440137558E-02 8.841005259E-01
 1.814704314E-01 -4.564376548E-02 8.904627697E-01
 1.927904338E-01 -4.676132835E-02 8.967521160E-01
 2.037227675E-01 -4.777452722E-02 9.018527173E-01
 2.154392302E-01 -4.878967628E-02 9.085107370E-01
 2.279586345E-01 -4.979680851E-02 9.143051016E-01
 2.406626716E-01 -5.074246041E-02 9.242066560E-01
 2.532131448E-01 -5.158551037E-02 9.323249779E-01
 2.650411278E-01 -5.230095424E-02 9.387354036E-01
 2.769547552E-01 -5.293580890E-02 9.453294610E-01
 2.896895856E-01 -5.353169516E-02 9.523218401E-01
 3.024445623E-01 -5.403432436E-02 9.642987874E-01
 3.146639615E-01 -5.441380851E-02 9.718628584E-01
 3.267933428E-01 -5.468328111E-02 9.767962824E-01
 3.384933174E-01 -5.485130660E-02 9.804328317E-01
 3.496587873E-01 -5.492090993E-02 9.854813224E-01
 3.608195484E-01 -5.489913188E-02 9.892913653E-01
 3.715498894E-01 -5.478044972E-02 9.884234363E-01
 3.825282305E-01 -5.456792377E-02 9.820016798E-01
 3.947205395E-01 -5.422417261E-02 9.801814990E-01
 4.074633121E-01 -5.373047665E-02 9.714175954E-01
 4.201892763E-01 -5.310691334E-02 9.570298429E-01
 4.329757243E-01 -5.236091092E-02 9.483072873E-01
 4.452128112E-01 -5.152155831E-02 9.359689220E-01
 4.570576400E-01 -5.059313960E-02 9.198282648E-01
 4.691924453E-01 -4.954311065E-02 9.036986386E-01
 4.811305404E-01 -4.841661267E-02 8.912517780E-01
 4.931965172E-01 -4.718631320E-02 8.739360427E-01
 5.064956099E-01 -4.574755579E-02 8.595981070E-01
 5.203180313E-01 -4.416163824E-02 8.436352311E-01
 5.339575410E-01 -4.251340404E-02 8.270769875E-01
 5.471933186E-01 -4.086016864E-02 8.120411552E-01
 5.604115129E-01 -3.917644545E-02 8.007785119E-01
 5.737133622E-01 -3.743939660E-02 7.896163770E-01
 5.861548483E-01 -3.576486185E-02 7.761780352E-01
 5.983063281E-01 -3.411659040E-02 7.641509198E-01
 6.117298007E-01 -3.229300678E-02 7.545459403E-01
 6.262813509E-01 -3.030169569E-02 7.428894637E-01
 6.411952674E-01 -2.826528437E-02 7.333616191E-01
 6.551500261E-01 -2.634807676E-02 7.231920809E-01
 6.683956981E-01 -2.453088202E-02 7.129286432E-01
 6.815415025E-01 -2.275479864E-02 7.059006015E-01
 6.939734817E-01 -2.107815351E-02 6.981973892E-01
 7.072109282E-01 -1.929419022E-02 6.874155885E-01
 7.211114168E-01 -1.748294290E-02 6.803317680E-01
 7.337506711E-01 -1.586965751E-02 6.755410437E-01
 7.462173998E-01 -1.428814791E-02 6.667996976E-01
 7.588552237E-01 -1.272128662E-02 6.603745928E-01
 7.714508772E-01 -1.119107613E-02 6.535576961E-01
 7.837982774E-01 -9.721918497E-03 6.457815880E-01
 7.959752083E-01 -8.314369945E-03 6.386267091E-01
 8.077350557E-01 -6.996981800E-03 6.310141825E-01
 8.189918101E-01 -5.801697960E-03 6.242507817E-01
 8.313553333E-01 -4.577307729E-03 6.195909822E-01
 8.441153765E-01 -3.386509954E-03 6.135830837E-01
 8.564288020E-01 -2.311471966E-03 6.066802392E-01
 8.683945239E-01 -1.364665834E-03 6.006823315E-01
 8.803505003E-01 -5.388482459E-04 5.964440156E-01
 8.929177225E-01 2.029973912E-04 5.927768350E-01
 9.046628475E-01 7.785915805E-04 5.886745570E-01
 9.149371982E-01 1.168566581E-03 5.871518818E-01
 9.435400069E-01 1.711026067E-03 5.855273553E-01
 9.558254778E-01 1.707098854E-03 5.854112089E-01
 9.690804482E-01 1.547177322E-03 5.850976452E-01
 9.823526442E-01 1.233329007E-03 5.807123704E-01
 9.941426814E-01 7.752866368E-04 5.757531762E-01
 -5.000000000E-01 9.500000000E-01 7.220859414E-01
 -5.000000000E-01 9.000000000E-01 7.185666751E-01
 -5.000000000E-01 8.500000000E-01 7.158531627E-01
 -5.000000000E-01 8.000000000E-01 7.134497349E-01
 -5.000000000E-01 7.500000000E-01 7.111835601E-01
 -5.000000000E-01 7.000000000E-01 7.089374209E-01
 -5.000000000E-01 6.500000000E-01 7.066385306E-01
 -5.000000000E-01 6.000000000E-01 7.043329587E-01
 -5.000000000E-01 5.500000000E-01 7.019288541E-01
 -5.000000000E-01 5.000000000E-01 6.994840585E-01
 -5.000000000E-01 4.500000000E-01 6.970040012E-01
 -5.000000000E-01 4.000000000E-01 6.945501783E-01
 -5.000000000E-01 3.500000000E-01 6.921259223E-01
 -5.000000000E-01 3.000000000E-01 6.898364385E-01
 -5.000000000E-01 2.500000000E-01 6.876794507E-01
 -5.000000000E-01 2.000000000E-01 6.857714918E-01
 -5.000000000E-01 1.500000000E-01 6.842181097E-01
 -5.000000000E-01 1.000000000E-01 6.830308517E-01
 -5.000000000E-01 5.000000000E-02 6.822826255E-01
 -5.000000000E-01 2.752242878E-12 6.820307776E-01
 -5.000000000E-01 -5.000000000E-02 6.822445988E-01
 -5.000000000E-01 -1.000000000E-01 6.829085963E-01
 -5.000000000E-01 -1.500000000E-01 6.840342165E-01
 -5.000000000E-01 -2.000000000E-01 6.855091582E-01
 -5.000000000E-01 -2.500000000E-01 6.873271627E-01
 -5.000000000E-01 -3.000000000E-01 6.893619091E-01
 -5.000000000E-01 -3.500000000E-01 6.915532257E-01
 -5.000000000E-01 -4.000000000E-01 6.938532581E-01
 -5.000000000E-01 -4.500000000E-01 6.961896201E-01
 -5.000000000E-01 -5.000000000E-01 6.985491104E-01
 -5.000000000E-01 -5.500000000E-01 7.009164732E-01
 -5.000000000E-01 -6.000000000E-01 7.032155008E-01
 -5.000000000E-01 -6.500000000E-01 7.055098359E-01
 -5.000000000E-01 -7.000000000E-01 7.077637445E-01
 -5.000000000E-01 -7.500000000E-01 7.100340834E-01
 -5.000000000E-01 -8.000000000E-01 7.123722446E-01
 -5.000000000E-01 -8.500000000E-01 7.148696200E-01
 -5.000000000E-01 -9.000000000E-01 7.177644675E-01
 -5.000000000E-01 -9.500000000E-01 7.215307275E-01
 -4.500000000E-01 -1.000000000E+00 7.213747329E-01
 -4.000000000E-01 -1.000000000E+00 7.177187211E-01
 -3.500000000E-01 -1.000000000E+00 7.152540042E-01
 -3.000000000E-01 -1.000000000E+00 7.136480074E-01
 -2.500000000E-01 -1.000000000E+00 7.126511162E-01
 -2.000000000E-01 -1.000000000E+00 7.122274672E-01
 -1.500000000E-01 -1.000000000E+00 7.123898065E-01
 -1.000000000E-01 -1.000000000E+00 7.130957849E-01
 -5.000000000E-02 -1.000000000E+00 7.143781345E-01
 -9.424683256E-13 -1.000000000E+00 7.161758620E-01
 5.000000000E-02 -1.000000000E+00 7.184162493E-01
 1.000000000E-01 -1.000000000E+00 7.210375619E-01
 1.500000000E-01 -1.000000000E+00 7.238498420E-01
 2.000000000E-01 -1.000000000E+00 7.267720305E-01
 2.500000000E-01 -1.000000000E+00 7.297906173E-01
 3.000000000E-01 -1.000000000E+00 7.327055201E-01
 3.500000000E-01 -1.000000000E+00 7.352171302E-01
 4.000000000E-01 -1.000000000E+00 7.371996824E-01
 4.500000000E-01 -1.000000000E+00 7.385028005E-01
 5.000000000E-01 -1.000000000E+00 7.391740016E-01
 5.500000000E-01 -1.000000000E+00 7.390276521E-01
 6.000000000E-01 -1.000000000E+00 7.383539611E-01
 6.500000000E-01 -1.000000000E+00 7.372464209E-01
 7.000000000E-01 -1.000000000E+00 7.356252074E-01
 7.500000000E-01 -1.000000000E+00 7.336385303E-01
 8.000000000E-01 -1.000000000E+00 7.313601912E-01
 8.500000000E-01 -1.000000000E+00 7.289355832E-01
 9.000000000E-01 -1.000000000E+00 7.264236555E-01
 9.500000000E-01 -1.000000000E+00 7.240233665E-01
 1.000000000E+00 -1.000000000E+00 7.217448702E-01
 1.050000000E+00 -1.000000000E+00 7.196987535E-01
 1.100000000E+00 -1.000000000E+00 7.178719984E-01
 1.150000000E+00 -1.000000000E+00 7.163501965E-01
 1.200000000E+00 -1.000000000E+00 7.151173343E-01
 1.250000000E+00 -1.000000000E+00 7.141477101E-01
 1.300000000E+00 -1.000000000E+00 7.134049177E-01
 1.350000000E+00 -1.000000000E+00 7.129096488E-01
 1.400000000E+00 -1.000000000E+00 7.126032733E-01
 1.450000000E+00 -1.000000000E+00 7.124929815E-01
 1.500000000E+00 -1.000000000E+00 7.125136841E-01
 1.550000000E+00 -1.000000000E+00 7.126552286E-01
 1.600000000E+00 -1.000000000E+00 7.128957281E-01
 1.650000000E+00 -1.000000000E+00 7.132646351E-01
 1.700000000E+00 -1.000000000E+00 7.136622912E-01
 1.750000000E+00 -1.000000000E+00 7.140385475E-01
 1.800000000E+00 -1.000000000E+00 7.144956140E-01
 1.850000000E+00 -1.000000000E+00 7.149850591E-01
 1.900000000E+00 -1.000000000E+00 7.155546035E-01
 1.950000000E+00 -1.000000000E+00 7.161384619E-01
 2.000000000E+00 -1.000000000E+00 7.165940079E-01
 2.050000000E+00 -1.000000000E+00 7.171476222E-01
 2.100000000E+00 -1.000000000E+00 7.176621841E-01
 2.150000000E+00 -1.000000000E+00 7.181164045E-01
 2.200000000E+00 -1.000000000E+00 7.185681042E-01
 2.250000000E+00 -1.000000000E+00 7.189984354E-01
 2.300000000E+00 -1.000000000E+00 7.194397876E-01
 2.350000000E+00 -1.000000000E+00 7.198466835E-01
 2.400000000E+00 -1.000000000E+00 7.202805202E-01
 2.450000000E+00 -1.000000000E+00 7.205404002E-01
 2.500000000E+00 -1.000000000E+00 7.209302778E-01
 2.550000000E+00 -1.000000000E+00 7.213061380E-01
 2.600000000E+00 -1.000000000E+00 7.216314306E-01
 2.650000000E+00 -1.000000000E+00 7.219280693E-01
 2.700000000E+00 -1.000000000E+00 7.222045446E-01
 2.750000000E+00 -1.000000000E+00 7.224549025E-01
 2.800000000E+00 -1.000000000E+00 7.226578106E-01
 2.850000000E+00 -1.000000000E+00 7.228258420E-01
 2.900000000E+00 -1.000000000E+00 7.230036381E-01
 2.950000000E+00 -1.000000000E+00 7.231462934E-01
 3.000000000E+00 -1.000000000E+00 7.233327306E-01
 3.050000000E+00 -1.000000000E+00 7.235142309E-01
 3.100000000E+00 -1.000000000E+00 7.236955062E-01
 3.150000000E+00 -1.000000000E+00 7.238891302E-01
 3.200000000E+00 -1.000000000E+00 7.240644672E-01
 3.250000000E+00 -1.000000000E+00 7.242480876E-01
 3.300000000E+00 -1.000000000E+00 7.244739647E-01
 3.350000000E+00 -1.000000000E+00 7.247962482E-01
 3.400000000E+00 -1.000000000E+00 7.252981266E-01
 3.450000000E+00 -1.000000000E+00 7.264198097E-01
 3.500000000E+00 -9.500000000E-01 7.297834591E-01
 3.500000000E+00 -9.000000000E-01 7.304254158E-01
 3.500000000E+00 -8.500000000E-01 7.309018308E-01
 3.500000000E+00 -8.000000000E-01 7.312581511E-01
 3.500000000E+00 -7.500000000E-01 7.315378463E-01
 3.500000000E+00 -7.000000000E-01 7.318113403E-01
 3.500000000E+00 -6.500000000E-01 7.321054590E-01
 3.500000000E+00 -6.000000000E-01 7.324086111E-01
 3.500000000E+00 -5.500000000E-01 7.327268897E-01
 3.500000000E+00 -5.000000000E-01 7.330481679E-01
 3.500000000E+00 -4.500000000E-01 7.333627115E-01
 3.500000000E+00 -4.000000000E-01 7.336872982E-01
 3.500000000E+00 -3.500000000E-01 7.340234966E-01
 3.500000000E+00 -3.000000000E-01 7.343321084E-01
 3.500000000E+00 -2.500000000E-01 7.346227281E-01
 3.500000000E+00 -2.000000000E-01 7.348454240E-01
 3.500000000E+00 -1.500000000E-01 7.349593626E-01
 3.500000000E+00 -1.000000000E-01 7.349850314E-01
 3.500000000E+00 -5.000000000E-02 7.349800110E-01
 3.500000000E+00 -2.752242878E-12 7.349575655E-01
 3.500000000E+00 5.000000000E-02 7.349047777E-01
 3.500000000E+00 1.000000000E-01 7.347799754E-01
 3.500000000E+00 1.500000000E-01 7.345557293E-01
 3.500000000E+00 2.000000000E-01 7.342453902E-01
 3.500000000E+00 2.500000000E-01 7.339022004E-01
 3.500000000E+00 3.000000000E-01 7.335497014E-01
 3.500000000E+00 3.500000000E-01 7.332315390E-01
 3.500000000E+00 4.000000000E-01 7.329123153E-01
 3.500000000E+00 4.500000000E-01 7.325453544E-01
 3.500000000E+00 5.000000000E-01 7.321107736E-01
 3.500000000E+00 5.500000000E-01 7.316936013E-01
 3.500000000E+00 6.000000000E-01 7.315301128E-01
 3.500000000E+00 6.500000000E-01 7.318252279E-01
 3.500000000E+00 7.000000000E-01 7.323134330E-01
 3.500000000E+00 7.500000000E-01 7.322888009E-01
 3.500000000E+00 8.000000000E-01 7.310081717E-01
 3.500000000E+00 8.500000000E-01 7.279970976E-01
 3.500000000E+00 9.000000000E-01 7.235074495E-01
 3.500000000E+00 9.500000000E-01 7.177414796E-01
 3.450000000E+00 1.000000000E+00 6.983381105E-01
 3.400000000E+00 1.000000000E+00 6.935007018E-01
 3.350000000E+00 1.000000000E+00 6.925222917E-01
 3.300000000E+00 1.000000000E+00 6.917750176E-01
 3.250000000E+00 1.000000000E+00 6.915869014E-01
 3.200000000E+00 1.000000000E+00 6.916588618E-01
 3.150000000E+00 1.000000000E+00 6.919444810E-01
 3.100000000E+00 1.000000000E+00 6.923426409E-01
 3.050000000E+00 1.000000000E+00 6.927992145E-01
 3.000000000E+00 1.000000000E+00 6.934687698E-01
 2.950000000E+00 1.000000000E+00 6.938314255E-01
 2.900000000E+00 1.000000000E+00 6.940957947E-01
 2.850000000E+00 1.000000000E+00 6.945588211E-01
 2.800000000E+00 1.000000000E+00 6.947922025E-01
 2.750000000E+00 1.000000000E+00 6.954029346E-01
 2.700000000E+00 1.000000000E+00 6.957130081E-01
 2.650000000E+00 1.000000000E+00 6.960391443E-01
 2.600000000E+00 1.000000000E+00 6.966411968E-01
 2.550000000E+00 1.000000000E+00 6.971076828E-01
 2.500000000E+00 1.000000000E+00 6.977187237E-01
 2.450000000E+00 1.000000000E+00 6.982141167E-01
 2.400000000E+00 1.000000000E+00 6.983956184E-01
 2.350000000E+00 1.000000000E+00 6.988785662E-01
 2.300000000E+00 1.000000000E+00 6.993272851E-01
 2.250000000E+00 1.000000000E+00 6.998773208E-01
 2.200000000E+00 1.000000000E+00 7.003927082E-01
 2.150000000E+00 1.000000000E+00 7.008615360E-01
 2.100000000E+00 1.000000000E+00 7.013985413E-01
 2.050000000E+00 1.000000000E+00 7.020361272E-01
 2.000000000E+00 1.000000000E+00 7.027033349E-01
 1.950000000E+00 1.000000000E+00 7.035527241E-01
 1.900000000E+00 1.000000000E+00 7.043688307E-01
 1.850000000E+00 1.000000000E+00 7.052473198E-01
 1.800000000E+00 1.000000000E+00 7.060788674E-01
 1.750000000E+00 1.000000000E+00 7.069478562E-01
 1.700000000E+00 1.000000000E+00 7.081879313E-01
 1.650000000E+00 1.000000000E+00 7.091605259E-01
 1.600000000E+00 1.000000000E+00 7.104848950E-01
 1.550000000E+00 1.000000000E+00 7.130067705E-01
 1.500000000E+00 1.000000000E+00 7.153644414E-01
 1.450000000E+00 1.000000000E+00 7.165475265E-01
 1.400000000E+00 1.000000000E+00 7.184787303E-01
 1.350000000E+00 1.000000000E+00 7.202573096E-01
 1.300000000E+00 1.000000000E+00 7.227880331E-01
 1.250000000E+00 1.000000000E+00 7.257374461E-01
 1.200000000E+00 1.000000000E+00 7.299118592E-01
 1.150000000E+00 1.000000000E+00 7.332642374E-01
 1.100000000E+00 1.000000000E+00 7.372716155E-01
 1.050000000E+00 1.000000000E+00 7.409809083E-01
 1.000000000E+00 1.000000000E+00 7.451375916E-01
 9.500000000E-01 1.000000000E+00 7.488464178E-01
 9.000000000E-01 1.000000000E+00 7.523758322E-01
 8.500000000E-01 1.000000000E+00 7.561810140E-01
 8.000000000E-01 1.000000000E+00 7.612283304E-01
 7.500000000E-01 1.000000000E+00 7.660017071E-01
 7.000000000E-01 1.000000000E+00 7.676781592E-01
 6.500000000E-01 1.000000000E+00 7.693045961E-01
 6.000000000E-01 1.000000000E+00 7.695711362E-01
 5.500000000E-01 1.000000000E+00 7.688693020E-01
 5.000000000E-01 1.000000000E+00 7.670790662E-01
 4.500000000E-01 1.000000000E+00 7.641150534E-01
 4.000000000E-01 1.000000000E+00 7.604844750E-01
 3.500000000E-01 1.000000000E+00 7.560319351E-01
 3.000000000E-01 1.000000000E+00 7.514565346E-01
 2.500000000E-01 1.000000000E+00 7.458599705E-01
 2.000000000E-01 1.000000000E+00 7.403625024E-01
 1.500000000E-01 1.000000000E+00 7.350760953E-01
 1.000000000E-01 1.000000000E+00 7.301015948E-01
 5.000000000E-02 1.000000000E+00 7.256976855E-01
 1.733724275E-12 1.000000000E+00 7.219502140E-01
 -5.000000000E-02 1.000000000E+00 7.190101055E-01
 -1.000000000E-01 1.000000000E+00 7.168144154E-01
 -1.500000000E-01 1.000000000E+00 7.153685693E-01
 -2.000000000E-01 1.000000000E+00 7.146648898E-01
 -2.500000000E-01 1.000000000E+00 7.146021053E-01
 -3.000000000E-01 1.000000000E+00 7.152182543E-01
 -3.500000000E-01 1.000000000E+00 7.165147377E-01
 -4.000000000E-01 1.000000000E+00 7.185991164E-01
 -4.500000000E-01 1.000000000E+00 7.219582648E-01
 9.022278582E-01 -5.174173942E-03 5.929568886E-01
 8.223523245E-01 -1.100957336E-02 6.254946158E-01
 7.499165591E-01 -1.952409130E-02 6.666632708E-01
 6.791413451E-01 -2.905911387E-02 7.082571176E-01
 6.076696307E-01 -3.780167197E-02 7.593710579E-01
 9.783035885E-01 -3.744704849E-03 5.868133310E-01
 5.449402503E-01 -4.737298510E-02 8.142718736E-01
 4.785284029E-01 -5.371533107E-02 8.922418114E-01
 4.239427844E-01 -5.906548893E-02 9.496177168E-01
 3.635081078E-01 -5.958509379E-02 9.854325909E-01
 3.124033902E-01 -5.900419124E-02 9.671631086E-01
 2.497482400E-01 -5.679722940E-02 9.274907184E-01
 1.896098333E-01 -5.119303481E-02 8.929686740E-01
 1.319746897E-01 -4.451866890E-02 8.635122148E-01
 8.070478964E-02 -3.658822610E-02 8.370524075E-01
 4.320245583E-02 -3.061759874E-02 8.026767608E-01
 1.966872654E+00 -9.568363919E-01 7.176933564E-01
 1.975236542E+00 9.570896762E-01 7.132153961E-01
 9.910029163E-01 7.429335302E-03 6.382451030E-01