TITLE     = "Visualization of the solution"
VARIABLES = "x"
"y"
"Mach"
ZONE T="Zone"
 STRANDID=0, SOLUTIONTIME=0
 Nodes=11917, Elements=23255, ZONETYPE=FEQuadrilateral
 DATAPACKING=POINT
 DT=(DOUBLE DOUBLE DOUBLE )
 9.998556972E-01 5.072301719E-04 5.541635624E-01
 9.851841331E-01 3.198379884E-03 6.148118585E-01
 9.720706344E-01 5.682316143E-03 6.581162892E-01
 9.557839632E-01 8.686466143E-03 6.827645544E-01
 9.408801198E-01 1.141338516E-02 7.008158410E-01
 9.273951054E-01 1.390783582E-02 7.198721419E-01
 9.155183434E-01 1.607205905E-02 7.345907773E-01
 9.030196071E-01 1.829989254E-02 7.466273832E-01
 8.908437490E-01 2.043796889E-02 7.579798117E-01
 8.784163594E-01 2.258253284E-02 7.683495070E-01
 8.662385941E-01 2.467811853E-02 7.839092720E-01
 8.540574908E-01 2.670526505E-02 7.964446176E-01
 8.415199518E-01 2.867628634E-02 7.983386083E-01
 8.301715255E-01 3.045319393E-02 8.057777931E-01
 8.186068535E-01 3.223740682E-02 8.138954582E-01
 8.062577844E-01 3.411280736E-02 8.230996066E-01
 7.936540842E-01 3.597553074E-02 8.302324303E-01
 7.817205191E-01 3.769676387E-02 8.352459721E-01
 7.696619630E-01 3.942850232E-02 8.456316326E-01
 7.582688332E-01 4.103323817E-02 8.556045376E-01
 7.454842329E-01 4.275188223E-02 8.582602144E-01
 7.322427630E-01 4.452230781E-02 8.678772860E-01
 7.216682434E-01 4.590836540E-02 8.768002469E-01
 7.108261585E-01 4.730527848E-02 8.879108371E-01
 6.992917657E-01 4.872500151E-02 8.921203504E-01
 6.863510609E-01 5.027781799E-02 8.999720241E-01
 6.738421917E-01 5.175329372E-02 9.133177220E-01
 6.633863449E-01 5.292268097E-02 9.191108449E-01
 6.519479156E-01 5.418272316E-02 9.319568532E-01
 6.406950355E-01 5.533362553E-02 9.339908942E-01
 6.290943027E-01 5.652038008E-02 9.515806025E-01
 6.177027822E-01 5.759175867E-02 9.574329559E-01
 6.072373986E-01 5.853827298E-02 9.644001672E-01
 5.951871276E-01 5.955769122E-02 9.714428649E-01
 5.836185813E-01 6.049486250E-02 9.855285846E-01
 5.702800155E-01 6.148605049E-02 9.953626909E-01
 5.575361848E-01 6.233979389E-02 1.001510890E+00
 5.449442267E-01 6.311387569E-02 1.010774341E+00
 5.336963534E-01 6.372956187E-02 1.019846078E+00
 5.218539834E-01 6.432679296E-02 1.029564044E+00
 5.091824532E-01 6.486688554E-02 1.029496408E+00
 4.980765879E-01 6.526736170E-02 1.033280435E+00
 4.849801362E-01 6.568668038E-02 1.042065224E+00
 4.719494283E-01 6.600925326E-02 1.039002794E+00
 4.579597712E-01 6.626909971E-02 1.032820250E+00
 4.443039894E-01 6.642036140E-02 1.024064433E+00
 4.313695729E-01 6.648845971E-02 1.014996699E+00
 4.181321561E-01 6.645979732E-02 1.010343299E+00
 4.056500196E-01 6.640048325E-02 1.013947645E+00
 3.927688599E-01 6.623659283E-02 1.003897340E+00
 3.805988431E-01 6.601076573E-02 9.989006993E-01
 3.690688908E-01 6.575475633E-02 9.959743166E-01
 3.556631207E-01 6.535970420E-02 9.889421753E-01
 3.432257175E-01 6.493771076E-02 9.845845485E-01
 3.303951025E-01 6.440995634E-02 9.763857910E-01
 3.197418153E-01 6.393332034E-02 9.747557217E-01
 3.073550463E-01 6.331004202E-02 9.702351585E-01
 2.945600748E-01 6.258478761E-02 9.627578698E-01
 2.807110250E-01 6.171614677E-02 9.573166769E-01
 2.684484422E-01 6.087463349E-02 9.523687235E-01
 2.565349340E-01 5.998326465E-02 9.454821432E-01
 2.440546453E-01 5.898076296E-02 9.413112105E-01
 2.315117270E-01 5.789592117E-02 9.374411761E-01
 2.193269134E-01 5.674836412E-02 9.293269367E-01
 2.074894905E-01 5.555542186E-02 9.227273567E-01
 1.959211826E-01 5.432806537E-02 9.187989365E-01
 1.835688800E-01 5.290934071E-02 9.101211373E-01
 1.717797220E-01 5.148278549E-02 9.057599478E-01
 1.601671427E-01 4.997297376E-02 8.971428276E-01
 1.485017240E-01 4.837142676E-02 8.916857831E-01
 1.377080381E-01 4.679393023E-02 8.849576830E-01
 1.264992356E-01 4.505149275E-02 8.762029145E-01
 1.152955443E-01 4.320507497E-02 8.704399508E-01
 1.047306284E-01 4.134001210E-02 8.591973272E-01
 9.501093626E-02 3.952232376E-02 8.529796634E-01
 8.424130082E-02 3.737212718E-02 8.434354982E-01
 7.289521396E-02 3.492309153E-02 8.298866122E-01
 6.317327917E-02 3.265840560E-02 8.198775460E-01
 5.373599380E-02 3.026619926E-02 8.073615646E-01
 4.494768754E-02 2.784231119E-02 7.938262322E-01
 3.734856844E-02 2.554515749E-02 7.788951171E-01
 3.067455627E-02 2.333674207E-02 7.627641735E-01
 2.497523651E-02 2.126615867E-02 7.477358642E-01
 2.083082497E-02 1.961390302E-02 7.306420649E-01
 1.687260158E-02 1.789269410E-02 7.124914058E-01
 1.388194039E-02 1.646637544E-02 6.940064974E-01
 1.122668572E-02 1.508487854E-02 6.754603438E-01
 9.280142374E-03 1.397943031E-02 6.580270412E-01
 7.491265889E-03 1.287280489E-02 6.358634614E-01
 5.855040159E-03 1.175940409E-02 6.036286137E-01
 3.726143856E-03 1.012132224E-02 5.608656654E-01
 1.947838813E-03 8.478243835E-03 5.089811705E-01
 4.615292419E-04 6.762019359E-03 4.224757564E-01
 -9.584022919E-04 4.422790837E-03 3.063100479E-01
 -1.599450945E-03 2.587690717E-03 1.934243876E-01
 -1.825424959E-03 1.115186606E-03 8.126259359E-02
 -1.777936239E-03 -5.898828385E-04 3.653168455E-02
 -1.354387030E-03 -2.498957096E-03 1.618170663E-01
 -3.870990768E-04 -4.733454902E-03 2.810645021E-01
 1.125766663E-03 -7.045787293E-03 3.783652561E-01
 3.235640470E-03 -9.462176822E-03 4.604004984E-01
 5.155314226E-03 -1.125764754E-02 5.222955240E-01
 7.381442469E-03 -1.306023728E-02 5.677240770E-01
 9.080872871E-03 -1.429284550E-02 6.010353008E-01
 1.118818391E-02 -1.569861174E-02 6.316729241E-01
 1.362841856E-02 -1.718371548E-02 6.619186248E-01
 1.690006629E-02 -1.898640394E-02 6.899530592E-01
 1.997300982E-02 -2.053241059E-02 7.172014706E-01
 2.396194078E-02 -2.237592638E-02 7.399522877E-01
 2.932030335E-02 -2.460554987E-02 7.647870878E-01
 3.502902389E-02 -2.675370313E-02 7.872987469E-01
 4.198695347E-02 -2.910452336E-02 8.040045930E-01
 4.947321862E-02 -3.140149638E-02 8.188969186E-01
 5.817444250E-02 -3.382259235E-02 8.337842648E-01
 6.687724590E-02 -3.603412956E-02 8.466972063E-01
 7.703060657E-02 -3.838344663E-02 8.570157347E-01
 8.687045425E-02 -4.048791900E-02 8.647001073E-01
 9.734957665E-02 -4.255668074E-02 8.763767780E-01
 1.084637120E-01 -4.459042847E-02 8.831022961E-01
 1.199305728E-01 -4.654249549E-02 8.923456960E-01
 1.315683424E-01 -4.838109761E-02 8.998908600E-01
 1.420774162E-01 -4.993734881E-02 9.081989625E-01
 1.532558650E-01 -5.148176849E-02 9.139829418E-01
 1.651010513E-01 -5.302081630E-02 9.227836659E-01
 1.766476631E-01 -5.441649631E-02 9.305025046E-01
 1.883827448E-01 -5.574323609E-02 9.385879568E-01
 1.988171935E-01 -5.684534088E-02 9.487864699E-01
 2.100611031E-01 -5.794322491E-02 9.548665727E-01
 2.221639454E-01 -5.903807655E-02 9.649529418E-01
 2.342964858E-01 -6.003348902E-02 9.745086408E-01
 2.461521178E-01 -6.090959162E-02 9.815771995E-01
 2.584010065E-01 -6.173039228E-02 9.934876525E-01
 2.694067061E-01 -6.236854196E-02 1.002281821E+00
 2.818807662E-01 -6.300850213E-02 1.012844455E+00
 2.938983440E-01 -6.350786984E-02 1.021997805E+00
 3.067764044E-01 -6.395081431E-02 1.038207766E+00
 3.183318377E-01 -6.421537697E-02 1.053137178E+00
 3.307826221E-01 -6.439574808E-02 1.056678117E+00
 3.413311541E-01 -6.446807086E-02 1.069260027E+00
 3.527084887E-01 -6.442653388E-02 1.078005883E+00
 3.636943102E-01 -6.429601461E-02 1.087090152E+00
 3.745447993E-01 -6.406177580E-02 1.091993813E+00
 3.863805830E-01 -6.371182948E-02 1.108468658E+00
 3.991425037E-01 -6.316748261E-02 1.111743409E+00
 4.113377035E-01 -6.252022088E-02 1.017228486E+00
 4.243493080E-01 -6.173633039E-02 9.642539628E-01
 4.367822409E-01 -6.081246957E-02 9.734403353E-01
 4.493352473E-01 -5.976050347E-02 9.595941209E-01
 4.616687894E-01 -5.864330009E-02 9.473252671E-01
 4.739839137E-01 -5.738249794E-02 9.254258066E-01
 4.860162139E-01 -5.610124022E-02 9.154934285E-01
 4.983078837E-01 -5.465518311E-02 8.923284498E-01
 5.118576884E-01 -5.300811678E-02 8.757692876E-01
 5.255224109E-01 -5.129078776E-02 8.655419341E-01
 5.382980108E-01 -4.956426844E-02 8.451018931E-01
 5.517000556E-01 -4.774232581E-02 8.346530587E-01
 5.648728609E-01 -4.586912692E-02 8.188015471E-01
 5.779371262E-01 -4.396772385E-02 8.022103013E-01
 5.907219648E-01 -4.211596400E-02 7.930747684E-01
 6.036571860E-01 -4.021609947E-02 7.821651264E-01
 6.172456145E-01 -3.820015863E-02 7.711966562E-01
 6.313717961E-01 -3.609097376E-02 7.604600867E-01
 6.453756690E-01 -3.398322687E-02 7.493821246E-01
 6.585453749E-01 -3.200240061E-02 7.391268711E-01
 6.721839905E-01 -2.996642888E-02 7.300175302E-01
 6.848851442E-01 -2.809415199E-02 7.244100359E-01
 6.971123815E-01 -2.625417896E-02 7.129996027E-01
 7.120099068E-01 -2.406567149E-02 7.042346731E-01
 7.252233028E-01 -2.215730399E-02 6.975314063E-01
 7.368267179E-01 -2.047062851E-02 6.873696702E-01
 7.503330708E-01 -1.858790219E-02 6.828552036E-01
 7.632040977E-01 -1.680537686E-02 6.758144974E-01
 7.764274478E-01 -1.497914176E-02 6.660842697E-01
 7.886840105E-01 -1.334521361E-02 6.596617747E-01
 8.015188575E-01 -1.166646648E-02 6.520431788E-01
 8.125731945E-01 -1.025886275E-02 6.445257680E-01
 8.240237832E-01 -8.868590929E-03 6.388648885E-01
 8.364140987E-01 -7.412486710E-03 6.309140892E-01
 8.489464521E-01 -6.038187072E-03 6.254903690E-01
 8.610728979E-01 -4.779297393E-03 6.183761024E-01
 8.723380566E-01 -3.707254073E-03 6.137062218E-01
 8.838240504E-01 -2.696960466E-03 6.077057249E-01
 8.968362808E-01 -1.709536416E-03 6.046927869E-01
 9.069944024E-01 -1.033144188E-03 6.014736389E-01
 9.174070358E-01 -4.362788750E-04 5.990395046E-01
 9.273374677E-01 2.115336792E-05 5.984063094E-01
 9.367924929E-01 3.689746081E-04 5.981669988E-01
 9.490918517E-01 6.873899838E-04 5.995802509E-01
 9.627945423E-01 8.729675319E-04 6.017450082E-01
 9.773219228E-01 8.850782178E-04 6.039955284E-01
 9.900003672E-01 7.388322265E-04 6.091332728E-01
 -5.000000000E-01 -1.000000000E+00 7.239172099E-01
 3.500000000E+00 -1.000000000E+00 7.268233056E-01
 3.500000000E+00 1.000000000E+00 7.146941408E-01
 -5.000000000E-01 1.000000000E+00 7.240009335E-01
 9.925199151E-01 1.852805028E-03 5.979291918E-01
 9.786273837E-01 4.440348013E-03 6.376323928E-01
 9.639272988E-01 7.184391143E-03 6.708958479E-01
 9.483320415E-01 1.004992565E-02 6.921054587E-01
 9.341376126E-01 1.266061049E-02 7.106412464E-01
 9.214567244E-01 1.498994743E-02 7.277209709E-01
 9.092689753E-01 1.718597580E-02 7.406420477E-01
 8.969316781E-01 1.936893072E-02 7.525104576E-01
 8.846300542E-01 2.151025087E-02 7.627112852E-01
 8.723274767E-01 2.363032568E-02 7.761058804E-01
 8.601480424E-01 2.569169179E-02 7.913345242E-01
 8.477887213E-01 2.769077569E-02 7.971470290E-01
 8.358457386E-01 2.956474014E-02 8.019727259E-01
 8.243891895E-01 3.134530038E-02 8.097379178E-01
 8.124323189E-01 3.317510709E-02 8.186236721E-01
 7.999559343E-01 3.504416905E-02 8.269980909E-01
 7.876873016E-01 3.683614731E-02 8.323674806E-01
 7.756912410E-01 3.856263310E-02 8.399220708E-01
 7.639653981E-01 4.023087025E-02 8.518509653E-01
 7.518765330E-01 4.189256020E-02 8.563271707E-01
 7.388634980E-01 4.363709502E-02 8.628730280E-01
 7.269555032E-01 4.521533661E-02 8.720078807E-01
 7.162472010E-01 4.660682194E-02 8.831284729E-01
 7.050589621E-01 4.801514000E-02 8.901832281E-01
 6.928214133E-01 4.950140975E-02 8.948345080E-01
 6.800966263E-01 5.101555586E-02 9.076478664E-01
 6.686142683E-01 5.233798735E-02 9.151410566E-01
 6.576671302E-01 5.355270207E-02 9.272960400E-01
 6.463214755E-01 5.475817434E-02 9.305753180E-01
 6.348946691E-01 5.592700280E-02 9.440490587E-01
 6.233985424E-01 5.705606937E-02 9.541747133E-01
 6.124700904E-01 5.806501582E-02 9.618533935E-01
 6.012122631E-01 5.904798210E-02 9.665459709E-01
 5.894028544E-01 6.002627686E-02 9.789416725E-01
 5.769492984E-01 6.099045649E-02 9.911251164E-01
 5.639081001E-01 6.191292219E-02 9.979776723E-01
 5.512402058E-01 6.272683479E-02 1.006407413E+00
 5.393202901E-01 6.342171878E-02 1.014323354E+00
 5.277751684E-01 6.402817741E-02 1.026582436E+00
 5.155182183E-01 6.459683925E-02 1.029515776E+00
 5.036295205E-01 6.506712362E-02 1.029959478E+00
 4.915283620E-01 6.547702104E-02 1.039156329E+00
 4.784647822E-01 6.584796682E-02 1.041076720E+00
 4.649545997E-01 6.613917649E-02 1.036680666E+00
 4.511318803E-01 6.634473056E-02 1.027870697E+00
 4.378367811E-01 6.645441055E-02 1.020470194E+00
 4.247508645E-01 6.647412851E-02 1.009865065E+00
 4.118910879E-01 6.643014029E-02 1.014296039E+00
 3.992094398E-01 6.631853804E-02 1.009107649E+00
 3.866838515E-01 6.612367928E-02 9.999101723E-01
 3.748338670E-01 6.588276103E-02 9.991791872E-01
 3.623660058E-01 6.555723026E-02 9.911539447E-01
 3.494444191E-01 6.514870748E-02 9.881631075E-01
 3.368104100E-01 6.467383355E-02 9.790632370E-01
 3.250684589E-01 6.417163834E-02 9.760208242E-01
 3.135484308E-01 6.362168118E-02 9.728798890E-01
 3.009575605E-01 6.294741482E-02 9.666625208E-01
 2.876355499E-01 6.215046719E-02 9.594972356E-01
 2.745797336E-01 6.129539013E-02 9.551685705E-01
 2.624916881E-01 6.042894907E-02 9.488903552E-01
 2.502947897E-01 5.948201381E-02 9.430175426E-01
 2.377831861E-01 5.843834206E-02 9.399137700E-01
 2.254193202E-01 5.732214265E-02 9.335241463E-01
 2.134082019E-01 5.615189299E-02 9.252417134E-01
 2.017053366E-01 5.494174361E-02 9.218591438E-01
 1.897450313E-01 5.361870304E-02 9.136160433E-01
 1.776743010E-01 5.219606310E-02 9.085383836E-01
 1.659734324E-01 5.072787963E-02 9.012252852E-01
 1.543344334E-01 4.917220026E-02 8.942447290E-01
 1.431048810E-01 4.758267850E-02 8.887424633E-01
 1.321036369E-01 4.592271149E-02 8.803165581E-01
 1.208973899E-01 4.412828386E-02 8.733698517E-01
 1.100130863E-01 4.227254353E-02 8.658557763E-01
 8.962611854E-02 3.844722547E-02 8.487143163E-01
 7.856825739E-02 3.614760935E-02 8.375519533E-01
 7.195392624E-02 -3.720878810E-02 8.534268621E-01
 9.211001545E-02 -4.152229987E-02 8.728247488E-01
 1.029066443E-01 -4.357355461E-02 8.791906446E-01
 1.141971424E-01 -4.556646198E-02 8.879687491E-01
 1.257494576E-01 -4.746179655E-02 8.960735439E-01
 1.368228793E-01 -4.915922321E-02 9.044789516E-01
 1.476666406E-01 -5.070955865E-02 9.111976746E-01
 1.591784582E-01 -5.225129239E-02 9.178658736E-01
 1.708743572E-01 -5.371865630E-02 9.270781748E-01
 1.825152040E-01 -5.507986620E-02 9.340946354E-01
 1.935999691E-01 -5.629428849E-02 9.440184263E-01
 2.044391483E-01 -5.739428289E-02 9.520325810E-01
 2.161125243E-01 -5.849065073E-02 9.591461854E-01
 2.282302156E-01 -5.953578278E-02 9.701967104E-01
 2.402243018E-01 -6.047154032E-02 9.781419755E-01
 2.522765622E-01 -6.131999195E-02 9.865536792E-01
 2.639038563E-01 -6.204946712E-02 9.992890673E-01
 2.756437361E-01 -6.268852204E-02 1.006226396E+00
 2.878895551E-01 -6.325818598E-02 1.018450946E+00
 3.003373742E-01 -6.372934207E-02 1.027681447E+00
 3.125541210E-01 -6.408309564E-02 1.048259524E+00
 3.245572299E-01 -6.430556253E-02 1.054719582E+00
 3.360568881E-01 -6.443190947E-02 1.061977719E+00
 3.470198214E-01 -6.444730237E-02 1.074611997E+00
 3.582013994E-01 -6.436127424E-02 1.082064582E+00
 3.691195548E-01 -6.417889521E-02 1.090677994E+00
 3.804626912E-01 -6.388680264E-02 1.096737769E+00
 3.927615434E-01 -6.343965605E-02 1.118116323E+00
 4.052401036E-01 -6.284385175E-02 1.076915076E+00
 4.178435057E-01 -6.212827563E-02 9.736836122E-01
 4.305657744E-01 -6.127439998E-02 9.705004640E-01
 4.430587441E-01 -6.028648652E-02 9.687602539E-01
 4.555020183E-01 -5.920190178E-02 9.524687686E-01
 4.678263515E-01 -5.801289901E-02 9.376686763E-01
 4.800000638E-01 -5.674186908E-02 9.189062699E-01
 4.921620488E-01 -5.537821166E-02 9.054825550E-01
 5.050827861E-01 -5.383164994E-02 8.826403726E-01
 5.186900496E-01 -5.214945227E-02 8.705153237E-01
 5.319102108E-01 -5.042752810E-02 8.563027047E-01
 5.449990332E-01 -4.865329713E-02 8.387924821E-01
 5.582864583E-01 -4.680572636E-02 8.275529149E-01
 5.714049935E-01 -4.491842538E-02 8.100563613E-01
 5.843295455E-01 -4.304184392E-02 7.971038370E-01
 5.971895754E-01 -4.116603173E-02 7.878437168E-01
 6.104514003E-01 -3.920812905E-02 7.766771019E-01
 6.243087053E-01 -3.714556620E-02 7.658516336E-01
 6.383737326E-01 -3.503710032E-02 7.548858024E-01
 6.519605219E-01 -3.299281374E-02 7.441506822E-01
 6.653646827E-01 -3.098441474E-02 7.343725127E-01
 6.785345674E-01 -2.903029043E-02 7.270283365E-01
 6.909987628E-01 -2.717416547E-02 7.190695748E-01
 7.045611441E-01 -2.515992522E-02 7.084548276E-01
 7.186166048E-01 -2.311148774E-02 7.007878921E-01
 7.310250103E-01 -2.131396625E-02 6.924089117E-01
 7.435798943E-01 -1.952926535E-02 6.849279002E-01
 7.567685843E-01 -1.769663952E-02 6.795419735E-01
 7.698157728E-01 -1.589225931E-02 6.710895881E-01
 7.825557292E-01 -1.416217769E-02 6.625894760E-01
 7.951014340E-01 -1.250584004E-02 6.561346620E-01
 8.070460260E-01 -1.096266462E-02 6.480725701E-01
 8.182984889E-01 -9.563726839E-03 6.416578073E-01
 8.302189410E-01 -8.140538819E-03 6.350272862E-01
 8.426802754E-01 -6.725336891E-03 6.281004744E-01
 8.550096750E-01 -5.408742232E-03 6.220244676E-01
 8.667054772E-01 -4.243275733E-03 6.158061648E-01
 8.780810535E-01 -3.202107269E-03 6.105624967E-01
 8.903301656E-01 -2.203248441E-03 6.064203947E-01
 9.019153416E-01 -1.371340302E-03 6.026392163E-01
 9.122007191E-01 -7.347115315E-04 6.001953844E-01
 9.429421723E-01 5.281822960E-04 5.988043700E-01
 9.559431970E-01 7.801787579E-04 6.008088107E-01
 9.700582325E-01 8.790228749E-04 6.036974138E-01
 9.836611450E-01 8.119552222E-04 6.075157911E-01
 -5.000000000E-01 9.500000000E-01 7.215716323E-01
 -5.000000000E-01 9.000000000E-01 7.177401575E-01
 -5.000000000E-01 8.500000000E-01 7.148587505E-01
 -5.000000000E-01 8.000000000E-01 7.123288598E-01
 -5.000000000E-01 7.500000000E-01 7.098867395E-01
 -5.000000000E-01 7.000000000E-01 7.075585905E-01
 -5.000000000E-01 6.500000000E-01 7.051208472E-01
 -5.000000000E-01 6.000000000E-01 7.026634713E-01
 -5.000000000E-01 5.500000000E-01 7.001678179E-01
 -5.000000000E-01 5.000000000E-01 6.976106324E-01
 -5.000000000E-01 4.500000000E-01 6.950096180E-01
 -5.000000000E-01 4.000000000E-01 6.924221722E-01
 -5.000000000E-01 3.500000000E-01 6.898900539E-01
 -5.000000000E-01 3.000000000E-01 6.874461893E-01
 -5.000000000E-01 2.500000000E-01 6.852018297E-01
 -5.000000000E-01 2.000000000E-01 6.832324475E-01
 -5.000000000E-01 1.500000000E-01 6.815483966E-01
 -5.000000000E-01 1.000000000E-01 6.802896987E-01
 -5.000000000E-01 5.000000000E-02 6.795142165E-01
 -5.000000000E-01 2.752242878E-12 6.792544407E-01
 -5.000000000E-01 -5.000000000E-02 6.795083486E-01
 -5.000000000E-01 -1.000000000E-01 6.802604894E-01
 -5.000000000E-01 -1.500000000E-01 6.814692299E-01
 -5.000000000E-01 -2.000000000E-01 6.831349594E-01
 -5.000000000E-01 -2.500000000E-01 6.851070284E-01
 -5.000000000E-01 -3.000000000E-01 6.873431685E-01
 -5.000000000E-01 -3.500000000E-01 6.897885516E-01
 -5.000000000E-01 -4.000000000E-01 6.923167321E-01
 -5.000000000E-01 -4.500000000E-01 6.948784998E-01
 -5.000000000E-01 -5.000000000E-01 6.974752717E-01
 -5.000000000E-01 -5.500000000E-01 7.000328134E-01
 -5.000000000E-01 -6.000000000E-01 7.025255375E-01
 -5.000000000E-01 -6.500000000E-01 7.049753419E-01
 -5.000000000E-01 -7.000000000E-01 7.073779903E-01
 -5.000000000E-01 -7.500000000E-01 7.097670815E-01
 -5.000000000E-01 -8.000000000E-01 7.122043418E-01
 -5.000000000E-01 -8.500000000E-01 7.147573990E-01
 -5.000000000E-01 -9.000000000E-01 7.176600665E-01
 -5.000000000E-01 -9.500000000E-01 7.214741096E-01
 -4.500000000E-01 -1.000000000E+00 7.213265556E-01
 -4.000000000E-01 -1.000000000E+00 7.176323398E-01
 -3.500000000E-01 -1.000000000E+00 7.153137641E-01
 -3.000000000E-01 -1.000000000E+00 7.138478750E-01
 -2.500000000E-01 -1.000000000E+00 7.130421257E-01
 -2.000000000E-01 -1.000000000E+00 7.129294816E-01
 -1.500000000E-01 -1.000000000E+00 7.135335888E-01
 -1.000000000E-01 -1.000000000E+00 7.147540523E-01
 -5.000000000E-02 -1.000000000E+00 7.166114072E-01
 -9.424683256E-13 -1.000000000E+00 7.191998817E-01
 5.000000000E-02 -1.000000000E+00 7.222476197E-01
 1.000000000E-01 -1.000000000E+00 7.257512664E-01
 1.500000000E-01 -1.000000000E+00 7.297610215E-01
 2.000000000E-01 -1.000000000E+00 7.339610636E-01
 2.500000000E-01 -1.000000000E+00 7.380493516E-01
 3.000000000E-01 -1.000000000E+00 7.419372690E-01
 3.500000000E-01 -1.000000000E+00 7.452423587E-01
 4.000000000E-01 -1.000000000E+00 7.477984043E-01
 4.500000000E-01 -1.000000000E+00 7.495290426E-01
 5.000000000E-01 -1.000000000E+00 7.504785699E-01
 5.500000000E-01 -1.000000000E+00 7.506295339E-01
 6.000000000E-01 -1.000000000E+00 7.499409677E-01
 6.500000000E-01 -1.000000000E+00 7.484410776E-01
 7.000000000E-01 -1.000000000E+00 7.464213082E-01
 7.500000000E-01 -1.000000000E+00 7.439698830E-01
 8.000000000E-01 -1.000000000E+00 7.413210181E-01
 8.500000000E-01 -1.000000000E+00 7.384446696E-01
 9.000000000E-01 -1.000000000E+00 7.356557944E-01
 9.500000000E-01 -1.000000000E+00 7.327962371E-01
 1.000000000E+00 -1.000000000E+00 7.302092840E-01
 1.050000000E+00 -1.000000000E+00 7.274268692E-01
 1.100000000E+00 -1.000000000E+00 7.252044872E-01
 1.150000000E+00 -1.000000000E+00 7.232341436E-01
 1.200000000E+00 -1.000000000E+00 7.214539649E-01
 1.250000000E+00 -1.000000000E+00 7.200190612E-01
 1.300000000E+00 -1.000000000E+00 7.187001193E-01
 1.350000000E+00 -1.000000000E+00 7.176802566E-01
 1.400000000E+00 -1.000000000E+00 7.168695003E-01
 1.450000000E+00 -1.000000000E+00 7.163753825E-01
 1.500000000E+00 -1.000000000E+00 7.160128449E-01
 1.550000000E+00 -1.000000000E+00 7.158279314E-01
 1.600000000E+00 -1.000000000E+00 7.156947798E-01
 1.650000000E+00 -1.000000000E+00 7.156858355E-01
 1.700000000E+00 -1.000000000E+00 7.156508380E-01
 1.750000000E+00 -1.000000000E+00 7.157152423E-01
 1.800000000E+00 -1.000000000E+00 7.158969362E-01
 1.850000000E+00 -1.000000000E+00 7.162180771E-01
 1.900000000E+00 -1.000000000E+00 7.164396067E-01
 1.950000000E+00 -1.000000000E+00 7.166782883E-01
 2.000000000E+00 -1.000000000E+00 7.169541697E-01
 2.050000000E+00 -1.000000000E+00 7.173296822E-01
 2.100000000E+00 -1.000000000E+00 7.176337180E-01
 2.150000000E+00 -1.000000000E+00 7.179132143E-01
 2.200000000E+00 -1.000000000E+00 7.182155837E-01
 2.250000000E+00 -1.000000000E+00 7.185519578E-01
 2.300000000E+00 -1.000000000E+00 7.186890960E-01
 2.350000000E+00 -1.000000000E+00 7.190167934E-01
 2.400000000E+00 -1.000000000E+00 7.193801904E-01
 2.450000000E+00 -1.000000000E+00 7.196469778E-01
 2.500000000E+00 -1.000000000E+00 7.197925587E-01
 2.550000000E+00 -1.000000000E+00 7.199349383E-01
 2.600000000E+00 -1.000000000E+00 7.201864781E-01
 2.650000000E+00 -1.000000000E+00 7.203528126E-01
 2.700000000E+00 -1.000000000E+00 7.205973812E-01
 2.750000000E+00 -1.000000000E+00 7.207139996E-01
 2.800000000E+00 -1.000000000E+00 7.208236532E-01
 2.850000000E+00 -1.000000000E+00 7.209784804E-01
 2.900000000E+00 -1.000000000E+00 7.210249435E-01
 2.950000000E+00 -1.000000000E+00 7.210075141E-01
 3.000000000E+00 -1.000000000E+00 7.210862497E-01
 3.050000000E+00 -1.000000000E+00 7.212171875E-01
 3.100000000E+00 -1.000000000E+00 7.213034076E-01
 3.150000000E+00 -1.000000000E+00 7.214312562E-01
 3.200000000E+00 -1.000000000E+00 7.215445826E-01
 3.250000000E+00 -1.000000000E+00 7.215517904E-01
 3.300000000E+00 -1.000000000E+00 7.217178183E-01
 3.350000000E+00 -1.000000000E+00 7.220234974E-01
 3.400000000E+00 -1.000000000E+00 7.224747909E-01
 3.450000000E+00 -1.000000000E+00 7.238036345E-01
 3.500000000E+00 -9.500000000E-01 7.288439035E-01
 3.500000000E+00 -9.000000000E-01 7.300714263E-01
 3.500000000E+00 -8.500000000E-01 7.308843280E-01
 3.500000000E+00 -8.000000000E-01 7.313577066E-01
 3.500000000E+00 -7.500000000E-01 7.315731573E-01
 3.500000000E+00 -7.000000000E-01 7.317598107E-01
 3.500000000E+00 -6.500000000E-01 7.320188991E-01
 3.500000000E+00 -6.000000000E-01 7.323301708E-01
 3.500000000E+00 -5.500000000E-01 7.326746045E-01
 3.500000000E+00 -5.000000000E-01 7.330321290E-01
 3.500000000E+00 -4.500000000E-01 7.333964976E-01
 3.500000000E+00 -4.000000000E-01 7.337517987E-01
 3.500000000E+00 -3.500000000E-01 7.341021512E-01
 3.500000000E+00 -3.000000000E-01 7.344764366E-01
 3.500000000E+00 -2.500000000E-01 7.348249149E-01
 3.500000000E+00 -2.000000000E-01 7.351074566E-01
 3.500000000E+00 -1.500000000E-01 7.352773792E-01
 3.500000000E+00 -1.000000000E-01 7.353484868E-01
 3.500000000E+00 -5.000000000E-02 7.353609148E-01
 3.500000000E+00 -2.752242878E-12 7.353469674E-01
 3.500000000E+00 5.000000000E-02 7.353294899E-01
 3.500000000E+00 1.000000000E-01 7.352452050E-01
 3.500000000E+00 1.500000000E-01 7.350401550E-01
 3.500000000E+00 2.000000000E-01 7.347442088E-01
 3.500000000E+00 2.500000000E-01 7.343861688E-01
 3.500000000E+00 3.000000000E-01 7.340008551E-01
 3.500000000E+00 3.500000000E-01 7.336464978E-01
 3.500000000E+00 4.000000000E-01 7.333057441E-01
 3.500000000E+00 4.500000000E-01 7.329440404E-01
 3.500000000E+00 5.000000000E-01 7.325295241E-01
 3.500000000E+00 5.500000000E-01 7.320986436E-01
 3.500000000E+00 6.000000000E-01 7.318077298E-01
 3.500000000E+00 6.500000000E-01 7.318016386E-01
 3.500000000E+00 7.000000000E-01 7.320676972E-01
 3.500000000E+00 7.500000000E-01 7.322536196E-01
 3.500000000E+00 8.000000000E-01 7.316576488E-01
 3.500000000E+00 8.500000000E-01 7.296504466E-01
 3.500000000E+00 9.000000000E-01 7.261964282E-01
 3.500000000E+00 9.500000000E-01 7.213742289E-01
 3.450000000E+00 1.000000000E+00 7.051883636E-01
 3.400000000E+00 1.000000000E+00 7.014432178E-01
 3.350000000E+00 1.000000000E+00 7.007141584E-01
 3.300000000E+00 1.000000000E+00 7.003628556E-01
 3.250000000E+00 1.000000000E+00 7.003073876E-01
 3.200000000E+00 1.000000000E+00 7.006291630E-01
 3.150000000E+00 1.000000000E+00 7.008510903E-01
 3.100000000E+00 1.000000000E+00 7.011792623E-01
 3.050000000E+00 1.000000000E+00 7.014786938E-01
 3.000000000E+00 1.000000000E+00 7.020066722E-01
 2.950000000E+00 1.000000000E+00 7.024319828E-01
 2.900000000E+00 1.000000000E+00 7.026665834E-01
 2.850000000E+00 1.000000000E+00 7.027961761E-01
 2.800000000E+00 1.000000000E+00 7.029968148E-01
 2.750000000E+00 1.000000000E+00 7.034034874E-01
 2.700000000E+00 1.000000000E+00 7.037872562E-01
 2.650000000E+00 1.000000000E+00 7.039101458E-01
 2.600000000E+00 1.000000000E+00 7.039849941E-01
 2.550000000E+00 1.000000000E+00 7.041487664E-01
 2.500000000E+00 1.000000000E+00 7.046218279E-01
 2.450000000E+00 1.000000000E+00 7.049633460E-01
 2.400000000E+00 1.000000000E+00 7.054267084E-01
 2.350000000E+00 1.000000000E+00 7.056679987E-01
 2.300000000E+00 1.000000000E+00 7.058172724E-01
 2.250000000E+00 1.000000000E+00 7.063426096E-01
 2.200000000E+00 1.000000000E+00 7.066390057E-01
 2.150000000E+00 1.000000000E+00 7.071405493E-01
 2.100000000E+00 1.000000000E+00 7.076543075E-01
 2.050000000E+00 1.000000000E+00 7.083146587E-01
 2.000000000E+00 1.000000000E+00 7.087436829E-01
 1.950000000E+00 1.000000000E+00 7.093698253E-01
 1.900000000E+00 1.000000000E+00 7.100181802E-01
 1.850000000E+00 1.000000000E+00 7.106297780E-01
 1.800000000E+00 1.000000000E+00 7.111666098E-01
 1.750000000E+00 1.000000000E+00 7.117529498E-01
 1.700000000E+00 1.000000000E+00 7.129437871E-01
 1.650000000E+00 1.000000000E+00 7.141719967E-01
 1.600000000E+00 1.000000000E+00 7.152308143E-01
 1.550000000E+00 1.000000000E+00 7.164222407E-01
 1.500000000E+00 1.000000000E+00 7.178898622E-01
 1.450000000E+00 1.000000000E+00 7.196746482E-01
 1.400000000E+00 1.000000000E+00 7.218833746E-01
 1.350000000E+00 1.000000000E+00 7.237196882E-01
 1.300000000E+00 1.000000000E+00 7.264422482E-01
 1.250000000E+00 1.000000000E+00 7.289822624E-01
 1.200000000E+00 1.000000000E+00 7.315889978E-01
 1.150000000E+00 1.000000000E+00 7.346338341E-01
 1.100000000E+00 1.000000000E+00 7.380930719E-01
 1.050000000E+00 1.000000000E+00 7.414808015E-01
 1.000000000E+00 1.000000000E+00 7.451287451E-01
 9.500000000E-01 1.000000000E+00 7.484019403E-01
 9.000000000E-01 1.000000000E+00 7.519219581E-01
 8.500000000E-01 1.000000000E+00 7.560481174E-01
 8.000000000E-01 1.000000000E+00 7.596454877E-01
 7.500000000E-01 1.000000000E+00 7.623035945E-01
 7.000000000E-01 1.000000000E+00 7.644810832E-01
 6.500000000E-01 1.000000000E+00 7.655312305E-01
 6.000000000E-01 1.000000000E+00 7.659592328E-01
 5.500000000E-01 1.000000000E+00 7.654146184E-01
 5.000000000E-01 1.000000000E+00 7.638435112E-01
 4.500000000E-01 1.000000000E+00 7.608618800E-01
 4.000000000E-01 1.000000000E+00 7.573316815E-01
 3.500000000E-01 1.000000000E+00 7.529509993E-01
 3.000000000E-01 1.000000000E+00 7.479003495E-01
 2.500000000E-01 1.000000000E+00 7.428093455E-01
 2.000000000E-01 1.000000000E+00 7.376932668E-01
 1.500000000E-01 1.000000000E+00 7.324570973E-01
 1.000000000E-01 1.000000000E+00 7.276447009E-01
 5.000000000E-02 1.000000000E+00 7.234955252E-01
 1.733724275E-12 1.000000000E+00 7.200653342E-01
 -5.000000000E-02 1.000000000E+00 7.172868038E-01
 -1.000000000E-01 1.000000000E+00 7.152228027E-01
 -1.500000000E-01 1.000000000E+00 7.138734212E-01
 -2.000000000E-01 1.000000000E+00 7.131979323E-01
 -2.500000000E-01 1.000000000E+00 7.133095022E-01
 -3.000000000E-01 1.000000000E+00 7.140671470E-01
 -3.500000000E-01 1.000000000E+00 7.155419192E-01
 -4.000000000E-01 1.000000000E+00 7.178823991E-01
 -4.500000000E-01 1.000000000E+00 7.214135012E-01
 1.977044720E+00 -9.592868972E-01 7.199265509E-01
 1.975329074E+00 9.568923700E-01 7.184975593E-01
 9.045762587E-01 -5.854799756E-03 6.053003624E-01
 8.280063685E-01 -1.348214915E-02 6.389900741E-01
 9.880758785E-01 -5.071588012E-03 6.094154241E-01
 7.543226836E-01 -2.371558903E-02 6.823363860E-01
 6.825217169E-01 -3.402136456E-02 7.262980860E-01
 6.151144330E-01 -4.430140471E-02 7.741188049E-01
 5.491320526E-01 -5.395387091E-02 8.351126801E-01
 4.898827280E-01 -6.118446546E-02 9.077964179E-01
 4.343347122E-01 -6.683698488E-02 9.683124169E-01
 3.774725435E-01 -6.903672947E-02 1.088627352E+00
 3.215153928E-01 -6.909963579E-02 1.050488484E+00
 2.608124324E-01 -6.665999338E-02 9.927468140E-01
 2.067747280E-01 -6.253750957E-02 9.509184992E-01
 1.494365367E-01 -5.589042247E-02 9.095237499E-01
 9.927152873E-02 -4.774621237E-02 8.731701525E-01
 6.090401492E-02 -4.126165504E-02 8.270804933E-01
 2.537978027E-02 -2.798534655E-02 7.304601897E-01
 9.250262003E-01 1.989034499E-02 7.234432035E-01
 8.644535356E-01 3.107527969E-02 7.846592238E-01