TITLE     = "Visualization of the solution"
VARIABLES = "x"
"y"
"Mach"
ZONE T="Zone"
 STRANDID=0, SOLUTIONTIME=0
 Nodes=11679, Elements=22773, ZONETYPE=FEQuadrilateral
 DATAPACKING=POINT
 DT=(DOUBLE DOUBLE DOUBLE )
 9.998849630E-01 5.087886821E-04 5.367164401E-01
 9.849220514E-01 3.516272875E-03 6.500732781E-01
 9.706923366E-01 6.280443631E-03 6.734117134E-01
 9.542633891E-01 9.547793306E-03 6.971728044E-01
 9.397205710E-01 1.242882665E-02 7.128830456E-01
 9.269540906E-01 1.501932647E-02 7.361369815E-01
 9.152134657E-01 1.729032584E-02 7.445197737E-01
 9.033995271E-01 1.955863275E-02 7.531176878E-01
 8.916654587E-01 2.184215374E-02 7.693088087E-01
 8.798304796E-01 2.410784177E-02 7.840893936E-01
 8.680307865E-01 2.630074695E-02 7.951076371E-01
 8.560479879E-01 2.848211117E-02 8.075176123E-01
 8.440240622E-01 3.056044877E-02 8.066402538E-01
 8.332101703E-01 3.250688687E-02 8.279899034E-01
 8.217206597E-01 3.444807604E-02 8.327133840E-01
 8.095625043E-01 3.646174073E-02 8.395206203E-01
 7.972519398E-01 3.846922517E-02 8.495548021E-01
 7.852487564E-01 4.039033875E-02 8.607011899E-01
 7.726526260E-01 4.231029749E-02 8.619940492E-01
 7.612656355E-01 4.406368732E-02 8.760107014E-01
 7.482488155E-01 4.597269744E-02 8.792236483E-01
 7.353220582E-01 4.786209762E-02 8.932029103E-01
 7.244638205E-01 4.939817637E-02 9.009461772E-01
 7.131755948E-01 5.094718561E-02 9.085388835E-01
 7.016832829E-01 5.250928923E-02 9.228379800E-01
 6.889421940E-01 5.413816124E-02 9.276504201E-01
 6.764000654E-01 5.571448058E-02 9.411311092E-01
 6.651749611E-01 5.704373866E-02 9.457701436E-01
 6.533974409E-01 5.841053650E-02 9.580153082E-01
 6.420347095E-01 5.964290351E-02 9.576527610E-01
 6.302646995E-01 6.087551638E-02 9.626339960E-01
 6.188023090E-01 6.203952432E-02 9.519078316E-01
 6.081928611E-01 6.302969903E-02 9.347616773E-01
 5.966604352E-01 6.406789273E-02 1.071501147E+00
 5.849781036E-01 6.502918154E-02 1.132987848E+00
 5.715939403E-01 6.605562568E-02 1.116560868E+00
 5.591657758E-01 6.693565845E-02 1.112280324E+00
 5.465691686E-01 6.772653759E-02 1.107077336E+00
 5.352384448E-01 6.836804748E-02 1.101875973E+00
 5.231455564E-01 6.897912920E-02 1.096398092E+00
 5.109013319E-01 6.951052696E-02 1.090862872E+00
 5.001192689E-01 6.992080808E-02 1.085275962E+00
 4.872939885E-01 7.032499462E-02 1.077819996E+00
 4.745780826E-01 7.063914835E-02 1.071906863E+00
 4.616146684E-01 7.089287043E-02 1.069060942E+00
 4.485847950E-01 7.107241452E-02 1.058089590E+00
 4.358004630E-01 7.113046199E-02 1.047619620E+00
 4.229207635E-01 7.114832103E-02 1.047813422E+00
 4.104775786E-01 7.107556611E-02 1.035219685E+00
 3.975020945E-01 7.090884447E-02 1.029058086E+00
 3.853146732E-01 7.071101665E-02 1.025475532E+00
 3.730923235E-01 7.040756196E-02 1.013987253E+00
 3.600845635E-01 7.004480064E-02 1.016299999E+00
 3.475509584E-01 6.961113960E-02 1.006387641E+00
 3.348174989E-01 6.907545775E-02 9.981250020E-01
 3.240059018E-01 6.859268993E-02 9.979482597E-01
 3.117510974E-01 6.795287132E-02 9.886375965E-01
 2.989747226E-01 6.721918285E-02 9.838601717E-01
 2.854161859E-01 6.635764986E-02 9.806512178E-01
 2.731022835E-01 6.548497081E-02 9.737814115E-01
 2.612390220E-01 6.456731260E-02 9.648405438E-01
 2.484172136E-01 6.349056959E-02 9.567159695E-01
 2.359230220E-01 6.237613782E-02 9.545678511E-01
 2.236040086E-01 6.118327007E-02 9.484401428E-01
 2.115720361E-01 5.992623791E-02 9.400637898E-01
 1.995182931E-01 5.857916921E-02 9.326390728E-01
 1.872856915E-01 5.712938681E-02 9.276879918E-01
 1.753355265E-01 5.560284108E-02 9.185726316E-01
 1.634045988E-01 5.399165303E-02 9.131415906E-01
 1.515190601E-01 5.226609856E-02 9.037396983E-01
 1.403890699E-01 5.055117607E-02 8.954083833E-01
 1.288585365E-01 4.867762700E-02 8.903496488E-01
 1.175696477E-01 4.670060053E-02 8.798195201E-01
 1.065674126E-01 4.465090856E-02 8.711726576E-01
 9.631518275E-02 4.261367768E-02 8.610289882E-01
 8.535013348E-02 4.028094187E-02 8.495547122E-01
 7.426477969E-02 3.774002939E-02 8.376216172E-01
 6.432306021E-02 3.528407216E-02 8.250544848E-01
 5.483516306E-02 3.273596615E-02 8.110611296E-01
 4.594934359E-02 3.013324179E-02 7.966792714E-01
 3.830089420E-02 2.770195156E-02 7.806545686E-01
 3.154057264E-02 2.533979341E-02 7.630889671E-01
 2.572298795E-02 2.312670089E-02 7.469203569E-01
 2.143385820E-02 2.133359388E-02 7.299296451E-01
 1.742031612E-02 1.951520331E-02 7.127476411E-01
 1.420736127E-02 1.792388409E-02 6.939608781E-01
 1.134438906E-02 1.636517793E-02 6.723697673E-01
 9.254364297E-03 1.512068789E-02 6.520088597E-01
 7.357509807E-03 1.389848348E-02 6.319423143E-01
 5.551637616E-03 1.260809228E-02 5.972129681E-01
 3.221667605E-03 1.069156546E-02 5.467709083E-01
 1.387537923E-03 8.855509572E-03 4.933058712E-01
 -4.796744906E-05 7.030133158E-03 4.067549182E-01
 -1.398499007E-03 4.536764696E-03 2.833204980E-01
 -1.973028993E-03 2.567070303E-03 1.754213901E-01
 -2.147491090E-03 9.392608772E-04 7.000724155E-02
 -2.017236315E-03 -9.291823371E-04 4.619504594E-02
 -1.492202398E-03 -3.004484344E-03 1.628439492E-01
 -3.966048534E-04 -5.430263467E-03 2.671516592E-01
 1.257288735E-03 -7.953303866E-03 3.639718903E-01
 3.422072157E-03 -1.049216744E-02 4.458581330E-01
 5.398609210E-03 -1.241895836E-02 5.019554286E-01
 7.726702373E-03 -1.439846214E-02 5.443454417E-01
 9.585795924E-03 -1.582316495E-02 5.826610448E-01
 1.180472691E-02 -1.738178171E-02 6.140947092E-01
 1.430745982E-02 -1.899358630E-02 6.427387861E-01
 1.763609052E-02 -2.095077001E-02 6.718147710E-01
 2.088222280E-02 -2.270064503E-02 6.999379008E-01
 2.493275702E-02 -2.469499782E-02 7.243355501E-01
 3.017745726E-02 -2.704491653E-02 7.502561269E-01
 3.576210886E-02 -2.931525372E-02 7.747774505E-01
 4.241199419E-02 -3.176311776E-02 7.953965087E-01
 4.989146814E-02 -3.426678106E-02 8.136834170E-01
 5.879066139E-02 -3.696795180E-02 8.312402571E-01
 6.760195643E-02 -3.940796852E-02 8.471246867E-01
 7.787808031E-02 -4.199665785E-02 8.603937304E-01
 8.783970028E-02 -4.430408776E-02 8.718522990E-01
 9.853371978E-02 -4.659314081E-02 8.825555008E-01
 1.099028662E-01 -4.883427173E-02 8.912208608E-01
 1.214306131E-01 -5.094889551E-02 9.022093903E-01
 1.333369762E-01 -5.296356231E-02 9.093315713E-01
 1.441908032E-01 -5.468573794E-02 9.198692756E-01
 1.558055878E-01 -5.639896542E-02 9.274425857E-01
 1.681905538E-01 -5.810592696E-02 9.373019989E-01
 1.800366491E-01 -5.961176381E-02 9.455456597E-01
 1.920761466E-01 -6.103703752E-02 9.541983732E-01
 2.030278742E-01 -6.223794818E-02 9.628956575E-01
 2.149123996E-01 -6.345094740E-02 9.728713104E-01
 2.272031307E-01 -6.458478421E-02 9.793691922E-01
 2.393053919E-01 -6.561792642E-02 9.928986429E-01
 2.511997819E-01 -6.651427597E-02 1.001886897E+00
 2.635225952E-01 -6.735324860E-02 1.014521974E+00
 2.746563554E-01 -6.800254434E-02 1.028670238E+00
 2.870284021E-01 -6.861604750E-02 1.036285388E+00
 2.990032434E-01 -6.910650432E-02 1.043978188E+00
 3.115800917E-01 -6.950918585E-02 1.054717432E+00
 3.233173192E-01 -6.976614892E-02 1.066831534E+00
 3.359591663E-01 -6.992867589E-02 1.080887572E+00
 3.464297056E-01 -6.994342804E-02 1.090530125E+00
 3.580068946E-01 -6.988126040E-02 1.104288975E+00
 3.691053987E-01 -6.967833638E-02 1.112004021E+00
 3.802814782E-01 -6.940867752E-02 1.120355346E+00
 3.921410143E-01 -6.897410750E-02 1.129116408E+00
 4.049732983E-01 -6.838559359E-02 1.154164232E+00
 4.168366194E-01 -6.769172102E-02 1.096128261E+00
 4.294131398E-01 -6.685129553E-02 9.422362735E-01
 4.417030215E-01 -6.589760631E-02 9.461088495E-01
 4.538377523E-01 -6.481666863E-02 9.503130967E-01
 4.657223821E-01 -6.370134652E-02 9.421743891E-01
 4.779663682E-01 -6.242060289E-02 9.254647573E-01
 4.899429977E-01 -6.108906865E-02 9.131113415E-01
 5.021058917E-01 -5.961841717E-02 8.931983843E-01
 5.154029131E-01 -5.794659629E-02 8.777175421E-01
 5.281284451E-01 -5.627266318E-02 8.643193811E-01
 5.402426720E-01 -5.459591374E-02 8.463274000E-01
 5.531126857E-01 -5.278240517E-02 8.330356156E-01
 5.663387775E-01 -5.087330565E-02 8.205775489E-01
 5.793241262E-01 -4.895932600E-02 8.089049170E-01
 5.925048590E-01 -4.697608203E-02 7.976286041E-01
 6.055696607E-01 -4.494735226E-02 7.820648079E-01
 6.189372540E-01 -4.288234934E-02 7.724193983E-01
 6.324730515E-01 -4.076706618E-02 7.620161143E-01
 6.461657286E-01 -3.859322518E-02 7.489525690E-01
 6.590098143E-01 -3.658379242E-02 7.427218257E-01
 6.720800400E-01 -3.448222205E-02 7.282062552E-01
 6.846390963E-01 -3.252553195E-02 7.235143875E-01
 6.969653368E-01 -3.057305887E-02 7.129775884E-01
 7.114643455E-01 -2.831071056E-02 7.055402975E-01
 7.242844105E-01 -2.628122829E-02 6.936996531E-01
 7.359911203E-01 -2.449299768E-02 6.906225216E-01
 7.493763566E-01 -2.238425240E-02 6.756670886E-01
 7.624937296E-01 -2.042979561E-02 6.726045035E-01
 7.761749625E-01 -1.837353408E-02 6.626231589E-01
 7.885236740E-01 -1.654175669E-02 6.543610685E-01
 8.012449145E-01 -1.469464786E-02 6.470245233E-01
 8.122476935E-01 -1.310231257E-02 6.373270569E-01
 8.233818412E-01 -1.153690647E-02 6.282668801E-01
 8.360818028E-01 -9.852590971E-03 6.219381956E-01
 8.486893773E-01 -8.247082122E-03 6.147171116E-01
 8.610083461E-01 -6.733542308E-03 6.052769199E-01
 8.718905449E-01 -5.489349365E-03 5.986232844E-01
 8.830804229E-01 -4.308370408E-03 5.931693384E-01
 8.956209421E-01 -3.086663317E-03 5.852138019E-01
 9.060708284E-01 -2.201138064E-03 5.817979542E-01
 9.169308543E-01 -1.367846155E-03 5.752399176E-01
 9.279844761E-01 -6.927233189E-04 5.738701399E-01
 9.383451939E-01 -1.738047722E-04 5.716254464E-01
 9.509018660E-01 2.941741841E-04 5.700999872E-01
 9.648237228E-01 6.045103073E-04 5.686610677E-01
 9.774671197E-01 7.192166522E-04 5.651418040E-01
 9.895874858E-01 6.697907811E-04 5.537060643E-01
 -5.000000000E-01 -1.000000000E+00 7.231867959E-01
 3.500000000E+00 -1.000000000E+00 7.272762024E-01
 3.500000000E+00 1.000000000E+00 7.101284192E-01
 -5.000000000E-01 1.000000000E+00 7.234143315E-01
 9.924035072E-01 2.012530778E-03 6.291129013E-01
 9.778071940E-01 4.898358253E-03 6.626586600E-01
 9.624778628E-01 7.914118469E-03 6.857962311E-01
 9.469919801E-01 1.098830998E-02 7.049704078E-01
 9.333373308E-01 1.372407656E-02 7.253732296E-01
 9.210837781E-01 1.615482615E-02 7.408671690E-01
 9.093064964E-01 1.842447929E-02 7.482098109E-01
 8.975324929E-01 2.070039324E-02 7.610918997E-01
 8.857479692E-01 2.297499776E-02 7.771491943E-01
 8.739306331E-01 2.520429436E-02 7.893628313E-01
 8.620393872E-01 2.739142906E-02 8.028938146E-01
 8.500360250E-01 2.952127997E-02 8.050372647E-01
 8.386171162E-01 3.153366782E-02 8.185389632E-01
 8.274654150E-01 3.347748145E-02 8.305257817E-01
 8.156415820E-01 3.545490839E-02 8.359753713E-01
 8.034072220E-01 3.746548295E-02 8.438430071E-01
 7.912503481E-01 3.942978196E-02 8.567478892E-01
 7.789506912E-01 4.135031812E-02 8.597364370E-01
 7.669591308E-01 4.318699241E-02 8.703488129E-01
 7.547572255E-01 4.501819238E-02 8.766657851E-01
 7.417854369E-01 4.691739753E-02 8.860932511E-01
 7.298929393E-01 4.863013700E-02 8.980492863E-01
 7.188197076E-01 5.017268099E-02 9.031885531E-01
 7.074294388E-01 5.172823742E-02 9.175081739E-01
 6.953127384E-01 5.332372524E-02 9.237586600E-01
 6.826711297E-01 5.492632091E-02 9.355992148E-01
 6.707875133E-01 5.637910962E-02 9.424491635E-01
 6.592862010E-01 5.772713758E-02 9.533047591E-01
 6.477160752E-01 5.902672000E-02 9.579796707E-01
 6.361497045E-01 6.025920995E-02 9.594861998E-01
 6.245335042E-01 6.145752035E-02 9.624270665E-01
 6.134975851E-01 6.253461167E-02 9.352034219E-01
 6.024266481E-01 6.354879588E-02 9.827260723E-01
 5.908192694E-01 6.454853714E-02 1.126087526E+00
 5.782860219E-01 6.554240361E-02 1.123605273E+00
 5.653798580E-01 6.649564207E-02 1.114408202E+00
 5.528674722E-01 6.733109802E-02 1.109295564E+00
 5.409038067E-01 6.804729253E-02 1.104583435E+00
 5.291920006E-01 6.867358834E-02 1.099509285E+00
 5.170234442E-01 6.924482808E-02 1.092870873E+00
 5.055103004E-01 6.971566752E-02 1.088950658E+00
 4.937066287E-01 7.012290135E-02 1.081562744E+00
 4.809360355E-01 7.048207149E-02 1.074085158E+00
 4.680963755E-01 7.076600939E-02 1.070757257E+00
 4.550997317E-01 7.098264247E-02 1.065459771E+00
 4.421926290E-01 7.110143825E-02 1.049900121E+00
 4.293606132E-01 7.113939151E-02 1.049326972E+00
 4.166991711E-01 7.111194357E-02 1.042163313E+00
 4.039898366E-01 7.099220529E-02 1.029765008E+00
 3.914083838E-01 7.080993056E-02 1.030086427E+00
 3.792034984E-01 7.055928931E-02 1.017199854E+00
 3.665884435E-01 7.022618130E-02 1.015989669E+00
 3.538177609E-01 6.982797012E-02 1.012917622E+00
 3.411842287E-01 6.934329867E-02 9.996303189E-01
 3.294117004E-01 6.883407384E-02 9.998437872E-01
 3.178784996E-01 6.827278063E-02 9.929719689E-01
 3.053629100E-01 6.758602709E-02 9.859238660E-01
 2.921954542E-01 6.678841636E-02 9.824523063E-01
 2.792592347E-01 6.592131034E-02 9.774109704E-01
 2.671706527E-01 6.502614170E-02 9.698735775E-01
 2.548281178E-01 6.402894109E-02 9.596988545E-01
 2.421701178E-01 6.293335371E-02 9.559162883E-01
 2.297635153E-01 6.177970394E-02 9.519018798E-01
 2.175880224E-01 6.055475399E-02 9.443671595E-01
 2.055451646E-01 5.925270356E-02 9.357859709E-01
 1.934019923E-01 5.785427801E-02 9.308751938E-01
 1.813106090E-01 5.636611395E-02 9.225675457E-01
 1.693700626E-01 5.479724705E-02 9.162804418E-01
 1.574618295E-01 5.312887579E-02 9.084509853E-01
 1.459540650E-01 5.140863732E-02 8.990621076E-01
 1.346238032E-01 4.961440153E-02 8.934780099E-01
 1.232140921E-01 4.768911377E-02 8.850351008E-01
 1.120685302E-01 4.567575455E-02 8.753761348E-01
 1.014412977E-01 4.363229312E-02 8.666086949E-01
 9.083265811E-02 4.144730978E-02 8.556235781E-01
 7.980745658E-02 3.901048563E-02 8.426904324E-01
 6.929391995E-02 3.651205078E-02 8.338674318E-01
 7.274001837E-02 -4.070231318E-02 8.559126180E-01
 8.285889030E-02 -4.315037280E-02 8.661688869E-01
 9.318671003E-02 -4.544861428E-02 8.772460224E-01
 1.042182930E-01 -4.771370627E-02 8.870130824E-01
 1.156667396E-01 -4.989158362E-02 8.965664141E-01
 1.273837946E-01 -5.195622891E-02 9.061405862E-01
 1.387638897E-01 -5.382465012E-02 9.144224197E-01
 1.499981955E-01 -5.554235168E-02 9.240690574E-01
 1.619980708E-01 -5.725244619E-02 9.316961423E-01
 1.741136014E-01 -5.885884538E-02 9.421478889E-01
 1.860563979E-01 -6.032440066E-02 9.494193971E-01
 1.975520104E-01 -6.163749285E-02 9.591772283E-01
 2.089701369E-01 -6.284444779E-02 9.674033623E-01
 2.210577652E-01 -6.401786581E-02 9.766255131E-01
 2.332542613E-01 -6.510135531E-02 9.849333528E-01
 2.452525869E-01 -6.606610119E-02 9.988070802E-01
 2.573611885E-01 -6.693376228E-02 1.006562100E+00
 2.690894753E-01 -6.767789647E-02 1.022857157E+00
 2.808423787E-01 -6.830929592E-02 1.032607413E+00
 2.930158228E-01 -6.886127591E-02 1.040172805E+00
 3.052916676E-01 -6.930784509E-02 1.048373081E+00
 3.174487054E-01 -6.963766739E-02 1.061456191E+00
 3.296382427E-01 -6.984741241E-02 1.072525128E+00
 3.411944360E-01 -6.993605196E-02 1.088212169E+00
 3.522183001E-01 -6.991234422E-02 1.094698423E+00
 3.635561466E-01 -6.977979839E-02 1.111492361E+00
 3.746934384E-01 -6.954350695E-02 1.113672661E+00
 3.862112463E-01 -6.919139251E-02 1.125672107E+00
 3.985571563E-01 -6.867985055E-02 1.138302427E+00
 4.109049588E-01 -6.803865731E-02 1.152069606E+00
 4.231248796E-01 -6.727150828E-02 9.984534516E-01
 4.355580807E-01 -6.637445092E-02 9.342182131E-01
 4.477703869E-01 -6.535713747E-02 9.535596699E-01
 4.597800672E-01 -6.425900757E-02 9.455293375E-01
 4.718443751E-01 -6.306097470E-02 9.349831090E-01
 4.839546829E-01 -6.175483577E-02 9.186461641E-01
 4.960244447E-01 -6.035374291E-02 9.042758095E-01
 5.087544024E-01 -5.878250673E-02 8.843620927E-01
 5.217656791E-01 -5.710962974E-02 8.712512758E-01
 5.341855586E-01 -5.543428846E-02 8.557129490E-01
 5.466776788E-01 -5.368915945E-02 8.389540688E-01
 5.597257316E-01 -5.182785541E-02 8.268810568E-01
 5.728314519E-01 -4.991631582E-02 8.146558081E-01
 5.859144926E-01 -4.796770401E-02 8.034482339E-01
 5.990372598E-01 -4.596171714E-02 7.901246393E-01
 6.122534573E-01 -4.391485080E-02 7.767531972E-01
 6.257051528E-01 -4.182470776E-02 7.674332857E-01
 6.393193901E-01 -3.968014568E-02 7.555023253E-01
 6.525877714E-01 -3.758850880E-02 7.454387881E-01
 6.655449271E-01 -3.553300723E-02 7.359175156E-01
 6.783595681E-01 -3.350387700E-02 7.251305706E-01
 6.908022165E-01 -3.154929541E-02 7.187350798E-01
 7.042148411E-01 -2.944188472E-02 7.092457683E-01
 7.178743780E-01 -2.729596943E-02 6.996105016E-01
 7.301377654E-01 -2.538711298E-02 6.918277037E-01
 7.426837385E-01 -2.343862504E-02 6.836020988E-01
 7.559350431E-01 -2.140702400E-02 6.734034369E-01
 7.693343461E-01 -1.940166485E-02 6.680812480E-01
 7.823493183E-01 -1.745764539E-02 6.582532260E-01
 7.948842943E-01 -1.561820228E-02 6.508021839E-01
 8.067463040E-01 -1.389848022E-02 6.422633628E-01
 8.178147674E-01 -1.231960952E-02 6.326303607E-01
 8.297318220E-01 -1.069474872E-02 6.250667915E-01
 8.423855901E-01 -9.049836546E-03 6.184658591E-01
 8.548488617E-01 -7.490312215E-03 6.100946557E-01
 8.664494455E-01 -6.111445837E-03 6.015968854E-01
 8.774854839E-01 -4.898859886E-03 5.959333162E-01
 8.893506825E-01 -3.697516862E-03 5.895265412E-01
 9.008458853E-01 -2.643900691E-03 5.830611371E-01
 9.115008414E-01 -1.784492109E-03 5.783897895E-01
 9.224576652E-01 -1.030284737E-03 5.743778309E-01
 9.331648350E-01 -4.332640456E-04 5.724285484E-01
 9.446235299E-01 6.018470594E-05 5.709947378E-01
 9.578627944E-01 4.493422457E-04 5.698692337E-01
 9.711454213E-01 6.618634798E-04 5.668502846E-01
 9.835273027E-01 6.945037167E-04 5.601784546E-01
 9.947362244E-01 5.892897316E-04 5.503376749E-01
 -5.000000000E-01 9.500000000E-01 7.207288735E-01
 -5.000000000E-01 9.000000000E-01 7.165502684E-01
 -5.000000000E-01 8.500000000E-01 7.133802091E-01
 -5.000000000E-01 8.000000000E-01 7.105875564E-01
 -5.000000000E-01 7.500000000E-01 7.078818664E-01
 -5.000000000E-01 7.000000000E-01 7.052772500E-01
 -5.000000000E-01 6.500000000E-01 7.026096289E-01
 -5.000000000E-01 6.000000000E-01 6.999105551E-01
 -5.000000000E-01 5.500000000E-01 6.971680517E-01
 -5.000000000E-01 5.000000000E-01 6.943570276E-01
 -5.000000000E-01 4.500000000E-01 6.914802836E-01
 -5.000000000E-01 4.000000000E-01 6.885930171E-01
 -5.000000000E-01 3.500000000E-01 6.858340134E-01
 -5.000000000E-01 3.000000000E-01 6.831545087E-01
 -5.000000000E-01 2.500000000E-01 6.806268257E-01
 -5.000000000E-01 2.000000000E-01 6.783903524E-01
 -5.000000000E-01 1.500000000E-01 6.765494558E-01
 -5.000000000E-01 1.000000000E-01 6.751340963E-01
 -5.000000000E-01 5.000000000E-02 6.742333956E-01
 -5.000000000E-01 2.752242878E-12 6.738671956E-01
 -5.000000000E-01 -5.000000000E-02 6.741026832E-01
 -5.000000000E-01 -1.000000000E-01 6.748713828E-01
 -5.000000000E-01 -1.500000000E-01 6.761710158E-01
 -5.000000000E-01 -2.000000000E-01 6.779260373E-01
 -5.000000000E-01 -2.500000000E-01 6.800606173E-01
 -5.000000000E-01 -3.000000000E-01 6.824671896E-01
 -5.000000000E-01 -3.500000000E-01 6.850972321E-01
 -5.000000000E-01 -4.000000000E-01 6.878376732E-01
 -5.000000000E-01 -4.500000000E-01 6.906351686E-01
 -5.000000000E-01 -5.000000000E-01 6.934781859E-01
 -5.000000000E-01 -5.500000000E-01 6.963054879E-01
 -5.000000000E-01 -6.000000000E-01 6.990349937E-01
 -5.000000000E-01 -6.500000000E-01 7.017440009E-01
 -5.000000000E-01 -7.000000000E-01 7.044242082E-01
 -5.000000000E-01 -7.500000000E-01 7.071147407E-01
 -5.000000000E-01 -8.000000000E-01 7.098162306E-01
 -5.000000000E-01 -8.500000000E-01 7.127082760E-01
 -5.000000000E-01 -9.000000000E-01 7.160103712E-01
 -5.000000000E-01 -9.500000000E-01 7.203812878E-01
 -4.500000000E-01 -1.000000000E+00 7.201743476E-01
 -4.000000000E-01 -1.000000000E+00 7.160463855E-01
 -3.500000000E-01 -1.000000000E+00 7.133461437E-01
 -3.000000000E-01 -1.000000000E+00 7.115673527E-01
 -2.500000000E-01 -1.000000000E+00 7.105866772E-01
 -2.000000000E-01 -1.000000000E+00 7.103120888E-01
 -1.500000000E-01 -1.000000000E+00 7.107263480E-01
 -1.000000000E-01 -1.000000000E+00 7.119106458E-01
 -5.000000000E-02 -1.000000000E+00 7.138300176E-01
 -9.424683256E-13 -1.000000000E+00 7.164035267E-01
 5.000000000E-02 -1.000000000E+00 7.196198117E-01
 1.000000000E-01 -1.000000000E+00 7.233854742E-01
 1.500000000E-01 -1.000000000E+00 7.276071201E-01
 2.000000000E-01 -1.000000000E+00 7.321088249E-01
 2.500000000E-01 -1.000000000E+00 7.366389782E-01
 3.000000000E-01 -1.000000000E+00 7.407726003E-01
 3.500000000E-01 -1.000000000E+00 7.443307642E-01
 4.000000000E-01 -1.000000000E+00 7.471787772E-01
 4.500000000E-01 -1.000000000E+00 7.490916033E-01
 5.000000000E-01 -1.000000000E+00 7.500819705E-01
 5.500000000E-01 -1.000000000E+00 7.500534947E-01
 6.000000000E-01 -1.000000000E+00 7.492217435E-01
 6.500000000E-01 -1.000000000E+00 7.476818022E-01
 7.000000000E-01 -1.000000000E+00 7.454595175E-01
 7.500000000E-01 -1.000000000E+00 7.428310803E-01
 8.000000000E-01 -1.000000000E+00 7.398244673E-01
 8.500000000E-01 -1.000000000E+00 7.368357641E-01
 9.000000000E-01 -1.000000000E+00 7.336018346E-01
 9.500000000E-01 -1.000000000E+00 7.304380170E-01
 1.000000000E+00 -1.000000000E+00 7.274615272E-01
 1.050000000E+00 -1.000000000E+00 7.246681803E-01
 1.100000000E+00 -1.000000000E+00 7.221471400E-01
 1.150000000E+00 -1.000000000E+00 7.199242851E-01
 1.200000000E+00 -1.000000000E+00 7.180348867E-01
 1.250000000E+00 -1.000000000E+00 7.165212325E-01
 1.300000000E+00 -1.000000000E+00 7.152732481E-01
 1.350000000E+00 -1.000000000E+00 7.143493099E-01
 1.400000000E+00 -1.000000000E+00 7.136425711E-01
 1.450000000E+00 -1.000000000E+00 7.131505190E-01
 1.500000000E+00 -1.000000000E+00 7.129194581E-01
 1.550000000E+00 -1.000000000E+00 7.128095643E-01
 1.600000000E+00 -1.000000000E+00 7.127073838E-01
 1.650000000E+00 -1.000000000E+00 7.128172266E-01
 1.700000000E+00 -1.000000000E+00 7.131521619E-01
 1.750000000E+00 -1.000000000E+00 7.134716776E-01
 1.800000000E+00 -1.000000000E+00 7.137923715E-01
 1.850000000E+00 -1.000000000E+00 7.140398749E-01
 1.900000000E+00 -1.000000000E+00 7.144109768E-01
 1.950000000E+00 -1.000000000E+00 7.148453571E-01
 2.000000000E+00 -1.000000000E+00 7.153216204E-01
 2.050000000E+00 -1.000000000E+00 7.156897137E-01
 2.100000000E+00 -1.000000000E+00 7.161572246E-01
 2.150000000E+00 -1.000000000E+00 7.165054839E-01
 2.200000000E+00 -1.000000000E+00 7.169555706E-01
 2.250000000E+00 -1.000000000E+00 7.174008905E-01
 2.300000000E+00 -1.000000000E+00 7.178068656E-01
 2.350000000E+00 -1.000000000E+00 7.181063540E-01
 2.400000000E+00 -1.000000000E+00 7.184809636E-01
 2.450000000E+00 -1.000000000E+00 7.187634910E-01
 2.500000000E+00 -1.000000000E+00 7.190397786E-01
 2.550000000E+00 -1.000000000E+00 7.193247270E-01
 2.600000000E+00 -1.000000000E+00 7.196480205E-01
 2.650000000E+00 -1.000000000E+00 7.198592543E-01
 2.700000000E+00 -1.000000000E+00 7.200723435E-01
 2.750000000E+00 -1.000000000E+00 7.202653116E-01
 2.800000000E+00 -1.000000000E+00 7.204752316E-01
 2.850000000E+00 -1.000000000E+00 7.206644711E-01
 2.900000000E+00 -1.000000000E+00 7.208558846E-01
 2.950000000E+00 -1.000000000E+00 7.209806943E-01
 3.000000000E+00 -1.000000000E+00 7.211163874E-01
 3.050000000E+00 -1.000000000E+00 7.212336106E-01
 3.100000000E+00 -1.000000000E+00 7.214005492E-01
 3.150000000E+00 -1.000000000E+00 7.215780634E-01
 3.200000000E+00 -1.000000000E+00 7.217032283E-01
 3.250000000E+00 -1.000000000E+00 7.218046198E-01
 3.300000000E+00 -1.000000000E+00 7.219697679E-01
 3.350000000E+00 -1.000000000E+00 7.222983613E-01
 3.400000000E+00 -1.000000000E+00 7.228248798E-01
 3.450000000E+00 -1.000000000E+00 7.242767876E-01
 3.500000000E+00 -9.500000000E-01 7.292383466E-01
 3.500000000E+00 -9.000000000E-01 7.303995966E-01
 3.500000000E+00 -8.500000000E-01 7.311735916E-01
 3.500000000E+00 -8.000000000E-01 7.316443506E-01
 3.500000000E+00 -7.500000000E-01 7.319490537E-01
 3.500000000E+00 -7.000000000E-01 7.322121034E-01
 3.500000000E+00 -6.500000000E-01 7.325204317E-01
 3.500000000E+00 -6.000000000E-01 7.328781706E-01
 3.500000000E+00 -5.500000000E-01 7.332728501E-01
 3.500000000E+00 -5.000000000E-01 7.336777250E-01
 3.500000000E+00 -4.500000000E-01 7.340743679E-01
 3.500000000E+00 -4.000000000E-01 7.344615183E-01
 3.500000000E+00 -3.500000000E-01 7.348691954E-01
 3.500000000E+00 -3.000000000E-01 7.352831117E-01
 3.500000000E+00 -2.500000000E-01 7.356484410E-01
 3.500000000E+00 -2.000000000E-01 7.359096635E-01
 3.500000000E+00 -1.500000000E-01 7.360469391E-01
 3.500000000E+00 -1.000000000E-01 7.360896700E-01
 3.500000000E+00 -5.000000000E-02 7.361061864E-01
 3.500000000E+00 -2.752242878E-12 7.361026806E-01
 3.500000000E+00 5.000000000E-02 7.360559855E-01
 3.500000000E+00 1.000000000E-01 7.359309586E-01
 3.500000000E+00 1.500000000E-01 7.356772364E-01
 3.500000000E+00 2.000000000E-01 7.353061525E-01
 3.500000000E+00 2.500000000E-01 7.348713156E-01
 3.500000000E+00 3.000000000E-01 7.344595043E-01
 3.500000000E+00 3.500000000E-01 7.340735499E-01
 3.500000000E+00 4.000000000E-01 7.336752677E-01
 3.500000000E+00 4.500000000E-01 7.332614000E-01
 3.500000000E+00 5.000000000E-01 7.327794460E-01
 3.500000000E+00 5.500000000E-01 7.323094931E-01
 3.500000000E+00 6.000000000E-01 7.320752355E-01
 3.500000000E+00 6.500000000E-01 7.322282065E-01
 3.500000000E+00 7.000000000E-01 7.325616948E-01
 3.500000000E+00 7.500000000E-01 7.324452685E-01
 3.500000000E+00 8.000000000E-01 7.313060322E-01
 3.500000000E+00 8.500000000E-01 7.284248452E-01
 3.500000000E+00 9.000000000E-01 7.237949533E-01
 3.500000000E+00 9.500000000E-01 7.178999821E-01
 3.450000000E+00 1.000000000E+00 6.985668014E-01
 3.400000000E+00 1.000000000E+00 6.935828335E-01
 3.350000000E+00 1.000000000E+00 6.924173930E-01
 3.300000000E+00 1.000000000E+00 6.920217249E-01
 3.250000000E+00 1.000000000E+00 6.915861897E-01
 3.200000000E+00 1.000000000E+00 6.916359529E-01
 3.150000000E+00 1.000000000E+00 6.916922447E-01
 3.100000000E+00 1.000000000E+00 6.919336263E-01
 3.050000000E+00 1.000000000E+00 6.924690429E-01
 3.000000000E+00 1.000000000E+00 6.928445645E-01
 2.950000000E+00 1.000000000E+00 6.933904711E-01
 2.900000000E+00 1.000000000E+00 6.938955865E-01
 2.850000000E+00 1.000000000E+00 6.941214574E-01
 2.800000000E+00 1.000000000E+00 6.943400772E-01
 2.750000000E+00 1.000000000E+00 6.945801947E-01
 2.700000000E+00 1.000000000E+00 6.947708581E-01
 2.650000000E+00 1.000000000E+00 6.953920422E-01
 2.600000000E+00 1.000000000E+00 6.962414031E-01
 2.550000000E+00 1.000000000E+00 6.962638090E-01
 2.500000000E+00 1.000000000E+00 6.968351056E-01
 2.450000000E+00 1.000000000E+00 6.976703996E-01
 2.400000000E+00 1.000000000E+00 6.979355682E-01
 2.350000000E+00 1.000000000E+00 6.981963238E-01
 2.300000000E+00 1.000000000E+00 6.986578238E-01
 2.250000000E+00 1.000000000E+00 6.995006973E-01
 2.200000000E+00 1.000000000E+00 6.997232320E-01
 2.150000000E+00 1.000000000E+00 7.004706916E-01
 2.100000000E+00 1.000000000E+00 7.011034807E-01
 2.050000000E+00 1.000000000E+00 7.014571401E-01
 2.000000000E+00 1.000000000E+00 7.022389208E-01
 1.950000000E+00 1.000000000E+00 7.027933553E-01
 1.900000000E+00 1.000000000E+00 7.037462353E-01
 1.850000000E+00 1.000000000E+00 7.048301641E-01
 1.800000000E+00 1.000000000E+00 7.061647452E-01
 1.750000000E+00 1.000000000E+00 7.067934165E-01
 1.700000000E+00 1.000000000E+00 7.078267328E-01
 1.650000000E+00 1.000000000E+00 7.090729471E-01
 1.600000000E+00 1.000000000E+00 7.104898712E-01
 1.550000000E+00 1.000000000E+00 7.118121169E-01
 1.500000000E+00 1.000000000E+00 7.135270020E-01
 1.450000000E+00 1.000000000E+00 7.154621643E-01
 1.400000000E+00 1.000000000E+00 7.178386067E-01
 1.350000000E+00 1.000000000E+00 7.203703665E-01
 1.300000000E+00 1.000000000E+00 7.230133604E-01
 1.250000000E+00 1.000000000E+00 7.263412838E-01
 1.200000000E+00 1.000000000E+00 7.294889655E-01
 1.150000000E+00 1.000000000E+00 7.328362899E-01
 1.100000000E+00 1.000000000E+00 7.372256747E-01
 1.050000000E+00 1.000000000E+00 7.419580598E-01
 1.000000000E+00 1.000000000E+00 7.470980539E-01
 9.500000000E-01 1.000000000E+00 7.512274533E-01
 9.000000000E-01 1.000000000E+00 7.558414501E-01
 8.500000000E-01 1.000000000E+00 7.590973855E-01
 8.000000000E-01 1.000000000E+00 7.629470895E-01
 7.500000000E-01 1.000000000E+00 7.658839903E-01
 7.000000000E-01 1.000000000E+00 7.685800872E-01
 6.500000000E-01 1.000000000E+00 7.698760906E-01
 6.000000000E-01 1.000000000E+00 7.700463064E-01
 5.500000000E-01 1.000000000E+00 7.695804143E-01
 5.000000000E-01 1.000000000E+00 7.675115093E-01
 4.500000000E-01 1.000000000E+00 7.645422292E-01
 4.000000000E-01 1.000000000E+00 7.607359603E-01
 3.500000000E-01 1.000000000E+00 7.557298110E-01
 3.000000000E-01 1.000000000E+00 7.499688953E-01
 2.500000000E-01 1.000000000E+00 7.442786277E-01
 2.000000000E-01 1.000000000E+00 7.387730854E-01
 1.500000000E-01 1.000000000E+00 7.328724129E-01
 1.000000000E-01 1.000000000E+00 7.274636586E-01
 5.000000000E-02 1.000000000E+00 7.228734823E-01
 1.733724275E-12 1.000000000E+00 7.190417577E-01
 -5.000000000E-02 1.000000000E+00 7.160508009E-01
 -1.000000000E-01 1.000000000E+00 7.137587919E-01
 -1.500000000E-01 1.000000000E+00 7.122799040E-01
 -2.000000000E-01 1.000000000E+00 7.115702108E-01
 -2.500000000E-01 1.000000000E+00 7.115933617E-01
 -3.000000000E-01 1.000000000E+00 7.124715610E-01
 -3.500000000E-01 1.000000000E+00 7.140536438E-01
 -4.000000000E-01 1.000000000E+00 7.165624480E-01
 -4.500000000E-01 1.000000000E+00 7.205141710E-01
 9.254935260E-01 -5.439560257E-03 5.777536079E-01
 8.466691870E-01 -1.472966664E-02 6.187760743E-01
 7.734799085E-01 -2.452924664E-02 6.665556819E-01
 7.014964641E-01 -3.581627714E-02 7.118624072E-01
 6.300002654E-01 -4.709599277E-02 7.646447410E-01
 5.638363457E-01 -5.692578769E-02 8.230639694E-01
 4.997320480E-01 -6.526850001E-02 8.965618455E-01
 4.442423907E-01 -7.073321308E-02 9.459877272E-01
 3.893643046E-01 -7.421807981E-02 1.121183602E+00
 3.323545961E-01 -7.483328434E-02 1.070413756E+00
 2.774969506E-01 -7.324620893E-02 1.026391744E+00
 2.180311444E-01 -6.844675739E-02 9.714568728E-01
 1.584987388E-01 -6.193916168E-02 9.254277080E-01
 1.005089297E-01 -5.173616734E-02 8.788576901E-01
 9.863466371E-01 -4.326997225E-03 5.651121489E-01