TITLE     = "Visualization of the solution"
VARIABLES = "x"
"y"
"Mach"
ZONE T="Zone"
 STRANDID=0, SOLUTIONTIME=0
 Nodes=12236, Elements=23892, ZONETYPE=FEQuadrilateral
 DATAPACKING=POINT
 DT=(DOUBLE DOUBLE DOUBLE )
 1.000066161E+00 5.210508825E-04 5.406202065E-01
 9.883218408E-01 2.725999104E-03 6.457813733E-01
 9.762817621E-01 4.974632058E-03 6.744062522E-01
 9.613282681E-01 7.782795001E-03 6.989574035E-01
 9.472078681E-01 1.042947825E-02 7.200345343E-01
 9.333956242E-01 1.298085786E-02 7.373513522E-01
 9.219110012E-01 1.507708617E-02 7.503543591E-01
 9.098652601E-01 1.729134843E-02 7.730626525E-01
 8.978905678E-01 1.935108379E-02 7.792454176E-01
 8.858163357E-01 2.143509127E-02 7.968696454E-01
 8.733147979E-01 2.349023893E-02 8.088740265E-01
 8.607562184E-01 2.542174421E-02 8.093024790E-01
 8.482006788E-01 2.735524066E-02 8.202615788E-01
 8.366414309E-01 2.906990238E-02 8.253561192E-01
 8.248431087E-01 3.079735674E-02 8.335778607E-01
 8.118914962E-01 3.264055401E-02 8.416386496E-01
 7.988681793E-01 3.444397822E-02 8.500775916E-01
 7.863062024E-01 3.609076142E-02 8.476619873E-01
 7.740315199E-01 3.774594516E-02 8.626629676E-01
 7.619629502E-01 3.930446133E-02 8.696757082E-01
 7.486774325E-01 4.094652459E-02 8.715829182E-01
 7.348216772E-01 4.264517874E-02 8.801358823E-01
 7.240169644E-01 4.394684359E-02 8.888910841E-01
 7.129119039E-01 4.524988309E-02 8.971984333E-01
 7.012267113E-01 4.658909515E-02 9.081189649E-01
 6.873918176E-01 4.808672145E-02 9.133094082E-01
 6.740814447E-01 4.947415739E-02 9.204242474E-01
 6.638680696E-01 5.050197989E-02 9.261779876E-01
 6.522087455E-01 5.164544657E-02 9.357391524E-01
 6.406116486E-01 5.273308977E-02 9.448460401E-01
 6.287850738E-01 5.379186198E-02 9.533260593E-01
 6.173532605E-01 5.475218967E-02 9.602597571E-01
 6.064867973E-01 5.563256890E-02 9.711539727E-01
 5.937668681E-01 5.658092350E-02 9.776917162E-01
 5.819857717E-01 5.739892274E-02 9.830877072E-01
 5.685343742E-01 5.825546756E-02 9.909441731E-01
 5.560599566E-01 5.898489803E-02 1.001540229E+00
 5.438812375E-01 5.962148681E-02 1.007640578E+00
 5.329221487E-01 6.013106182E-02 1.009986390E+00
 5.213189721E-01 6.060821936E-02 1.014839154E+00
 5.086545348E-01 6.106768921E-02 1.018728045E+00
 4.975284934E-01 6.139044464E-02 1.015667507E+00
 4.844643772E-01 6.171451882E-02 1.020724088E+00
 4.713733494E-01 6.195820495E-02 1.015940891E+00
 4.573280811E-01 6.211471185E-02 1.006809278E+00
 4.439848363E-01 6.218936667E-02 1.002347676E+00
 4.312848747E-01 6.218949705E-02 1.000222292E+00
 4.187908471E-01 6.212538481E-02 9.990555089E-01
 4.066879451E-01 6.199340150E-02 9.913135490E-01
 3.944126666E-01 6.178110465E-02 9.812503481E-01
 3.824283183E-01 6.152870134E-02 9.799262613E-01
 3.712473512E-01 6.124389917E-02 9.777662994E-01
 3.582607508E-01 6.083462015E-02 9.697650438E-01
 3.459370434E-01 6.037094817E-02 9.607964593E-01
 3.332616687E-01 5.984797701E-02 9.579139963E-01
 3.224335909E-01 5.934387073E-02 9.527346788E-01
 3.100035191E-01 5.871110037E-02 9.487695988E-01
 2.968972325E-01 5.797043815E-02 9.425776620E-01
 2.829914391E-01 5.710043013E-02 9.355510481E-01
 2.703114450E-01 5.623989925E-02 9.311818669E-01
 2.582494318E-01 5.535995215E-02 9.260368750E-01
 2.456502318E-01 5.435336381E-02 9.172052260E-01
 2.329637855E-01 5.329523981E-02 9.150154048E-01
 2.204873115E-01 5.216260254E-02 9.072725799E-01
 2.084707320E-01 5.099902302E-02 9.001307963E-01
 1.969168484E-01 4.983292520E-02 8.966701254E-01
 1.843127161E-01 4.847118258E-02 8.900566655E-01
 1.721238196E-01 4.707631841E-02 8.844634747E-01
 1.605020761E-01 4.566698521E-02 8.784545652E-01
 1.482389271E-01 4.408575594E-02 8.711009684E-01
 1.373646259E-01 4.260534793E-02 8.644156265E-01
 1.255905181E-01 4.092036933E-02 8.593238762E-01
 1.138817817E-01 3.912709281E-02 8.509168973E-01
 1.030383110E-01 3.737613931E-02 8.446314616E-01
 9.310353547E-02 3.567154706E-02 8.390400662E-01
 8.177362382E-02 3.359522298E-02 8.293321366E-01
 6.987416744E-02 3.124481998E-02 8.216623217E-01
 5.991984904E-02 2.910804749E-02 8.113041381E-01
 5.010205507E-02 2.682137303E-02 8.002060634E-01
 4.141701385E-02 2.460319363E-02 7.887682704E-01
 3.407966346E-02 2.255111374E-02 7.767032790E-01
 2.770645916E-02 2.058619261E-02 7.633764163E-01
 2.229480445E-02 1.874882355E-02 7.498342003E-01
 1.839490421E-02 1.728445105E-02 7.353339734E-01
 1.472810563E-02 1.577937603E-02 7.210192216E-01
 1.202440448E-02 1.455802657E-02 7.026126918E-01
 9.560340084E-03 1.332449447E-02 6.809412507E-01
 7.774809375E-03 1.234906167E-02 6.622785104E-01
 6.210862659E-03 1.142373681E-02 6.456613118E-01
 4.756459501E-03 1.047031488E-02 6.148073873E-01
 2.864138689E-03 9.049324319E-03 5.652643408E-01
 1.234762953E-03 7.578116842E-03 5.167611761E-01
 -1.297106937E-04 6.017179228E-03 4.228816545E-01
 -1.395407016E-03 3.884709440E-03 2.951953356E-01
 -1.918595750E-03 2.237842651E-03 1.736744414E-01
 -2.069601323E-03 8.904415299E-04 5.361905012E-02
 -1.945171622E-03 -6.263844552E-04 7.348939247E-02
 -1.495463308E-03 -2.243421506E-03 1.967656590E-01
 -5.557019031E-04 -4.128819797E-03 3.125786659E-01
 8.976074751E-04 -6.121693179E-03 4.123049557E-01
 2.932321280E-03 -8.219943382E-03 4.957964944E-01
 4.752442241E-03 -9.755443782E-03 5.551839076E-01
 6.844399031E-03 -1.128331013E-02 5.961493522E-01
 8.494473062E-03 -1.236277260E-02 6.291850690E-01
 1.054267026E-02 -1.358681731E-02 6.543776439E-01
 1.289090980E-02 -1.486207452E-02 6.781107597E-01
 1.614934206E-02 -1.647040434E-02 7.045292525E-01
 1.918870211E-02 -1.782931946E-02 7.287191969E-01
 2.306851745E-02 -1.941924915E-02 7.463873762E-01
 2.844528481E-02 -2.139975689E-02 7.657595256E-01
 3.421837091E-02 -2.331543341E-02 7.833977416E-01
 4.145744070E-02 -2.547384799E-02 7.973775831E-01
 4.910084605E-02 -2.753460221E-02 8.101903672E-01
 5.810543895E-02 -2.972849272E-02 8.203068243E-01
 6.694247574E-02 -3.170346841E-02 8.300555039E-01
 7.718775421E-02 -3.380062804E-02 8.387946606E-01
 8.708816022E-02 -3.567609191E-02 8.443859900E-01
 9.739911556E-02 -3.749315813E-02 8.528436711E-01
 1.081822887E-01 -3.926487640E-02 8.581527771E-01
 1.196236908E-01 -4.102721810E-02 8.650410022E-01
 1.312138140E-01 -4.269452021E-02 8.716620163E-01
 1.419506669E-01 -4.414792359E-02 8.776848933E-01
 1.529766619E-01 -4.555739835E-02 8.840963058E-01
 1.649971455E-01 -4.700222984E-02 8.908496779E-01
 1.766176075E-01 -4.831236973E-02 8.979131004E-01
 1.886147112E-01 -4.957895353E-02 9.044388978E-01
 1.993228346E-01 -5.064258724E-02 9.121067624E-01
 2.104839087E-01 -5.167802796E-02 9.184757699E-01
 2.228700817E-01 -5.274688825E-02 9.263287779E-01
 2.357464582E-01 -5.376112089E-02 9.333822500E-01
 2.483329922E-01 -5.467585474E-02 9.448149754E-01
 2.609736323E-01 -5.548429862E-02 9.511361202E-01
 2.723035216E-01 -5.614649877E-02 9.634871493E-01
 2.852486670E-01 -5.678961799E-02 9.717112462E-01
 2.979741096E-01 -5.731246248E-02 9.768112294E-01
 3.107465804E-01 -5.774126947E-02 9.850165302E-01
 3.226034641E-01 -5.805859715E-02 1.002483457E+00
 3.351321220E-01 -5.824160203E-02 1.003194218E+00
 3.460730016E-01 -5.832828209E-02 1.003921594E+00
 3.575653434E-01 -5.833775550E-02 1.016663210E+00
 3.684925139E-01 -5.822186545E-02 1.018219164E+00
 3.793295920E-01 -5.802871659E-02 1.014078027E+00
 3.908190429E-01 -5.771180242E-02 1.006286829E+00
 4.037634134E-01 -5.722257867E-02 9.930732964E-01
 4.161107242E-01 -5.663955584E-02 9.848954872E-01
 4.291742742E-01 -5.588275939E-02 9.750200171E-01
 4.418119192E-01 -5.499519035E-02 9.551596231E-01
 4.540749192E-01 -5.402661115E-02 9.388323834E-01
 4.662229419E-01 -5.296142772E-02 9.252637054E-01
 4.786565602E-01 -5.174558610E-02 9.052152808E-01
 4.903676510E-01 -5.053878203E-02 8.930808692E-01
 5.027418137E-01 -4.915855825E-02 8.753433571E-01
 5.165675282E-01 -4.753967747E-02 8.597930748E-01
 5.302624106E-01 -4.585346952E-02 8.459527101E-01
 5.434884429E-01 -4.411533475E-02 8.256215344E-01
 5.566211343E-01 -4.237428680E-02 8.134147659E-01
 5.696115494E-01 -4.060799628E-02 8.008215388E-01
 5.826635957E-01 -3.879062459E-02 7.875783024E-01
 5.946621299E-01 -3.709504008E-02 7.752117728E-01
 6.071206331E-01 -3.534438834E-02 7.673474287E-01
 6.209787726E-01 -3.335325420E-02 7.544398826E-01
 6.351457834E-01 -3.130731732E-02 7.421910058E-01
 6.494076252E-01 -2.927557193E-02 7.337659312E-01
 6.624527574E-01 -2.740124241E-02 7.228160503E-01
 6.760808825E-01 -2.548500709E-02 7.169547735E-01
 6.882961988E-01 -2.374053560E-02 7.066685956E-01
 7.005803585E-01 -2.199754678E-02 6.964394850E-01
 7.151564956E-01 -2.000675723E-02 6.910709761E-01
 7.279356718E-01 -1.825388521E-02 6.812027340E-01
 7.398473024E-01 -1.667038351E-02 6.757490133E-01
 7.524197102E-01 -1.501738187E-02 6.687681431E-01
 7.645068169E-01 -1.344266348E-02 6.598413560E-01
 7.775175571E-01 -1.182282995E-02 6.553555508E-01
 7.888794541E-01 -1.040105429E-02 6.447418387E-01
 8.017562628E-01 -8.910150267E-03 6.418758372E-01
 8.127351999E-01 -7.654030342E-03 6.349597932E-01
 8.238312006E-01 -6.402276456E-03 6.247745446E-01
 8.367999196E-01 -5.103524774E-03 6.228593012E-01
 8.489115238E-01 -3.916831221E-03 6.143057713E-01
 8.610858917E-01 -2.840017667E-03 6.095291553E-01
 8.728386760E-01 -1.887597376E-03 6.035223725E-01
 8.848903179E-01 -1.044687117E-03 6.005538240E-01
 8.977602124E-01 -2.548551711E-04 5.949890961E-01
 9.085208774E-01 2.502955322E-04 5.948484950E-01
 9.186008573E-01 6.584280054E-04 5.929042568E-01
 9.281414747E-01 9.421347058E-04 5.917042895E-01
 9.371232390E-01 1.132899430E-03 5.922317375E-01
 9.493987560E-01 1.275332179E-03 5.929613514E-01
 9.624507427E-01 1.288261614E-03 5.936289304E-01
 9.765585661E-01 1.140890643E-03 5.929905408E-01
 9.889070988E-01 8.740251651E-04 5.865972540E-01
 -5.000000000E-01 -1.000000000E+00 7.242552094E-01
 3.500000000E+00 -1.000000000E+00 7.281202521E-01
 3.500000000E+00 1.000000000E+00 7.136723604E-01
 -5.000000000E-01 1.000000000E+00 7.246067251E-01
 9.941940010E-01 1.623524993E-03 6.238297614E-01
 9.823018014E-01 3.850315581E-03 6.587326166E-01
 9.688050151E-01 6.378713530E-03 6.868044701E-01
 9.542680681E-01 9.106136626E-03 7.099799295E-01
 9.403017461E-01 1.170516806E-02 7.292272064E-01
 9.276533127E-01 1.402897201E-02 7.430558389E-01
 9.158881307E-01 1.618421730E-02 7.627857306E-01
 9.038779140E-01 1.832121611E-02 7.757138764E-01
 8.918534517E-01 2.039308753E-02 7.880059252E-01
 8.795655668E-01 2.246266510E-02 8.041937151E-01
 8.670355082E-01 2.445599157E-02 8.083734276E-01
 8.544784486E-01 2.638849244E-02 8.149960839E-01
 8.424210548E-01 2.821257152E-02 8.226725546E-01
 8.307422698E-01 2.993362956E-02 8.296059619E-01
 8.183673024E-01 3.171895538E-02 8.371646263E-01
 8.053798378E-01 3.354226612E-02 8.473266807E-01
 7.925871909E-01 3.526736982E-02 8.472928622E-01
 7.801688612E-01 3.691835329E-02 8.552159038E-01
 7.679972351E-01 3.852520324E-02 8.672681958E-01
 7.553201914E-01 4.012549296E-02 8.700312594E-01
 7.417495549E-01 4.179585166E-02 8.753967785E-01
 7.294193208E-01 4.329601116E-02 8.848780115E-01
 7.184644341E-01 4.459836334E-02 8.924796330E-01
 7.070693076E-01 4.591948912E-02 9.035620606E-01
 6.943092644E-01 4.733790830E-02 9.104485081E-01
 6.807366312E-01 4.878043942E-02 9.168271324E-01
 6.689747572E-01 4.998806864E-02 9.231085242E-01
 6.580384076E-01 5.107371323E-02 9.309775038E-01
 6.464101970E-01 5.218926817E-02 9.400570422E-01
 6.346983612E-01 5.326247588E-02 9.498405814E-01
 6.230691671E-01 5.427202582E-02 9.557533374E-01
 6.119200289E-01 5.519237928E-02 9.666873679E-01
 6.001268327E-01 5.610674620E-02 9.741394206E-01
 5.878763199E-01 5.698992312E-02 9.808864715E-01
 5.752600729E-01 5.782719515E-02 9.860728548E-01
 5.622971654E-01 5.862018280E-02 9.967213703E-01
 5.499705970E-01 5.930319242E-02 1.004999528E+00
 5.384016931E-01 5.987627432E-02 1.009100292E+00
 5.271205604E-01 6.036964059E-02 1.011744095E+00
 5.149867535E-01 6.083795428E-02 1.018244554E+00
 5.030915141E-01 6.122906692E-02 1.016224880E+00
 4.909964353E-01 6.155248173E-02 1.018529322E+00
 4.779188633E-01 6.183636189E-02 1.020067552E+00
 4.643507153E-01 6.203645840E-02 1.010572383E+00
 4.506564587E-01 6.215203926E-02 1.004308514E+00
 4.376348555E-01 6.218943186E-02 1.000856535E+00
 4.250378609E-01 6.215744093E-02 1.000028092E+00
 4.127393961E-01 6.205939315E-02 9.963713393E-01
 4.005503058E-01 6.188725308E-02 9.851983713E-01
 3.884204924E-01 6.165490299E-02 9.799386354E-01
 3.768378347E-01 6.138630025E-02 9.798777547E-01
 3.647540510E-01 6.103925966E-02 9.742210316E-01
 3.520988971E-01 6.060278416E-02 9.645204331E-01
 3.395993561E-01 6.010946259E-02 9.591743331E-01
 3.278476298E-01 5.959592387E-02 9.554918000E-01
 3.162185550E-01 5.902748555E-02 9.508388369E-01
 3.034503758E-01 5.834076926E-02 9.460670501E-01
 2.899443358E-01 5.753543414E-02 9.387173000E-01
 2.766514421E-01 5.667016469E-02 9.329768063E-01
 2.642804384E-01 5.579992570E-02 9.296306387E-01
 2.519498318E-01 5.485665798E-02 9.205804484E-01
 2.393070087E-01 5.382430181E-02 9.166221142E-01
 2.267255485E-01 5.272892118E-02 9.113738226E-01
 2.144790217E-01 5.158081278E-02 9.029780166E-01
 2.026937902E-01 5.041597411E-02 8.989268547E-01
 1.906147823E-01 4.915205389E-02 8.932285572E-01
 1.782182679E-01 4.777375050E-02 8.871094089E-01
 1.663129479E-01 4.637165181E-02 8.819013255E-01
 1.543705016E-01 4.487637058E-02 8.744899201E-01
 1.428017765E-01 4.334555194E-02 8.676570296E-01
 1.314775720E-01 4.176285863E-02 8.623175651E-01
 1.197361499E-01 4.002373107E-02 8.546432038E-01
 1.084600464E-01 3.825161606E-02 8.486382485E-01
 8.743857965E-02 3.463338502E-02 8.344588467E-01
 7.582389563E-02 3.242002148E-02 8.244860011E-01
 6.489700824E-02 3.017643373E-02 8.184877526E-01
 7.206511497E-02 -3.275204822E-02 8.357754590E-01
 9.224363789E-02 -3.658462502E-02 8.500391900E-01
 1.027907021E-01 -3.837901726E-02 8.551917832E-01
 1.139029898E-01 -4.014604725E-02 8.615704864E-01
 1.254187524E-01 -4.186086915E-02 8.683236644E-01
 1.365822405E-01 -4.342122190E-02 8.749368117E-01
 1.474636644E-01 -4.485266097E-02 8.808222616E-01
 1.589869037E-01 -4.627981409E-02 8.872225316E-01
 1.708073765E-01 -4.765729979E-02 8.946076897E-01
 1.826161593E-01 -4.894566163E-02 9.009629876E-01
 1.939687729E-01 -5.011077039E-02 9.084554180E-01
 2.049033716E-01 -5.116030760E-02 9.153908014E-01
 2.166769952E-01 -5.221245810E-02 9.220701062E-01
 2.293082699E-01 -5.325400457E-02 9.298306547E-01
 2.420397252E-01 -5.421848781E-02 9.386936577E-01
 2.546533123E-01 -5.508007668E-02 9.486135843E-01
 2.666385770E-01 -5.581539869E-02 9.565500010E-01
 2.787760943E-01 -5.646805838E-02 9.682838052E-01
 2.916113883E-01 -5.705104023E-02 9.744120078E-01
 3.043603450E-01 -5.752686597E-02 9.801535645E-01
 3.166750222E-01 -5.789993331E-02 9.931393060E-01
 3.288677931E-01 -5.815009959E-02 1.005555099E+00
 3.406025618E-01 -5.828494206E-02 1.002169609E+00
 3.518191725E-01 -5.833301879E-02 1.009105664E+00
 3.630289286E-01 -5.827981047E-02 1.020246739E+00
 3.739110529E-01 -5.812529102E-02 1.015646999E+00
 3.850743175E-01 -5.787025951E-02 1.011213781E+00
 3.972912282E-01 -5.746719055E-02 9.994216989E-01
 4.099370688E-01 -5.693106726E-02 9.886552620E-01
 4.226424992E-01 -5.626115762E-02 9.804609848E-01
 4.354930967E-01 -5.543897487E-02 9.661803158E-01
 4.479434192E-01 -5.451090075E-02 9.461024851E-01
 4.601489305E-01 -5.349401943E-02 9.321963263E-01
 4.724397510E-01 -5.235350691E-02 9.157555887E-01
 4.845121056E-01 -5.114218406E-02 8.983198133E-01
 4.965547323E-01 -4.984867014E-02 8.850790681E-01
 5.096546710E-01 -4.834911786E-02 8.668527045E-01
 5.234149694E-01 -4.669657350E-02 8.530815348E-01
 5.368754268E-01 -4.498440214E-02 8.362276452E-01
 5.500547886E-01 -4.324481077E-02 8.186204205E-01
 5.631163418E-01 -4.149114154E-02 8.074473553E-01
 5.761375725E-01 -3.969931044E-02 7.940593633E-01
 5.886628628E-01 -3.794283234E-02 7.812579873E-01
 6.008913815E-01 -3.621971421E-02 7.711065436E-01
 6.140497029E-01 -3.434882127E-02 7.612962263E-01
 6.280622780E-01 -3.233028576E-02 7.481240584E-01
 6.422767043E-01 -3.029144462E-02 7.377857362E-01
 6.559301913E-01 -2.833840717E-02 7.283112097E-01
 6.692668200E-01 -2.644312475E-02 7.196181872E-01
 6.821885407E-01 -2.461277135E-02 7.121787853E-01
 6.944382787E-01 -2.286904119E-02 7.013306198E-01
 7.078684270E-01 -2.100215200E-02 6.937049042E-01
 7.215460837E-01 -1.913032122E-02 6.863512369E-01
 7.338914871E-01 -1.746213436E-02 6.780832094E-01
 7.461335063E-01 -1.584388269E-02 6.724828873E-01
 7.584632635E-01 -1.423002267E-02 6.641963319E-01
 7.710121870E-01 -1.263274672E-02 6.575408864E-01
 7.831985056E-01 -1.111194212E-02 6.500102185E-01
 7.953178585E-01 -9.655602276E-03 6.431525360E-01
 8.072457314E-01 -8.282090304E-03 6.386388435E-01
 8.182832003E-01 -7.028153399E-03 6.297787119E-01
 8.303155601E-01 -5.752900615E-03 6.237319040E-01
 8.428557217E-01 -4.510177998E-03 6.187766974E-01
 8.549987078E-01 -3.378424444E-03 6.117896896E-01
 8.669622838E-01 -2.363807522E-03 6.064845126E-01
 8.788644969E-01 -1.466142246E-03 6.018807773E-01
 8.913252652E-01 -6.497711438E-04 5.980062479E-01
 9.031405449E-01 -2.279819455E-06 5.945907060E-01
 9.432609975E-01 1.204115804E-03 5.927719918E-01
 9.559247494E-01 1.281796896E-03 5.934432399E-01
 9.695046544E-01 1.214576128E-03 5.937646956E-01
 9.827328324E-01 1.007457904E-03 5.898761642E-01
 9.944866300E-01 6.975380238E-04 5.852323181E-01
 -5.000000000E-01 9.500000000E-01 7.224798180E-01
 -5.000000000E-01 9.000000000E-01 7.191629091E-01
 -5.000000000E-01 8.500000000E-01 7.166217853E-01
 -5.000000000E-01 8.000000000E-01 7.143848023E-01
 -5.000000000E-01 7.500000000E-01 7.122282318E-01
 -5.000000000E-01 7.000000000E-01 7.100772518E-01
 -5.000000000E-01 6.500000000E-01 7.079291458E-01
 -5.000000000E-01 6.000000000E-01 7.057412456E-01
 -5.000000000E-01 5.500000000E-01 7.034967710E-01
 -5.000000000E-01 5.000000000E-01 7.011926624E-01
 -5.000000000E-01 4.500000000E-01 6.988112691E-01
 -5.000000000E-01 4.000000000E-01 6.964787772E-01
 -5.000000000E-01 3.500000000E-01 6.941770877E-01
 -5.000000000E-01 3.000000000E-01 6.919569277E-01
 -5.000000000E-01 2.500000000E-01 6.898934303E-01
 -5.000000000E-01 2.000000000E-01 6.880811232E-01
 -5.000000000E-01 1.500000000E-01 6.865207062E-01
 -5.000000000E-01 1.000000000E-01 6.853327100E-01
 -5.000000000E-01 5.000000000E-02 6.845730591E-01
 -5.000000000E-01 2.752242878E-12 6.842805363E-01
 -5.000000000E-01 -5.000000000E-02 6.844442775E-01
 -5.000000000E-01 -1.000000000E-01 6.850433643E-01
 -5.000000000E-01 -1.500000000E-01 6.860800603E-01
 -5.000000000E-01 -2.000000000E-01 6.874831829E-01
 -5.000000000E-01 -2.500000000E-01 6.891849397E-01
 -5.000000000E-01 -3.000000000E-01 6.911557233E-01
 -5.000000000E-01 -3.500000000E-01 6.932669350E-01
 -5.000000000E-01 -4.000000000E-01 6.954815132E-01
 -5.000000000E-01 -4.500000000E-01 6.977721241E-01
 -5.000000000E-01 -5.000000000E-01 7.000530311E-01
 -5.000000000E-01 -5.500000000E-01 7.023225634E-01
 -5.000000000E-01 -6.000000000E-01 7.045662234E-01
 -5.000000000E-01 -6.500000000E-01 7.067722657E-01
 -5.000000000E-01 -7.000000000E-01 7.089477702E-01
 -5.000000000E-01 -7.500000000E-01 7.111381752E-01
 -5.000000000E-01 -8.000000000E-01 7.133398103E-01
 -5.000000000E-01 -8.500000000E-01 7.157117403E-01
 -5.000000000E-01 -9.000000000E-01 7.184273819E-01
 -5.000000000E-01 -9.500000000E-01 7.219754603E-01
 -4.500000000E-01 -1.000000000E+00 7.218353534E-01
 -4.000000000E-01 -1.000000000E+00 7.183679846E-01
 -3.500000000E-01 -1.000000000E+00 7.161646513E-01
 -3.000000000E-01 -1.000000000E+00 7.147267419E-01
 -2.500000000E-01 -1.000000000E+00 7.138289038E-01
 -2.000000000E-01 -1.000000000E+00 7.135586937E-01
 -1.500000000E-01 -1.000000000E+00 7.138311936E-01
 -1.000000000E-01 -1.000000000E+00 7.147239929E-01
 -5.000000000E-02 -1.000000000E+00 7.162187454E-01
 -9.424683256E-13 -1.000000000E+00 7.181657797E-01
 5.000000000E-02 -1.000000000E+00 7.206377820E-01
 1.000000000E-01 -1.000000000E+00 7.236886470E-01
 1.500000000E-01 -1.000000000E+00 7.268450938E-01
 2.000000000E-01 -1.000000000E+00 7.301191078E-01
 2.500000000E-01 -1.000000000E+00 7.335489556E-01
 3.000000000E-01 -1.000000000E+00 7.367625213E-01
 3.500000000E-01 -1.000000000E+00 7.394740589E-01
 4.000000000E-01 -1.000000000E+00 7.416016825E-01
 4.500000000E-01 -1.000000000E+00 7.430751477E-01
 5.000000000E-01 -1.000000000E+00 7.437705453E-01
 5.500000000E-01 -1.000000000E+00 7.438546062E-01
 6.000000000E-01 -1.000000000E+00 7.431996949E-01
 6.500000000E-01 -1.000000000E+00 7.418734850E-01
 7.000000000E-01 -1.000000000E+00 7.401437918E-01
 7.500000000E-01 -1.000000000E+00 7.378109458E-01
 8.000000000E-01 -1.000000000E+00 7.356333131E-01
 8.500000000E-01 -1.000000000E+00 7.331719384E-01
 9.000000000E-01 -1.000000000E+00 7.305694719E-01
 9.500000000E-01 -1.000000000E+00 7.280755003E-01
 1.000000000E+00 -1.000000000E+00 7.256992472E-01
 1.050000000E+00 -1.000000000E+00 7.235242918E-01
 1.100000000E+00 -1.000000000E+00 7.215059965E-01
 1.150000000E+00 -1.000000000E+00 7.198559106E-01
 1.200000000E+00 -1.000000000E+00 7.184252921E-01
 1.250000000E+00 -1.000000000E+00 7.172681097E-01
 1.300000000E+00 -1.000000000E+00 7.163565942E-01
 1.350000000E+00 -1.000000000E+00 7.157748355E-01
 1.400000000E+00 -1.000000000E+00 7.153272578E-01
 1.450000000E+00 -1.000000000E+00 7.150653247E-01
 1.500000000E+00 -1.000000000E+00 7.149473608E-01
 1.550000000E+00 -1.000000000E+00 7.149284753E-01
 1.600000000E+00 -1.000000000E+00 7.150695172E-01
 1.650000000E+00 -1.000000000E+00 7.153162181E-01
 1.700000000E+00 -1.000000000E+00 7.155635076E-01
 1.750000000E+00 -1.000000000E+00 7.158440010E-01
 1.800000000E+00 -1.000000000E+00 7.161719623E-01
 1.850000000E+00 -1.000000000E+00 7.165697029E-01
 1.900000000E+00 -1.000000000E+00 7.169626856E-01
 1.950000000E+00 -1.000000000E+00 7.174404173E-01
 2.000000000E+00 -1.000000000E+00 7.178636346E-01
 2.050000000E+00 -1.000000000E+00 7.182558288E-01
 2.100000000E+00 -1.000000000E+00 7.185850475E-01
 2.150000000E+00 -1.000000000E+00 7.190081379E-01
 2.200000000E+00 -1.000000000E+00 7.194108977E-01
 2.250000000E+00 -1.000000000E+00 7.197899935E-01
 2.300000000E+00 -1.000000000E+00 7.201411639E-01
 2.350000000E+00 -1.000000000E+00 7.204670984E-01
 2.400000000E+00 -1.000000000E+00 7.208037600E-01
 2.450000000E+00 -1.000000000E+00 7.210932514E-01
 2.500000000E+00 -1.000000000E+00 7.213808820E-01
 2.550000000E+00 -1.000000000E+00 7.216471731E-01
 2.600000000E+00 -1.000000000E+00 7.218764708E-01
 2.650000000E+00 -1.000000000E+00 7.221578159E-01
 2.700000000E+00 -1.000000000E+00 7.223672041E-01
 2.750000000E+00 -1.000000000E+00 7.225396732E-01
 2.800000000E+00 -1.000000000E+00 7.227071712E-01
 2.850000000E+00 -1.000000000E+00 7.228454145E-01
 2.900000000E+00 -1.000000000E+00 7.229867031E-01
 2.950000000E+00 -1.000000000E+00 7.231362446E-01
 3.000000000E+00 -1.000000000E+00 7.232837579E-01
 3.050000000E+00 -1.000000000E+00 7.233887129E-01
 3.100000000E+00 -1.000000000E+00 7.234844808E-01
 3.150000000E+00 -1.000000000E+00 7.236113815E-01
 3.200000000E+00 -1.000000000E+00 7.237370820E-01
 3.250000000E+00 -1.000000000E+00 7.238684438E-01
 3.300000000E+00 -1.000000000E+00 7.240307508E-01
 3.350000000E+00 -1.000000000E+00 7.242872941E-01
 3.400000000E+00 -1.000000000E+00 7.247706386E-01
 3.450000000E+00 -1.000000000E+00 7.258991495E-01
 3.500000000E+00 -9.500000000E-01 7.295116441E-01
 3.500000000E+00 -9.000000000E-01 7.302503470E-01
 3.500000000E+00 -8.500000000E-01 7.307417910E-01
 3.500000000E+00 -8.000000000E-01 7.310992160E-01
 3.500000000E+00 -7.500000000E-01 7.313719692E-01
 3.500000000E+00 -7.000000000E-01 7.316039050E-01
 3.500000000E+00 -6.500000000E-01 7.318598037E-01
 3.500000000E+00 -6.000000000E-01 7.321411999E-01
 3.500000000E+00 -5.500000000E-01 7.324601849E-01
 3.500000000E+00 -5.000000000E-01 7.327693550E-01
 3.500000000E+00 -4.500000000E-01 7.330788012E-01
 3.500000000E+00 -4.000000000E-01 7.333933968E-01
 3.500000000E+00 -3.500000000E-01 7.337061378E-01
 3.500000000E+00 -3.000000000E-01 7.340234136E-01
 3.500000000E+00 -2.500000000E-01 7.343101638E-01
 3.500000000E+00 -2.000000000E-01 7.345199617E-01
 3.500000000E+00 -1.500000000E-01 7.346268293E-01
 3.500000000E+00 -1.000000000E-01 7.346581806E-01
 3.500000000E+00 -5.000000000E-02 7.346482051E-01
 3.500000000E+00 -2.752242878E-12 7.346360882E-01
 3.500000000E+00 5.000000000E-02 7.346051142E-01
 3.500000000E+00 1.000000000E-01 7.344870553E-01
 3.500000000E+00 1.500000000E-01 7.342966727E-01
 3.500000000E+00 2.000000000E-01 7.340096421E-01
 3.500000000E+00 2.500000000E-01 7.336811335E-01
 3.500000000E+00 3.000000000E-01 7.333474036E-01
 3.500000000E+00 3.500000000E-01 7.330453579E-01
 3.500000000E+00 4.000000000E-01 7.327469043E-01
 3.500000000E+00 4.500000000E-01 7.324225304E-01
 3.500000000E+00 5.000000000E-01 7.320501760E-01
 3.500000000E+00 5.500000000E-01 7.316379472E-01
 3.500000000E+00 6.000000000E-01 7.314000443E-01
 3.500000000E+00 6.500000000E-01 7.314828251E-01
 3.500000000E+00 7.000000000E-01 7.317836008E-01
 3.500000000E+00 7.500000000E-01 7.319791003E-01
 3.500000000E+00 8.000000000E-01 7.311965624E-01
 3.500000000E+00 8.500000000E-01 7.290162767E-01
 3.500000000E+00 9.000000000E-01 7.253927974E-01
 3.500000000E+00 9.500000000E-01 7.203815117E-01
 3.450000000E+00 1.000000000E+00 7.041016543E-01
 3.400000000E+00 1.000000000E+00 7.000699005E-01
 3.350000000E+00 1.000000000E+00 6.993152400E-01
 3.300000000E+00 1.000000000E+00 6.989828739E-01
 3.250000000E+00 1.000000000E+00 6.990195950E-01
 3.200000000E+00 1.000000000E+00 6.990911174E-01
 3.150000000E+00 1.000000000E+00 6.990498059E-01
 3.100000000E+00 1.000000000E+00 6.992675761E-01
 3.050000000E+00 1.000000000E+00 6.998974742E-01
 3.000000000E+00 1.000000000E+00 7.004358418E-01
 2.950000000E+00 1.000000000E+00 7.006129038E-01
 2.900000000E+00 1.000000000E+00 7.008484280E-01
 2.850000000E+00 1.000000000E+00 7.011398636E-01
 2.800000000E+00 1.000000000E+00 7.014696850E-01
 2.750000000E+00 1.000000000E+00 7.018914118E-01
 2.700000000E+00 1.000000000E+00 7.021144698E-01
 2.650000000E+00 1.000000000E+00 7.025027746E-01
 2.600000000E+00 1.000000000E+00 7.034245890E-01
 2.550000000E+00 1.000000000E+00 7.035238519E-01
 2.500000000E+00 1.000000000E+00 7.036957173E-01
 2.450000000E+00 1.000000000E+00 7.040409660E-01
 2.400000000E+00 1.000000000E+00 7.043510091E-01
 2.350000000E+00 1.000000000E+00 7.047285993E-01
 2.300000000E+00 1.000000000E+00 7.050585548E-01
 2.250000000E+00 1.000000000E+00 7.054988838E-01
 2.200000000E+00 1.000000000E+00 7.059235424E-01
 2.150000000E+00 1.000000000E+00 7.064076437E-01
 2.100000000E+00 1.000000000E+00 7.068646975E-01
 2.050000000E+00 1.000000000E+00 7.073680110E-01
 2.000000000E+00 1.000000000E+00 7.080950365E-01
 1.950000000E+00 1.000000000E+00 7.088041801E-01
 1.900000000E+00 1.000000000E+00 7.096776548E-01
 1.850000000E+00 1.000000000E+00 7.102269674E-01
 1.800000000E+00 1.000000000E+00 7.111435803E-01
 1.750000000E+00 1.000000000E+00 7.123044521E-01
 1.700000000E+00 1.000000000E+00 7.130945212E-01
 1.650000000E+00 1.000000000E+00 7.142518523E-01
 1.600000000E+00 1.000000000E+00 7.152643109E-01
 1.550000000E+00 1.000000000E+00 7.172287809E-01
 1.500000000E+00 1.000000000E+00 7.186661222E-01
 1.450000000E+00 1.000000000E+00 7.203820008E-01
 1.400000000E+00 1.000000000E+00 7.219988518E-01
 1.350000000E+00 1.000000000E+00 7.244142889E-01
 1.300000000E+00 1.000000000E+00 7.273926484E-01
 1.250000000E+00 1.000000000E+00 7.296987281E-01
 1.200000000E+00 1.000000000E+00 7.329140399E-01
 1.150000000E+00 1.000000000E+00 7.367907449E-01
 1.100000000E+00 1.000000000E+00 7.398502480E-01
 1.050000000E+00 1.000000000E+00 7.433252397E-01
 1.000000000E+00 1.000000000E+00 7.463715266E-01
 9.500000000E-01 1.000000000E+00 7.500206899E-01
 9.000000000E-01 1.000000000E+00 7.539771266E-01
 8.500000000E-01 1.000000000E+00 7.568779696E-01
 8.000000000E-01 1.000000000E+00 7.607201289E-01
 7.500000000E-01 1.000000000E+00 7.631990875E-01
 7.000000000E-01 1.000000000E+00 7.648467158E-01
 6.500000000E-01 1.000000000E+00 7.652021293E-01
 6.000000000E-01 1.000000000E+00 7.657047674E-01
 5.500000000E-01 1.000000000E+00 7.650719653E-01
 5.000000000E-01 1.000000000E+00 7.627174676E-01
 4.500000000E-01 1.000000000E+00 7.599947635E-01
 4.000000000E-01 1.000000000E+00 7.564741119E-01
 3.500000000E-01 1.000000000E+00 7.524818440E-01
 3.000000000E-01 1.000000000E+00 7.475957882E-01
 2.500000000E-01 1.000000000E+00 7.429934289E-01
 2.000000000E-01 1.000000000E+00 7.384635471E-01
 1.500000000E-01 1.000000000E+00 7.336057203E-01
 1.000000000E-01 1.000000000E+00 7.292027224E-01
 5.000000000E-02 1.000000000E+00 7.252838990E-01
 1.733724275E-12 1.000000000E+00 7.219404606E-01
 -5.000000000E-02 1.000000000E+00 7.192654789E-01
 -1.000000000E-01 1.000000000E+00 7.173179517E-01
 -1.500000000E-01 1.000000000E+00 7.159944307E-01
 -2.000000000E-01 1.000000000E+00 7.153661501E-01
 -2.500000000E-01 1.000000000E+00 7.153730209E-01
 -3.000000000E-01 1.000000000E+00 7.159968777E-01
 -3.500000000E-01 1.000000000E+00 7.171921432E-01
 -4.000000000E-01 1.000000000E+00 7.192134837E-01
 -4.500000000E-01 1.000000000E+00 7.223199806E-01
 8.270075873E-01 -1.217903805E-02 6.274977809E-01
 9.059372229E-01 -5.013329564E-03 5.977739105E-01
 7.561233599E-01 -1.985757300E-02 6.677093819E-01
 6.859852191E-01 -2.940375403E-02 7.097810024E-01
 6.183764241E-01 -3.985178817E-02 7.582751076E-01
 5.484925779E-01 -4.951165994E-02 8.201974598E-01
 4.823920057E-01 -5.650949674E-02 8.982943910E-01
 4.275130270E-01 -6.122530721E-02 9.711408756E-01
 3.660199024E-01 -6.335910751E-02 1.014651201E+00
 9.857099610E-01 -4.149446165E-03 5.954480978E-01
 3.139167311E-01 -6.396027070E-02 9.848757510E-01
 2.584783239E-01 -5.993677275E-02 9.477619408E-01
 1.956761475E-01 -5.575924083E-02 9.071222900E-01
 1.443726855E-01 -4.929532148E-02 8.767489355E-01
 8.891352489E-02 -4.070473630E-02 8.426560932E-01
 5.247032816E-02 -3.583761847E-02 8.021755365E-01
 1.672642132E-02 -2.065220548E-02 6.977357169E-01
 1.975000000E+00 -9.566987298E-01 7.192914672E-01
 1.981394305E+00 9.578677746E-01 7.182951106E-01
 9.921331886E-01 7.018052981E-03 6.315989892E-01