TITLE     = "Visualization of the solution"
VARIABLES = "x"
"y"
"Pressure_Coefficient"
ZONE T="Zone"
 STRANDID=0, SOLUTIONTIME=0
 Nodes=11909, Elements=23237, ZONETYPE=FEQuadrilateral
 DATAPACKING=POINT
 DT=(DOUBLE DOUBLE DOUBLE )
 9.998998642E-01 4.987879656E-04 3.330540615E-01
 9.887180328E-01 2.630316652E-03 2.733584840E-01
 9.755951166E-01 5.072204862E-03 2.013947145E-01
 9.585295916E-01 8.326381445E-03 1.348926854E-01
 9.429175258E-01 1.131487172E-02 8.134135296E-02
 9.261460900E-01 1.449468639E-02 3.647008289E-02
 9.135912657E-01 1.685022190E-02 7.197043362E-03
 9.010543823E-01 1.921132579E-02 -2.842126115E-02
 8.886841536E-01 2.150247619E-02 -5.282899597E-02
 8.767871261E-01 2.373772673E-02 -9.779982484E-02
 8.643174767E-01 2.601517551E-02 -1.360402720E-01
 8.516542912E-01 2.822420001E-02 -1.532531355E-01
 8.389316201E-01 3.040582128E-02 -1.755912452E-01
 8.282755017E-01 3.221315145E-02 -1.999830810E-01
 8.167459965E-01 3.412556276E-02 -2.225067285E-01
 8.044562340E-01 3.612995520E-02 -2.523580321E-01
 7.920150161E-01 3.808031604E-02 -2.666058565E-01
 7.795951366E-01 3.997636214E-02 -2.774577160E-01
 7.679120898E-01 4.177477956E-02 -3.156385199E-01
 7.563081980E-01 4.348139837E-02 -3.301647525E-01
 7.433866858E-01 4.533683136E-02 -3.469775098E-01
 7.301349044E-01 4.721166939E-02 -3.787053481E-01
 7.197068930E-01 4.865159094E-02 -4.050607546E-01
 7.089429498E-01 5.007799715E-02 -4.208312514E-01
 6.976757050E-01 5.154842511E-02 -4.510212486E-01
 6.843361259E-01 5.319646746E-02 -4.605157978E-01
 6.715177298E-01 5.473172292E-02 -5.026596714E-01
 6.619601846E-01 5.586113408E-02 -5.251021946E-01
 6.504622102E-01 5.711286142E-02 -5.334211792E-01
 6.386591792E-01 5.836885050E-02 -5.610556915E-01
 6.270632744E-01 5.952902883E-02 -5.807910878E-01
 6.156930327E-01 6.061571091E-02 -5.953785122E-01
 6.050506234E-01 6.157330424E-02 -5.706152053E-01
 5.925650001E-01 6.264175475E-02 -5.777572117E-01
 5.811216235E-01 6.353772432E-02 -7.429975255E-01
 5.680411458E-01 6.448201090E-02 -8.631179701E-01
 5.560670495E-01 6.527290493E-02 -8.492951030E-01
 5.444887877E-01 6.596475840E-02 -8.303168300E-01
 5.337556601E-01 6.652944535E-02 -8.167310058E-01
 5.224847198E-01 6.706600636E-02 -8.148179400E-01
 5.104641914E-01 6.757812947E-02 -7.991199095E-01
 4.991973341E-01 6.796305627E-02 -7.794406360E-01
 4.861737788E-01 6.836413592E-02 -7.749165527E-01
 4.728959203E-01 6.867368519E-02 -7.486285456E-01
 4.590814412E-01 6.889583170E-02 -7.282608360E-01
 4.461911023E-01 6.902318448E-02 -7.179604520E-01
 4.336822331E-01 6.908157468E-02 -7.125059037E-01
 4.213380814E-01 6.907200068E-02 -6.991631549E-01
 4.091740251E-01 6.898739189E-02 -6.843186623E-01
 3.971250057E-01 6.884736568E-02 -6.692957987E-01
 3.846554756E-01 6.862108409E-02 -6.514211944E-01
 3.731242716E-01 6.836424023E-02 -6.409326681E-01
 3.602093458E-01 6.799818575E-02 -6.312980580E-01
 3.475879431E-01 6.757882237E-02 -6.183096684E-01
 3.343921006E-01 6.704533845E-02 -5.985464868E-01
 3.229340613E-01 6.653135270E-02 -5.877221118E-01
 3.100431263E-01 6.587886065E-02 -5.729616034E-01
 2.967522442E-01 6.512428820E-02 -5.550492463E-01
 2.829513550E-01 6.425930560E-02 -5.432354474E-01
 2.706731558E-01 6.341549754E-02 -5.314499418E-01
 2.588284016E-01 6.252933294E-02 -5.175697012E-01
 2.463478595E-01 6.152295321E-02 -5.054814694E-01
 2.339666486E-01 6.043517217E-02 -4.868509098E-01
 2.216450125E-01 5.927442759E-02 -4.723512831E-01
 2.098402232E-01 5.808449537E-02 -4.581875968E-01
 1.979941130E-01 5.680718273E-02 -4.404019323E-01
 1.854840815E-01 5.536698923E-02 -4.250403292E-01
 1.734650582E-01 5.389010906E-02 -4.108690906E-01
 1.621385515E-01 5.239740014E-02 -3.880355391E-01
 1.500150263E-01 5.069997162E-02 -3.704837595E-01
 1.390826106E-01 4.907886311E-02 -3.543537718E-01
 1.270488799E-01 4.715808854E-02 -3.274206541E-01
 1.155188158E-01 4.519871995E-02 -3.068773988E-01
 1.049370915E-01 4.327546433E-02 -2.839092850E-01
 9.485070407E-02 4.132660478E-02 -2.599225984E-01
 8.355013281E-02 3.897153586E-02 -2.233975293E-01
 7.183235139E-02 3.633547202E-02 -1.931837895E-01
 6.198770925E-02 3.392507508E-02 -1.571467251E-01
 5.214256421E-02 3.130009025E-02 -1.106220410E-01
 4.385589063E-02 2.889115177E-02 -7.098272229E-02
 3.671342880E-02 2.662096918E-02 -2.373584027E-02
 3.031542338E-02 2.440487780E-02 2.290875059E-02
 2.485593781E-02 2.234493010E-02 6.469595268E-02
 2.092675306E-02 2.072228864E-02 1.158199533E-01
 1.716185920E-02 1.904450171E-02 1.633167296E-01
 1.412828639E-02 1.756878383E-02 2.223864583E-01
 1.125552971E-02 1.605444215E-02 2.742105150E-01
 9.181671776E-03 1.484880969E-02 3.285913359E-01
 7.378463168E-03 1.372111682E-02 3.732736660E-01
 5.730119999E-03 1.259381603E-02 4.558651055E-01
 3.544204868E-03 1.089852769E-02 5.620817946E-01
 1.644965610E-03 9.146408178E-03 6.679461054E-01
 7.586345600E-05 7.326960098E-03 8.742749261E-01
 -1.443819026E-03 4.723641090E-03 1.082851639E+00
 -2.013504039E-03 2.789749764E-03 1.183007268E+00
 -2.122055041E-03 1.247862703E-03 1.188612152E+00
 -1.921120682E-03 -3.074568813E-04 1.113530152E+00
 -1.455510966E-03 -1.764466870E-03 9.718690262E-01
 -5.326462560E-04 -3.507509595E-03 8.064469191E-01
 8.408339345E-04 -5.310322158E-03 5.940967421E-01
 2.702565165E-03 -7.164342329E-03 4.251828223E-01
 4.414288327E-03 -8.556791581E-03 2.844358145E-01
 6.337905303E-03 -9.908179753E-03 2.016919621E-01
 7.945462130E-03 -1.091114897E-02 1.268776099E-01
 9.973920882E-03 -1.206130441E-02 7.770015408E-02
 1.222499181E-02 -1.321621798E-02 2.226025179E-02
 1.542906649E-02 -1.469853427E-02 -2.387012252E-02
 1.821680181E-02 -1.586280018E-02 -7.593485786E-02
 2.180336230E-02 -1.723700948E-02 -1.050384859E-01
 2.689720131E-02 -1.898494549E-02 -1.343575710E-01
 3.241928294E-02 -2.068710327E-02 -1.649020701E-01
 3.925212845E-02 -2.257755399E-02 -1.868547651E-01
 4.669917002E-02 -2.444089018E-02 -2.064845756E-01
 5.557084084E-02 -2.644279785E-02 -2.198517873E-01
 6.423026323E-02 -2.822405472E-02 -2.315097180E-01
 7.400234789E-02 -3.008389845E-02 -2.412470087E-01
 8.384037763E-02 -3.180965781E-02 -2.532002565E-01
 9.385648370E-02 -3.345605358E-02 -2.665363549E-01
 1.046565399E-01 -3.511400148E-02 -2.749275597E-01
 1.157483608E-01 -3.671138361E-02 -2.864185729E-01
 1.273655742E-01 -3.828705475E-02 -2.997035046E-01
 1.383929253E-01 -3.968892619E-02 -3.097692345E-01
 1.495548487E-01 -4.103663191E-02 -3.226792855E-01
 1.616437733E-01 -4.241435975E-02 -3.365574527E-01
 1.732881963E-01 -4.366119951E-02 -3.490383473E-01
 1.854942590E-01 -4.489995539E-02 -3.652859035E-01
 1.965079755E-01 -4.594968632E-02 -3.826855417E-01
 2.078517079E-01 -4.696314782E-02 -3.956589883E-01
 2.202666253E-01 -4.799663648E-02 -4.091764069E-01
 2.333431840E-01 -4.901751503E-02 -4.331103989E-01
 2.460386306E-01 -4.991277680E-02 -4.525799957E-01
 2.583593130E-01 -5.069737136E-02 -4.670293237E-01
 2.698761225E-01 -5.136921257E-02 -4.910040360E-01
 2.826901972E-01 -5.201382190E-02 -5.045886651E-01
 2.955700159E-01 -5.257957429E-02 -5.267010135E-01
 3.082115948E-01 -5.302675441E-02 -5.425983796E-01
 3.204163909E-01 -5.337822065E-02 -5.655132529E-01
 3.330407739E-01 -5.362923071E-02 -5.848401945E-01
 3.442668021E-01 -5.375794694E-02 -6.002305015E-01
 3.556651175E-01 -5.377901345E-02 -5.935241571E-01
 3.666530550E-01 -5.372978002E-02 -6.005582246E-01
 3.776806593E-01 -5.357948318E-02 -6.021483627E-01
 3.893421888E-01 -5.332180113E-02 -5.934754822E-01
 4.025068581E-01 -5.289304629E-02 -5.704699021E-01
 4.154120386E-01 -5.236233398E-02 -5.643673486E-01
 4.282876849E-01 -5.166551843E-02 -5.312908361E-01
 4.407709539E-01 -5.086462200E-02 -4.890450754E-01
 4.523637593E-01 -5.003736168E-02 -4.708678927E-01
 4.639033973E-01 -4.907858372E-02 -4.233864703E-01
 4.761151969E-01 -4.799199477E-02 -3.874292533E-01
 4.875805378E-01 -4.688974097E-02 -3.577706697E-01
 5.002936125E-01 -4.557444528E-02 -3.184619042E-01
 5.140409470E-01 -4.404931515E-02 -2.748232747E-01
 5.274796486E-01 -4.249216616E-02 -2.398795327E-01
 5.409802794E-01 -4.083821550E-02 -1.968712241E-01
 5.535007119E-01 -3.927277774E-02 -1.665685629E-01
 5.670084953E-01 -3.753877804E-02 -1.344996187E-01
 5.798346996E-01 -3.583994880E-02 -9.807005619E-02
 5.917927027E-01 -3.427153826E-02 -8.070615560E-02
 6.041905880E-01 -3.258832544E-02 -4.670730644E-02
 6.186843514E-01 -3.062728606E-02 -1.918272549E-02
 6.334321499E-01 -2.863333933E-02 5.638914478E-03
 6.486468911E-01 -2.656243183E-02 3.188909924E-02
 6.614956260E-01 -2.479561605E-02 5.941406615E-02
 6.749671102E-01 -2.297075465E-02 7.990090217E-02
 6.872938275E-01 -2.129342407E-02 1.063703562E-01
 6.998404860E-01 -1.964125596E-02 1.209479489E-01
 7.140726447E-01 -1.779161766E-02 1.384683103E-01
 7.272687554E-01 -1.609561034E-02 1.545026552E-01
 7.393221259E-01 -1.452075690E-02 1.830275512E-01
 7.526149750E-01 -1.285836753E-02 2.000320095E-01
 7.648019791E-01 -1.140372362E-02 2.084576127E-01
 7.777084708E-01 -9.841431864E-03 2.345952544E-01
 7.892033458E-01 -8.509025909E-03 2.518592457E-01
 8.023518920E-01 -7.081932388E-03 2.598141892E-01
 8.128388524E-01 -5.925036967E-03 2.874998734E-01
 8.248759508E-01 -4.731166176E-03 2.935325745E-01
 8.378206491E-01 -3.502067644E-03 3.100677884E-01
 8.502244353E-01 -2.399866236E-03 3.269625238E-01
 8.624753952E-01 -1.427742303E-03 3.381219075E-01
 8.741117120E-01 -5.882331170E-04 3.526601058E-01
 8.861032724E-01 1.404167851E-04 3.597112405E-01
 8.995620608E-01 8.124776068E-04 3.660526858E-01
 9.098715782E-01 1.216116478E-03 3.715302076E-01
 9.203017354E-01 1.524818246E-03 3.738132663E-01
 9.298415780E-01 1.710624434E-03 3.734843491E-01
 9.384230375E-01 1.806079061E-03 3.741574242E-01
 9.498487115E-01 1.829185523E-03 3.711103778E-01
 9.617747664E-01 1.726932242E-03 3.680647115E-01
 9.759455919E-01 1.456276397E-03 3.675219388E-01
 9.877491593E-01 1.077970606E-03 3.684515027E-01
 -5.000000000E-01 -1.000000000E+00 1.483175950E-02
 3.500000000E+00 -1.000000000E+00 7.387334826E-03
 3.500000000E+00 1.000000000E+00 -2.960216060E-02
 -5.000000000E-01 1.000000000E+00 1.388617215E-02
 9.943089485E-01 1.564552309E-03 3.479066074E-01
 9.821565747E-01 3.851260757E-03 2.336377464E-01
 9.670623541E-01 6.699293153E-03 1.652895019E-01
 9.507235587E-01 9.820626583E-03 1.065690540E-01
 9.345318079E-01 1.290477905E-02 5.689895136E-02
 9.198686779E-01 1.567245414E-02 2.240307649E-02
 9.073228240E-01 1.803077385E-02 -1.246165846E-02
 8.948692679E-01 2.035690099E-02 -3.796571290E-02
 8.827356398E-01 2.262010146E-02 -7.654032321E-02
 8.705523014E-01 2.487645112E-02 -1.203032570E-01
 8.579858840E-01 2.711968776E-02 -1.438063755E-01
 8.452929556E-01 2.931501064E-02 -1.632133917E-01
 8.336035609E-01 3.130948637E-02 -1.887161793E-01
 8.225107491E-01 3.316935711E-02 -2.100869274E-01
 8.106011152E-01 3.512775898E-02 -2.393972957E-01
 7.982356250E-01 3.710513562E-02 -2.613036856E-01
 7.858050764E-01 3.902833909E-02 -2.667736777E-01
 7.737536132E-01 4.087557085E-02 -3.004575763E-01
 7.621101439E-01 4.262808897E-02 -3.233535766E-01
 7.498474419E-01 4.440911487E-02 -3.369214047E-01
 7.367607951E-01 4.627425037E-02 -3.614257923E-01
 7.249208987E-01 4.793163016E-02 -3.956444309E-01
 7.143249214E-01 4.936479405E-02 -4.093482914E-01
 7.033093274E-01 5.081321113E-02 -4.398866101E-01
 6.910059154E-01 5.237244628E-02 -4.558533891E-01
 6.779269278E-01 5.396409519E-02 -4.715840834E-01
 6.562111974E-01 5.648699775E-02 -5.261050253E-01
 6.445606947E-01 5.774085596E-02 -5.488492728E-01
 6.328612268E-01 5.894893967E-02 -5.697169211E-01
 6.213781536E-01 6.007236987E-02 -5.919613178E-01
 6.103718281E-01 6.109450758E-02 -5.868310228E-01
 5.988078117E-01 6.210752949E-02 -5.615744055E-01
 5.868433118E-01 6.308973953E-02 -6.401334711E-01
 5.745813847E-01 6.400986761E-02 -8.290820494E-01
 5.620540977E-01 6.487745792E-02 -8.608782560E-01
 5.502779186E-01 6.561883166E-02 -8.394946048E-01
 5.391222239E-01 6.624710187E-02 -8.208393657E-01
 5.281201899E-01 6.679772586E-02 -8.157280295E-01
 5.164744556E-01 6.732206792E-02 -8.119035349E-01
 5.048307627E-01 6.777059287E-02 -7.829312523E-01
 4.926855564E-01 6.816359609E-02 -7.817783362E-01
 4.795348495E-01 6.851891056E-02 -7.624278258E-01
 4.659886807E-01 6.878475845E-02 -7.366194068E-01
 4.526362717E-01 6.895950809E-02 -7.213998479E-01
 4.399366677E-01 6.905237958E-02 -7.156277195E-01
 4.275101572E-01 6.907678768E-02 -7.074834656E-01
 4.152560532E-01 6.902969629E-02 -6.899518203E-01
 4.031495154E-01 6.891737878E-02 -6.793735988E-01
 3.908902407E-01 6.873422489E-02 -6.574874584E-01
 3.788898736E-01 6.849266216E-02 -6.477967664E-01
 3.666668087E-01 6.818121299E-02 -6.344853322E-01
 3.538986444E-01 6.778850406E-02 -6.287559271E-01
 3.409900218E-01 6.731208041E-02 -6.050785076E-01
 3.286630809E-01 6.678834558E-02 -5.942249778E-01
 3.164885938E-01 6.620510668E-02 -5.812615205E-01
 3.033976853E-01 6.550157443E-02 -5.639684832E-01
 2.898517996E-01 6.469179690E-02 -5.479861864E-01
 2.768122554E-01 6.383740157E-02 -5.376369007E-01
 2.647507787E-01 6.297241524E-02 -5.241710477E-01
 2.525881305E-01 6.202614307E-02 -5.127290800E-01
 2.401572540E-01 6.097906269E-02 -4.960142231E-01
 2.278058305E-01 5.985479988E-02 -4.790010605E-01
 2.157426178E-01 5.867946148E-02 -4.656764992E-01
 2.039171681E-01 5.744583905E-02 -4.501674068E-01
 1.917390972E-01 5.608708598E-02 -4.322176809E-01
 1.794745699E-01 5.462854914E-02 -4.184377435E-01
 1.678018048E-01 5.314375460E-02 -4.003867144E-01
 1.560767889E-01 5.154868588E-02 -3.768381176E-01
 1.445488185E-01 4.988941737E-02 -3.660473816E-01
 1.330657452E-01 4.811847582E-02 -3.396985022E-01
 1.212838478E-01 4.617840424E-02 -3.174986282E-01
 1.102279536E-01 4.423709214E-02 -2.942623958E-01
 9.989389777E-02 4.230103455E-02 -2.755009469E-01
 8.920041844E-02 4.014907032E-02 -2.433960665E-01
 7.769124210E-02 3.765350394E-02 -2.069227261E-01
 6.691003032E-02 3.513027355E-02 -1.761357861E-01
 5.706513673E-02 3.261258267E-02 -1.393117284E-01
 8.884843066E-02 -3.263285570E-02 -2.617691017E-01
 9.925651178E-02 -3.428502753E-02 -2.703585423E-01
 1.102024503E-01 -3.591269255E-02 -2.804846007E-01
 1.215569675E-01 -3.749921918E-02 -2.924634867E-01
 1.328792498E-01 -3.898799047E-02 -3.065163515E-01
 1.439738870E-01 -4.036277905E-02 -3.152028381E-01
 1.555993110E-01 -4.172549583E-02 -3.292959637E-01
 1.674659848E-01 -4.303777963E-02 -3.436338997E-01
 1.793912277E-01 -4.428057745E-02 -3.560102010E-01
 1.910011172E-01 -4.542482086E-02 -3.751118136E-01
 2.021798417E-01 -4.645641707E-02 -3.890368435E-01
 2.140591666E-01 -4.747989215E-02 -4.017268351E-01
 2.268049046E-01 -4.850707576E-02 -4.193270832E-01
 2.396909073E-01 -4.946514592E-02 -4.445102713E-01
 2.521989718E-01 -5.030507408E-02 -4.601632349E-01
 2.641177177E-01 -5.103329197E-02 -4.775979908E-01
 2.762831599E-01 -5.169151723E-02 -4.988934622E-01
 2.891301066E-01 -5.229669809E-02 -5.138260524E-01
 3.018908054E-01 -5.280316435E-02 -5.365503148E-01
 3.143139929E-01 -5.320248753E-02 -5.519938431E-01
 3.267285824E-01 -5.350372568E-02 -5.761744248E-01
 3.386537880E-01 -5.369358882E-02 -5.942144050E-01
 3.499659598E-01 -5.376848020E-02 -5.996478220E-01
 3.611590862E-01 -5.375439674E-02 -5.933573127E-01
 3.721668571E-01 -5.365463160E-02 -6.040959310E-01
 3.835114241E-01 -5.345064215E-02 -5.974861501E-01
 3.959245235E-01 -5.310742371E-02 -5.828665140E-01
 4.089594483E-01 -5.262769014E-02 -5.647584899E-01
 4.218498617E-01 -5.201392621E-02 -5.539299840E-01
 4.345293194E-01 -5.126507021E-02 -5.087226697E-01
 4.465673566E-01 -5.045099184E-02 -4.782281185E-01
 4.581335783E-01 -4.955797270E-02 -4.525424771E-01
 4.700092971E-01 -4.853528924E-02 -4.013012894E-01
 4.818478674E-01 -4.744086787E-02 -3.741216525E-01
 4.939370751E-01 -4.623209313E-02 -3.383784298E-01
 5.071672797E-01 -4.481188022E-02 -2.969757344E-01
 5.207602978E-01 -4.327074066E-02 -2.563836945E-01
 5.342299640E-01 -4.166519083E-02 -2.201142190E-01
 5.472404957E-01 -4.005549662E-02 -1.801536387E-01
 5.602546036E-01 -3.840577789E-02 -1.508201641E-01
 5.734215975E-01 -3.668936342E-02 -1.172289122E-01
 5.858137012E-01 -3.505574353E-02 -8.662474666E-02
 5.979916453E-01 -3.342993185E-02 -6.658039236E-02
 6.114374697E-01 -3.160780575E-02 -3.211976235E-02
 6.260582507E-01 -2.963031270E-02 -6.407122975E-03
 6.410395205E-01 -2.759788558E-02 1.864734328E-02
 6.550712585E-01 -2.567902394E-02 4.506758774E-02
 6.682313681E-01 -2.388318535E-02 7.037656499E-02
 6.811304688E-01 -2.213208936E-02 9.191974413E-02
 6.935671568E-01 -2.046734001E-02 1.151093079E-01
 7.069565654E-01 -1.871643681E-02 1.294528360E-01
 7.206707001E-01 -1.694361400E-02 1.469412232E-01
 7.332954407E-01 -1.530818362E-02 1.663718772E-01
 7.459685504E-01 -1.368956221E-02 1.925205049E-01
 7.587084770E-01 -1.213104557E-02 2.063326557E-01
 7.712552249E-01 -1.062257774E-02 2.187818659E-01
 7.834559083E-01 -9.175228886E-03 2.443698178E-01
 7.957776189E-01 -7.795479149E-03 2.568692826E-01
 8.075953722E-01 -6.503484678E-03 2.709359241E-01
 8.188574016E-01 -5.328101572E-03 2.919720260E-01
 8.313483000E-01 -4.116616910E-03 3.005807274E-01
 8.440225422E-01 -2.950966940E-03 3.181945485E-01
 8.563499153E-01 -1.913804270E-03 3.329828427E-01
 8.682935536E-01 -1.007987710E-03 3.448416051E-01
 8.801074922E-01 -2.239081659E-04 3.566734347E-01
 8.928326666E-01 4.764471960E-04 3.624774391E-01
 9.047168195E-01 1.014297042E-03 3.710962774E-01
 9.150866568E-01 1.370467362E-03 3.728690606E-01
 9.441358745E-01 1.817632292E-03 3.719913427E-01
 9.558117390E-01 1.778058882E-03 3.692265784E-01
 9.688601792E-01 1.591604319E-03 3.658134226E-01
 9.818473756E-01 1.267123502E-03 3.699633069E-01
 9.938245118E-01 7.883792860E-04 4.012538344E-01
 -5.000000000E-01 9.500000000E-01 2.277256097E-02
 -5.000000000E-01 9.000000000E-01 3.433118917E-02
 -5.000000000E-01 8.500000000E-01 4.344468055E-02
 -5.000000000E-01 8.000000000E-01 5.118173008E-02
 -5.000000000E-01 7.500000000E-01 5.879689735E-02
 -5.000000000E-01 7.000000000E-01 6.635198548E-02
 -5.000000000E-01 6.500000000E-01 7.399801934E-02
 -5.000000000E-01 6.000000000E-01 8.181009122E-02
 -5.000000000E-01 5.500000000E-01 8.983457355E-02
 -5.000000000E-01 5.000000000E-01 9.814633725E-02
 -5.000000000E-01 4.500000000E-01 1.065092745E-01
 -5.000000000E-01 4.000000000E-01 1.149308284E-01
 -5.000000000E-01 3.500000000E-01 1.232695905E-01
 -5.000000000E-01 3.000000000E-01 1.311001447E-01
 -5.000000000E-01 2.500000000E-01 1.385112271E-01
 -5.000000000E-01 2.000000000E-01 1.449907318E-01
 -5.000000000E-01 1.500000000E-01 1.503974351E-01
 -5.000000000E-01 1.000000000E-01 1.544712856E-01
 -5.000000000E-01 5.000000000E-02 1.567808628E-01
 -5.000000000E-01 2.752242878E-12 1.577740185E-01
 -5.000000000E-01 -5.000000000E-02 1.569202558E-01
 -5.000000000E-01 -1.000000000E-01 1.544860040E-01
 -5.000000000E-01 -1.500000000E-01 1.504858162E-01
 -5.000000000E-01 -2.000000000E-01 1.452045375E-01
 -5.000000000E-01 -2.500000000E-01 1.389847182E-01
 -5.000000000E-01 -3.000000000E-01 1.318727175E-01
 -5.000000000E-01 -3.500000000E-01 1.242670745E-01
 -5.000000000E-01 -4.000000000E-01 1.163786091E-01
 -5.000000000E-01 -4.500000000E-01 1.083863737E-01
 -5.000000000E-01 -5.000000000E-01 1.002422376E-01
 -5.000000000E-01 -5.500000000E-01 9.236849509E-02
 -5.000000000E-01 -6.000000000E-01 8.454975256E-02
 -5.000000000E-01 -6.500000000E-01 7.695713459E-02
 -5.000000000E-01 -7.000000000E-01 6.934197556E-02
 -5.000000000E-01 -7.500000000E-01 6.182544783E-02
 -5.000000000E-01 -8.000000000E-01 5.407668604E-02
 -5.000000000E-01 -8.500000000E-01 4.607003515E-02
 -5.000000000E-01 -9.000000000E-01 3.657898643E-02
 -5.000000000E-01 -9.500000000E-01 2.426625296E-02
 -4.500000000E-01 -1.000000000E+00 2.010604310E-02
 -4.000000000E-01 -1.000000000E+00 2.987261877E-02
 -3.500000000E-01 -1.000000000E+00 3.609277571E-02
 -3.000000000E-01 -1.000000000E+00 4.008286656E-02
 -2.500000000E-01 -1.000000000E+00 4.257727352E-02
 -2.000000000E-01 -1.000000000E+00 4.376189984E-02
 -1.500000000E-01 -1.000000000E+00 4.348330006E-02
 -1.000000000E-01 -1.000000000E+00 4.177613397E-02
 -5.000000000E-02 -1.000000000E+00 3.871492807E-02
 -9.424683256E-13 -1.000000000E+00 3.432421913E-02
 5.000000000E-02 -1.000000000E+00 2.882164769E-02
 1.000000000E-01 -1.000000000E+00 2.234347693E-02
 1.500000000E-01 -1.000000000E+00 1.522827316E-02
 2.000000000E-01 -1.000000000E+00 7.662038204E-03
 2.500000000E-01 -1.000000000E+00 1.721393926E-04
 3.000000000E-01 -1.000000000E+00 -6.988892642E-03
 3.500000000E-01 -1.000000000E+00 -1.335882395E-02
 4.000000000E-01 -1.000000000E+00 -1.851051023E-02
 4.500000000E-01 -1.000000000E+00 -2.232769724E-02
 5.000000000E-01 -1.000000000E+00 -2.458900386E-02
 5.500000000E-01 -1.000000000E+00 -2.525563180E-02
 6.000000000E-01 -1.000000000E+00 -2.421012411E-02
 6.500000000E-01 -1.000000000E+00 -2.163117172E-02
 7.000000000E-01 -1.000000000E+00 -1.783406428E-02
 7.500000000E-01 -1.000000000E+00 -1.299839486E-02
 8.000000000E-01 -1.000000000E+00 -7.513370966E-03
 8.500000000E-01 -1.000000000E+00 -1.554714967E-03
 9.000000000E-01 -1.000000000E+00 4.608016720E-03
 9.500000000E-01 -1.000000000E+00 1.059391923E-02
 1.000000000E+00 -1.000000000E+00 1.619090856E-02
 1.050000000E+00 -1.000000000E+00 2.122846223E-02
 1.100000000E+00 -1.000000000E+00 2.567633200E-02
 1.150000000E+00 -1.000000000E+00 2.966254911E-02
 1.200000000E+00 -1.000000000E+00 3.286045004E-02
 1.250000000E+00 -1.000000000E+00 3.546388317E-02
 1.300000000E+00 -1.000000000E+00 3.740105113E-02
 1.350000000E+00 -1.000000000E+00 3.883199469E-02
 1.400000000E+00 -1.000000000E+00 3.973412588E-02
 1.450000000E+00 -1.000000000E+00 4.024861808E-02
 1.500000000E+00 -1.000000000E+00 4.038039709E-02
 1.550000000E+00 -1.000000000E+00 4.022357703E-02
 1.600000000E+00 -1.000000000E+00 3.982130941E-02
 1.650000000E+00 -1.000000000E+00 3.919245263E-02
 1.700000000E+00 -1.000000000E+00 3.843914044E-02
 1.750000000E+00 -1.000000000E+00 3.752563394E-02
 1.800000000E+00 -1.000000000E+00 3.653313218E-02
 1.850000000E+00 -1.000000000E+00 3.550680675E-02
 1.900000000E+00 -1.000000000E+00 3.440535656E-02
 1.950000000E+00 -1.000000000E+00 3.331884245E-02
 2.000000000E+00 -1.000000000E+00 3.221725532E-02
 2.050000000E+00 -1.000000000E+00 3.110721127E-02
 2.100000000E+00 -1.000000000E+00 3.000488017E-02
 2.150000000E+00 -1.000000000E+00 2.894816355E-02
 2.200000000E+00 -1.000000000E+00 2.790153533E-02
 2.250000000E+00 -1.000000000E+00 2.693172069E-02
 2.300000000E+00 -1.000000000E+00 2.595500883E-02
 2.350000000E+00 -1.000000000E+00 2.502634253E-02
 2.400000000E+00 -1.000000000E+00 2.417466217E-02
 2.450000000E+00 -1.000000000E+00 2.336673342E-02
 2.500000000E+00 -1.000000000E+00 2.262954405E-02
 2.550000000E+00 -1.000000000E+00 2.194930874E-02
 2.600000000E+00 -1.000000000E+00 2.124376738E-02
 2.650000000E+00 -1.000000000E+00 2.062227685E-02
 2.700000000E+00 -1.000000000E+00 2.004698908E-02
 2.750000000E+00 -1.000000000E+00 1.950348144E-02
 2.800000000E+00 -1.000000000E+00 1.902349778E-02
 2.850000000E+00 -1.000000000E+00 1.863037516E-02
 2.900000000E+00 -1.000000000E+00 1.818631915E-02
 2.950000000E+00 -1.000000000E+00 1.789787801E-02
 3.000000000E+00 -1.000000000E+00 1.752116628E-02
 3.050000000E+00 -1.000000000E+00 1.724783556E-02
 3.100000000E+00 -1.000000000E+00 1.692463498E-02
 3.150000000E+00 -1.000000000E+00 1.660896007E-02
 3.200000000E+00 -1.000000000E+00 1.628772646E-02
 3.250000000E+00 -1.000000000E+00 1.587292204E-02
 3.300000000E+00 -1.000000000E+00 1.536441917E-02
 3.350000000E+00 -1.000000000E+00 1.463256842E-02
 3.400000000E+00 -1.000000000E+00 1.336368297E-02
 3.450000000E+00 -1.000000000E+00 1.082638709E-02
 3.500000000E+00 -9.500000000E-01 5.636075157E-03
 3.500000000E+00 -9.000000000E-01 6.882557425E-03
 3.500000000E+00 -8.500000000E-01 8.142967983E-03
 3.500000000E+00 -8.000000000E-01 9.505369312E-03
 3.500000000E+00 -7.500000000E-01 1.079343780E-02
 3.500000000E+00 -7.000000000E-01 1.203954159E-02
 3.500000000E+00 -6.500000000E-01 1.331327677E-02
 3.500000000E+00 -6.000000000E-01 1.462140816E-02
 3.500000000E+00 -5.500000000E-01 1.600394739E-02
 3.500000000E+00 -5.000000000E-01 1.735128587E-02
 3.500000000E+00 -4.500000000E-01 1.869316875E-02
 3.500000000E+00 -4.000000000E-01 2.012067215E-02
 3.500000000E+00 -3.500000000E-01 2.151092140E-02
 3.500000000E+00 -3.000000000E-01 2.279839748E-02
 3.500000000E+00 -2.500000000E-01 2.391475660E-02
 3.500000000E+00 -2.000000000E-01 2.438436637E-02
 3.500000000E+00 -1.500000000E-01 2.428115281E-02
 3.500000000E+00 -1.000000000E-01 2.389362036E-02
 3.500000000E+00 -5.000000000E-02 2.366672586E-02
 3.500000000E+00 -2.752242878E-12 2.379116155E-02
 3.500000000E+00 5.000000000E-02 2.410132743E-02
 3.500000000E+00 1.000000000E-01 2.417587997E-02
 3.500000000E+00 1.500000000E-01 2.365780365E-02
 3.500000000E+00 2.000000000E-01 2.279829656E-02
 3.500000000E+00 2.500000000E-01 2.146158186E-02
 3.500000000E+00 3.000000000E-01 1.998723020E-02
 3.500000000E+00 3.500000000E-01 1.858045537E-02
 3.500000000E+00 4.000000000E-01 1.710431014E-02
 3.500000000E+00 4.500000000E-01 1.562368322E-02
 3.500000000E+00 5.000000000E-01 1.407300768E-02
 3.500000000E+00 5.500000000E-01 1.278523128E-02
 3.500000000E+00 6.000000000E-01 1.197807631E-02
 3.500000000E+00 6.500000000E-01 1.182305301E-02
 3.500000000E+00 7.000000000E-01 1.126171837E-02
 3.500000000E+00 7.500000000E-01 8.106941722E-03
 3.500000000E+00 8.000000000E-01 2.100593172E-03
 3.500000000E+00 8.500000000E-01 -7.952044213E-03
 3.500000000E+00 9.000000000E-01 -2.006089751E-02
 3.500000000E+00 9.500000000E-01 -3.355032416E-02
 3.450000000E+00 1.000000000E+00 -1.515421063E-02
 3.400000000E+00 1.000000000E+00 -5.584013910E-03
 3.350000000E+00 1.000000000E+00 -2.595289234E-03
 3.300000000E+00 1.000000000E+00 -1.735061953E-03
 3.250000000E+00 1.000000000E+00 -1.961818901E-03
 3.200000000E+00 1.000000000E+00 -2.325778496E-03
 3.150000000E+00 1.000000000E+00 -2.794457993E-03
 3.100000000E+00 1.000000000E+00 -3.616084314E-03
 3.050000000E+00 1.000000000E+00 -4.437759329E-03
 3.000000000E+00 1.000000000E+00 -5.292242851E-03
 2.950000000E+00 1.000000000E+00 -6.224865127E-03
 2.900000000E+00 1.000000000E+00 -7.453229577E-03
 2.850000000E+00 1.000000000E+00 -8.381441621E-03
 2.800000000E+00 1.000000000E+00 -9.419880947E-03
 2.750000000E+00 1.000000000E+00 -1.082171831E-02
 2.700000000E+00 1.000000000E+00 -1.155135924E-02
 2.650000000E+00 1.000000000E+00 -1.311438175E-02
 2.600000000E+00 1.000000000E+00 -1.422991419E-02
 2.550000000E+00 1.000000000E+00 -1.555239369E-02
 2.500000000E+00 1.000000000E+00 -1.708398610E-02
 2.450000000E+00 1.000000000E+00 -1.841995473E-02
 2.400000000E+00 1.000000000E+00 -1.998429712E-02
 2.350000000E+00 1.000000000E+00 -2.159460704E-02
 2.300000000E+00 1.000000000E+00 -2.315440805E-02
 2.250000000E+00 1.000000000E+00 -2.502276187E-02
 2.200000000E+00 1.000000000E+00 -2.699175087E-02
 2.150000000E+00 1.000000000E+00 -2.912195001E-02
 2.100000000E+00 1.000000000E+00 -3.125205767E-02
 2.050000000E+00 1.000000000E+00 -3.338434178E-02
 2.000000000E+00 1.000000000E+00 -3.591481032E-02
 1.950000000E+00 1.000000000E+00 -3.858557463E-02
 1.900000000E+00 1.000000000E+00 -4.127871548E-02
 1.850000000E+00 1.000000000E+00 -4.449878817E-02
 1.800000000E+00 1.000000000E+00 -4.809895021E-02
 1.750000000E+00 1.000000000E+00 -5.127875952E-02
 1.700000000E+00 1.000000000E+00 -5.576180133E-02
 1.650000000E+00 1.000000000E+00 -5.947125558E-02
 1.600000000E+00 1.000000000E+00 -6.437278497E-02
 1.550000000E+00 1.000000000E+00 -6.925567907E-02
 1.500000000E+00 1.000000000E+00 -7.487619139E-02
 1.450000000E+00 1.000000000E+00 -8.090572138E-02
 1.400000000E+00 1.000000000E+00 -8.736427864E-02
 1.350000000E+00 1.000000000E+00 -9.444331870E-02
 1.300000000E+00 1.000000000E+00 -1.017408263E-01
 1.250000000E+00 1.000000000E+00 -1.094782748E-01
 1.200000000E+00 1.000000000E+00 -1.177784878E-01
 1.150000000E+00 1.000000000E+00 -1.256383476E-01
 1.100000000E+00 1.000000000E+00 -1.341414623E-01
 1.050000000E+00 1.000000000E+00 -1.414413524E-01
 1.000000000E+00 1.000000000E+00 -1.484533031E-01
 9.500000000E-01 1.000000000E+00 -1.545319553E-01
 9.000000000E-01 1.000000000E+00 -1.589289976E-01
 8.500000000E-01 1.000000000E+00 -1.619050857E-01
 8.000000000E-01 1.000000000E+00 -1.624842566E-01
 7.500000000E-01 1.000000000E+00 -1.606978585E-01
 7.000000000E-01 1.000000000E+00 -1.564033145E-01
 6.500000000E-01 1.000000000E+00 -1.495846033E-01
 6.000000000E-01 1.000000000E+00 -1.404499727E-01
 5.500000000E-01 1.000000000E+00 -1.288623302E-01
 5.000000000E-01 1.000000000E+00 -1.159149957E-01
 4.500000000E-01 1.000000000E+00 -1.009897560E-01
 4.000000000E-01 1.000000000E+00 -8.607379616E-02
 3.500000000E-01 1.000000000E+00 -7.025097169E-02
 3.000000000E-01 1.000000000E+00 -5.435559956E-02
 2.500000000E-01 1.000000000E+00 -3.923696208E-02
 2.000000000E-01 1.000000000E+00 -2.455819235E-02
 1.500000000E-01 1.000000000E+00 -1.140392318E-02
 1.000000000E-01 1.000000000E+00 9.479761537E-04
 5.000000000E-02 1.000000000E+00 1.191349836E-02
 1.733724275E-12 1.000000000E+00 2.085425423E-02
 -5.000000000E-02 1.000000000E+00 2.793548443E-02
 -1.000000000E-01 1.000000000E+00 3.314850842E-02
 -1.500000000E-01 1.000000000E+00 3.662165368E-02
 -2.000000000E-01 1.000000000E+00 3.839558767E-02
 -2.500000000E-01 1.000000000E+00 3.828442316E-02
 -3.000000000E-01 1.000000000E+00 3.652352715E-02
 -3.500000000E-01 1.000000000E+00 3.325820004E-02
 -4.000000000E-01 1.000000000E+00 2.773522488E-02
 -4.500000000E-01 1.000000000E+00 1.873594479E-02
 9.847095514E-01 -3.643141380E-03 3.648167288E-01
 9.025081694E-01 -4.464469014E-03 3.612351110E-01
 8.284375396E-01 -1.003849986E-02 2.930693639E-01
 7.500917763E-01 -1.888561924E-02 1.928654457E-01
 6.789151520E-01 -2.782474378E-02 8.573143646E-02
 6.086018100E-01 -3.792044405E-02 -3.924975981E-02
 5.380788597E-01 -4.688136988E-02 -2.051382608E-01
 4.790958247E-01 -5.257858450E-02 -3.738879559E-01
 4.250283662E-01 -5.785329071E-02 -5.296861382E-01
 3.693942994E-01 -5.881119057E-02 -5.910989513E-01
 3.109444548E-01 -5.915568813E-02 -5.375892336E-01
 2.487146008E-01 -5.551175639E-02 -4.486244743E-01