TITLE     = "Visualization of the solution"
VARIABLES = "x"
"y"
"Pressure_Coefficient"
ZONE T="Zone"
 STRANDID=0, SOLUTIONTIME=0
 Nodes=11960, Elements=23341, ZONETYPE=FEQuadrilateral
 DATAPACKING=POINT
 DT=(DOUBLE DOUBLE DOUBLE )
 9.997157454E-01 5.351002910E-04 3.510455551E-01
 9.851539135E-01 3.292646259E-03 2.286813139E-01
 9.731718898E-01 5.587551743E-03 1.671627600E-01
 9.596297145E-01 8.246687241E-03 8.733289798E-02
 9.465783834E-01 1.066654734E-02 5.217791793E-02
 9.353516102E-01 1.275344193E-02 1.225615701E-02
 9.250012636E-01 1.465844084E-02 -2.315640915E-02
 9.137049317E-01 1.674092188E-02 -8.510683830E-02
 9.023308158E-01 1.865754649E-02 -9.299732565E-02
 8.905805349E-01 2.067834698E-02 -1.516889270E-01
 8.779931664E-01 2.262261510E-02 -1.525092305E-01
 8.660007715E-01 2.444522269E-02 -1.665783953E-01
 8.539981246E-01 2.627424896E-02 -2.126166714E-01
 8.420376778E-01 2.792712860E-02 -2.035090115E-01
 8.301777840E-01 2.956502512E-02 -2.174687953E-01
 8.171147704E-01 3.132797778E-02 -2.334238762E-01
 8.040761352E-01 3.305481747E-02 -2.567818073E-01
 7.920317054E-01 3.458287939E-02 -2.642855233E-01
 7.793028355E-01 3.614990041E-02 -2.668077385E-01
 7.672001719E-01 3.765806183E-02 -2.945222470E-01
 7.541486025E-01 3.922470286E-02 -3.108367173E-01
 7.402380109E-01 4.084374756E-02 -3.279373854E-01
 7.289602757E-01 4.212126881E-02 -3.402660586E-01
 7.171036005E-01 4.342941195E-02 -3.529450393E-01
 7.051078677E-01 4.474425316E-02 -3.794672821E-01
 6.911922097E-01 4.618048295E-02 -3.884401344E-01
 6.777570248E-01 4.755253717E-02 -4.189489820E-01
 6.664753556E-01 4.864053801E-02 -4.294014372E-01
 6.542875767E-01 4.978112131E-02 -4.489836794E-01
 6.430724859E-01 5.078884214E-02 -4.607605915E-01
 6.306177378E-01 5.185515434E-02 -4.794076891E-01
 6.190205216E-01 5.283319205E-02 -5.135592227E-01
 6.078239083E-01 5.368577689E-02 -5.143948044E-01
 5.952976346E-01 5.461145937E-02 -5.423615821E-01
 5.830386281E-01 5.545403436E-02 -5.591580244E-01
 5.689513087E-01 5.632739142E-02 -5.703910117E-01
 5.554937720E-01 5.710369349E-02 -5.888457709E-01
 5.420560241E-01 5.779102817E-02 -6.031185236E-01
 5.305468440E-01 5.832505971E-02 -6.258305448E-01
 5.182586312E-01 5.883686244E-02 -6.383085008E-01
 5.051272511E-01 5.927761644E-02 -6.388349700E-01
 4.942154884E-01 5.960567668E-02 -6.409561239E-01
 4.808374941E-01 5.991286039E-02 -6.368041519E-01
 4.679967165E-01 6.015409157E-02 -6.410659267E-01
 4.537827373E-01 6.032207236E-02 -6.356223391E-01
 4.396423101E-01 6.040894613E-02 -6.324866422E-01
 4.264437258E-01 6.040213630E-02 -6.229659186E-01
 4.131146073E-01 6.032680720E-02 -6.192687134E-01
 4.007486403E-01 6.018034741E-02 -6.026366720E-01
 3.875659108E-01 5.994857103E-02 -5.889189207E-01
 3.756299615E-01 5.968439579E-02 -5.866416494E-01
 3.645983338E-01 5.938598886E-02 -5.742796384E-01
 3.512046039E-01 5.894106999E-02 -5.584789474E-01
 3.390318751E-01 5.847929418E-02 -5.437076019E-01
 3.266737461E-01 5.793734267E-02 -5.317046210E-01
 3.167147636E-01 5.747639388E-02 -5.295400244E-01
 3.049257100E-01 5.685286224E-02 -5.139309486E-01
 2.924835086E-01 5.613658577E-02 -4.993300287E-01
 2.789512873E-01 5.527392775E-02 -4.819552510E-01
 2.666167319E-01 5.442665145E-02 -4.711819727E-01
 2.547575831E-01 5.355216190E-02 -4.603551094E-01
 2.424819916E-01 5.257487670E-02 -4.456819919E-01
 2.297569513E-01 5.148782581E-02 -4.291058398E-01
 2.178008705E-01 5.039579794E-02 -4.129605746E-01
 2.061663419E-01 4.928768426E-02 -4.085436612E-01
 1.947506815E-01 4.811311886E-02 -3.872010724E-01
 1.824771911E-01 4.679024965E-02 -3.757763685E-01
 1.707385629E-01 4.545142129E-02 -3.634313044E-01
 1.589810103E-01 4.402774945E-02 -3.474939809E-01
 1.472639441E-01 4.253229871E-02 -3.354482668E-01
 1.364567727E-01 4.106850177E-02 -3.180378712E-01
 1.253085732E-01 3.948669508E-02 -3.060934318E-01
 1.141196042E-01 3.779852763E-02 -2.898908177E-01
 1.034259796E-01 3.609967977E-02 -2.746635981E-01
 9.385129064E-02 3.448842838E-02 -2.634689973E-01
 8.308960497E-02 3.256389126E-02 -2.463300644E-01
 7.170610875E-02 3.037919104E-02 -2.273844475E-01
 6.212599203E-02 2.840595134E-02 -2.124944406E-01
 5.286322162E-02 2.634515427E-02 -1.952443873E-01
 4.400188103E-02 2.419624291E-02 -1.780544951E-01
 3.613148630E-02 2.211204171E-02 -1.566789858E-01
 2.941524424E-02 2.014949359E-02 -1.354871517E-01
 2.365821414E-02 1.829404198E-02 -1.186122457E-01
 1.940059476E-02 1.678078622E-02 -8.709666420E-02
 1.543371938E-02 1.521831192E-02 -6.372806113E-02
 1.262945961E-02 1.400694810E-02 -3.790003020E-02
 1.019782480E-02 1.285238285E-02 -1.123152951E-02
 8.408578113E-03 1.192016155E-02 2.106554610E-02
 6.744417362E-03 1.097500138E-02 5.471396753E-02
 5.184848793E-03 9.994124994E-03 1.255514553E-01
 3.224886721E-03 8.592833765E-03 2.103388345E-01
 1.567331841E-03 7.168225013E-03 3.313658635E-01
 1.847382082E-04 5.683882628E-03 5.293101319E-01
 -1.155360602E-03 3.681111615E-03 7.642343960E-01
 -1.820360194E-03 2.067958238E-03 9.550938651E-01
 -2.112793038E-03 7.502879016E-04 1.090478757E+00
 -2.176355803E-03 -9.171019192E-04 1.176791485E+00
 -1.838466851E-03 -2.969443798E-03 1.188010012E+00
 -9.495393024E-04 -5.282852333E-03 1.102168706E+00
 5.766703398E-04 -7.805501111E-03 9.586738986E-01
 2.729363507E-03 -1.041558757E-02 7.935753012E-01
 4.707127344E-03 -1.237686444E-02 6.606230358E-01
 7.013919763E-03 -1.435222942E-02 5.609129927E-01
 8.729222231E-03 -1.567488536E-02 4.675228441E-01
 1.081956271E-02 -1.715221256E-02 4.070551473E-01
 1.331308112E-02 -1.876829751E-02 3.342945611E-01
 1.655892469E-02 -2.068770491E-02 2.561632633E-01
 1.981021278E-02 -2.244163491E-02 1.804079156E-01
 2.390154451E-02 -2.446324192E-02 1.156949302E-01
 2.934967913E-02 -2.689506114E-02 5.009066130E-02
 3.501730040E-02 -2.918691933E-02 -2.053909830E-02
 4.209085554E-02 -3.177294880E-02 -7.414991749E-02
 4.948717356E-02 -3.421902657E-02 -1.275420760E-01
 5.801497027E-02 -3.679436445E-02 -1.698917319E-01
 6.654897332E-02 -3.914064169E-02 -2.099087479E-01
 7.690541446E-02 -4.175553098E-02 -2.465201789E-01
 8.651552349E-02 -4.398731887E-02 -2.718118181E-01
 9.724155813E-02 -4.628527537E-02 -3.057544652E-01
 1.082733870E-01 -4.847584292E-02 -3.297570986E-01
 1.201767027E-01 -5.066348985E-02 -3.512586816E-01
 1.315956861E-01 -5.262874067E-02 -3.811474060E-01
 1.418956220E-01 -5.427564681E-02 -4.001033084E-01
 1.529480815E-01 -5.594512448E-02 -4.216207988E-01
 1.645121723E-01 -5.757398158E-02 -4.431410324E-01
 1.758924872E-01 -5.907112733E-02 -4.622856511E-01
 1.874004751E-01 -6.048551947E-02 -4.808131941E-01
 1.976698935E-01 -6.167859584E-02 -5.098326244E-01
 2.085894644E-01 -6.285507232E-02 -5.308829004E-01
 2.205932885E-01 -6.404866278E-02 -5.500762708E-01
 2.323493659E-01 -6.511522830E-02 -5.666860523E-01
 2.441154867E-01 -6.610938907E-02 -5.991621637E-01
 2.563437223E-01 -6.703212112E-02 -6.315428839E-01
 2.675194740E-01 -6.777127087E-02 -6.477387822E-01
 2.802108526E-01 -6.852665544E-02 -6.774867886E-01
 2.924390435E-01 -6.912310421E-02 -7.062718125E-01
 3.051869273E-01 -6.964619458E-02 -7.348595245E-01
 3.167712390E-01 -6.999903917E-02 -7.697890162E-01
 3.289917111E-01 -7.026179135E-02 -7.945819783E-01
 3.392991424E-01 -7.038892806E-02 -8.166012479E-01
 3.507711291E-01 -7.044399530E-02 -8.370688906E-01
 3.619225919E-01 -7.038408518E-02 -8.738868911E-01
 3.726738095E-01 -7.020179927E-02 -8.917054071E-01
 3.846051395E-01 -6.992023438E-02 -9.149832642E-01
 3.970878124E-01 -6.946224719E-02 -9.462965610E-01
 4.091597199E-01 -6.887406856E-02 -9.682291156E-01
 4.223634899E-01 -6.811515987E-02 -1.009611453E+00
 4.348762929E-01 -6.723517925E-02 -6.981944682E-01
 4.483951628E-01 -6.614688039E-02 -4.402327259E-01
 4.613260031E-01 -6.497292966E-02 -5.104306392E-01
 4.738016725E-01 -6.371055543E-02 -4.912589096E-01
 4.860916436E-01 -6.236065924E-02 -4.431362589E-01
 4.982343316E-01 -6.096218154E-02 -4.197977141E-01
 5.117424726E-01 -5.927161872E-02 -3.734970485E-01
 5.251890421E-01 -5.749514326E-02 -3.289327599E-01
 5.377991796E-01 -5.575981736E-02 -2.914450937E-01
 5.516285896E-01 -5.377608910E-02 -2.471622112E-01
 5.644627213E-01 -5.189711601E-02 -2.154304173E-01
 5.779232383E-01 -4.988494143E-02 -1.874696468E-01
 5.908448100E-01 -4.785690829E-02 -1.395417521E-01
 6.035758257E-01 -4.587911814E-02 -1.142199250E-01
 6.163901091E-01 -4.387336969E-02 -9.083340215E-02
 6.300129294E-01 -4.168792069E-02 -5.519966622E-02
 6.433271170E-01 -3.956320882E-02 -3.096452623E-02
 6.567794681E-01 -3.741133586E-02 -7.451230376E-03
 6.703881621E-01 -3.520353138E-02 2.343712190E-02
 6.831331253E-01 -3.316887096E-02 4.008259039E-02
 6.956650615E-01 -3.114603460E-02 6.487657561E-02
 7.105777860E-01 -2.873718366E-02 9.400591694E-02
 7.237794995E-01 -2.664137073E-02 1.127479493E-01
 7.353752851E-01 -2.481733076E-02 1.281974500E-01
 7.477914095E-01 -2.282143757E-02 1.613362909E-01
 7.612387538E-01 -2.076514624E-02 1.713349739E-01
 7.741234899E-01 -1.874827966E-02 2.063734408E-01
 7.868179679E-01 -1.689517125E-02 2.097824941E-01
 7.995594144E-01 -1.500433497E-02 2.347573682E-01
 8.103497028E-01 -1.340882108E-02 2.615602913E-01
 8.215242028E-01 -1.185062900E-02 2.734067437E-01
 8.333467841E-01 -1.023057848E-02 2.958835572E-01
 8.456651568E-01 -8.649367839E-03 3.072770478E-01
 8.573815823E-01 -7.161819842E-03 3.348057614E-01
 8.684046268E-01 -5.874524359E-03 3.504195808E-01
 8.801645637E-01 -4.633551463E-03 3.595166385E-01
 8.926070929E-01 -3.407421755E-03 3.776810544E-01
 9.027143121E-01 -2.540762536E-03 3.844993466E-01
 9.128462672E-01 -1.745216898E-03 3.976173275E-01
 9.227545857E-01 -1.096438966E-03 4.010228136E-01
 9.326951504E-01 -5.607718485E-04 4.057643917E-01
 9.456294775E-01 -2.144204518E-05 4.060779279E-01
 9.600966573E-01 3.883873287E-04 4.084957468E-01
 9.757801890E-01 5.989274359E-04 4.136511963E-01
 9.893910885E-01 5.983032170E-04 4.326019541E-01
 -5.000000000E-01 -1.000000000E+00 1.577455745E-02
 3.500000000E+00 -1.000000000E+00 4.087340168E-03
 3.500000000E+00 1.000000000E+00 -1.973819724E-02
 -5.000000000E-01 1.000000000E+00 1.466661832E-02
 9.924348295E-01 1.913873275E-03 3.146921988E-01
 9.791629016E-01 4.440099001E-03 1.990050858E-01
 9.664008021E-01 6.917119492E-03 1.208259253E-01
 9.531040490E-01 9.456617292E-03 7.046852917E-02
 9.409649968E-01 1.170999464E-02 3.148410347E-02
 9.301764369E-01 1.370594138E-02 -1.986397397E-03
 9.193530977E-01 1.569968136E-02 -6.335508595E-02
 9.080178738E-01 1.769923419E-02 -8.034825855E-02
 8.964556754E-01 1.966794673E-02 -1.318157990E-01
 8.842868507E-01 2.165048104E-02 -1.501215094E-01
 8.719969690E-01 2.353391889E-02 -1.537661675E-01
 8.599994481E-01 2.535973582E-02 -1.986280855E-01
 8.480179012E-01 2.710068878E-02 -2.039316028E-01
 8.361077309E-01 2.874607686E-02 -2.103415915E-01
 8.236462772E-01 3.044650145E-02 -2.243328742E-01
 8.105954528E-01 3.219139762E-02 -2.465353579E-01
 7.980539203E-01 3.381884843E-02 -2.623311653E-01
 7.856672704E-01 3.536638990E-02 -2.611958707E-01
 7.732515037E-01 3.690398112E-02 -2.825948734E-01
 7.606743872E-01 3.844138235E-02 -3.031795723E-01
 7.471933067E-01 4.003422521E-02 -3.187229036E-01
 7.345991433E-01 4.148250818E-02 -3.353332749E-01
 7.230319381E-01 4.277534038E-02 -3.430943192E-01
 7.111057341E-01 4.408683255E-02 -3.716963777E-01
 6.981500387E-01 4.546236806E-02 -3.798540852E-01
 6.844746172E-01 4.686651006E-02 -4.059618908E-01
 6.721161902E-01 4.809653759E-02 -4.236031636E-01
 6.603814662E-01 4.921082966E-02 -4.387088490E-01
 6.486800313E-01 5.028498173E-02 -4.570795112E-01
 6.368451118E-01 5.132199824E-02 -4.642667942E-01
 6.248191297E-01 5.234417319E-02 -5.031941728E-01
 6.134222150E-01 5.325948447E-02 -5.106883048E-01
 6.015607715E-01 5.414861813E-02 -5.277009333E-01
 5.891681314E-01 5.503274687E-02 -5.546150400E-01
 5.759949684E-01 5.589071289E-02 -5.618755698E-01
 5.622225404E-01 5.671554245E-02 -5.815854346E-01
 5.487748981E-01 5.744736083E-02 -5.940042098E-01
 5.363014340E-01 5.805804394E-02 -6.134935767E-01
 5.244027376E-01 5.858096108E-02 -6.380660055E-01
 5.116929412E-01 5.905723944E-02 -6.335848553E-01
 4.996713698E-01 5.944164656E-02 -6.454730757E-01
 4.875264913E-01 5.975926854E-02 -6.349331202E-01
 4.744171053E-01 6.003347598E-02 -6.423240303E-01
 4.608897269E-01 6.023808196E-02 -6.371326248E-01
 4.467125237E-01 6.036550924E-02 -6.354559880E-01
 4.330430180E-01 6.040554121E-02 -6.263535639E-01
 4.197791666E-01 6.036447175E-02 -6.219583957E-01
 4.069316238E-01 6.025357731E-02 -6.125183825E-01
 3.941572756E-01 6.006445922E-02 -5.933169251E-01
 3.815979362E-01 5.981648341E-02 -5.872140636E-01
 3.701141477E-01 5.953519233E-02 -5.838647975E-01
 3.579014689E-01 5.916352943E-02 -5.643612670E-01
 3.451182395E-01 5.871018209E-02 -5.531120268E-01
 3.328528106E-01 5.820831843E-02 -5.329736329E-01
 3.108202368E-01 5.716462806E-02 -5.214614712E-01
 2.987046093E-01 5.649472401E-02 -5.082454020E-01
 2.857173979E-01 5.570525676E-02 -4.894507924E-01
 2.727840096E-01 5.485028960E-02 -4.757122082E-01
 2.606871575E-01 5.398940668E-02 -4.666887389E-01
 2.486197874E-01 5.306351930E-02 -4.533655389E-01
 2.361194715E-01 5.203135125E-02 -4.379213584E-01
 2.237789109E-01 5.094181187E-02 -4.181881746E-01
 2.119836062E-01 4.984174110E-02 -4.133456278E-01
 2.004585117E-01 4.870040156E-02 -3.970888329E-01
 1.886139363E-01 4.745168425E-02 -3.811516494E-01
 1.766078770E-01 4.612083547E-02 -3.704801747E-01
 1.648597866E-01 4.473958537E-02 -3.548696610E-01
 1.531224772E-01 4.328002408E-02 -3.419885943E-01
 1.418603584E-01 4.180040024E-02 -3.257374154E-01
 1.308826730E-01 4.027759843E-02 -3.135296227E-01
 1.197140887E-01 3.864261135E-02 -2.964925235E-01
 1.087727919E-01 3.694910370E-02 -2.848728450E-01
 8.847044781E-02 3.352615982E-02 -2.568099281E-01
 7.739785686E-02 3.147154115E-02 -2.376724164E-01
 7.172719389E-02 -4.044808634E-02 -2.316505603E-01
 9.187854081E-02 -4.513629712E-02 -2.947228490E-01
 1.027574725E-01 -4.738055915E-02 -3.172576970E-01
 1.142250448E-01 -4.956966639E-02 -3.408377124E-01
 1.258861944E-01 -5.164611526E-02 -3.660424082E-01
 1.367456540E-01 -5.345219374E-02 -3.942218524E-01
 1.474218518E-01 -5.511038564E-02 -4.083203710E-01
 1.587301269E-01 -5.675955303E-02 -4.331572543E-01
 1.702023298E-01 -5.832255445E-02 -4.533108885E-01
 1.816464812E-01 -5.977832340E-02 -4.714869904E-01
 1.925351843E-01 -6.108205765E-02 -4.947066851E-01
 2.031296790E-01 -6.226683408E-02 -5.212285592E-01
 2.145913765E-01 -6.345186755E-02 -5.398825484E-01
 2.264713272E-01 -6.458194554E-02 -5.594644605E-01
 2.382324263E-01 -6.561230868E-02 -5.792566015E-01
 2.502296045E-01 -6.657075509E-02 -6.168695391E-01
 2.619315982E-01 -6.740169600E-02 -6.429802060E-01
 2.738651633E-01 -6.814896315E-02 -6.562389504E-01
 2.863249481E-01 -6.882487983E-02 -6.967452582E-01
 2.988129854E-01 -6.938464940E-02 -7.163345404E-01
 3.109790832E-01 -6.982261688E-02 -7.552897697E-01
 3.228814751E-01 -7.013041526E-02 -7.817834531E-01
 3.341454268E-01 -7.032535970E-02 -8.086972967E-01
 3.450351357E-01 -7.041646168E-02 -8.229591894E-01
 3.563468605E-01 -7.041404024E-02 -8.547655969E-01
 3.672982007E-01 -7.029294223E-02 -8.885370302E-01
 3.786394745E-01 -7.006101683E-02 -8.959588492E-01
 3.908464760E-01 -6.969124079E-02 -9.332905225E-01
 4.031237662E-01 -6.916815788E-02 -9.574190851E-01
 4.157616049E-01 -6.849461421E-02 -9.908467197E-01
 4.286198914E-01 -6.767516956E-02 -9.391892855E-01
 4.416357279E-01 -6.669102982E-02 -4.866319282E-01
 4.548605829E-01 -6.555990502E-02 -4.756953250E-01
 4.675638378E-01 -6.434174255E-02 -5.128888914E-01
 4.799466580E-01 -6.303560734E-02 -4.659672453E-01
 4.921629876E-01 -6.166142039E-02 -4.291879782E-01
 5.049884021E-01 -6.011690013E-02 -4.001387704E-01
 5.184657574E-01 -5.838338099E-02 -3.502865449E-01
 5.314941108E-01 -5.662748031E-02 -3.102687818E-01
 5.447138846E-01 -5.476795323E-02 -2.697869799E-01
 5.580456555E-01 -5.283660255E-02 -2.298121268E-01
 5.711929798E-01 -5.089102872E-02 -2.009462061E-01
 5.843840241E-01 -4.887092486E-02 -1.670131347E-01
 5.972103179E-01 -4.686801322E-02 -1.233982170E-01
 6.099829674E-01 -4.487624392E-02 -1.027223460E-01
 6.232015193E-01 -4.278064519E-02 -7.471425959E-02
 6.366700232E-01 -4.062556475E-02 -4.146335580E-02
 6.500532925E-01 -3.848727234E-02 -1.910350191E-02
 6.635838151E-01 -3.630743362E-02 6.704474072E-03
 6.767606437E-01 -3.418620117E-02 3.377951755E-02
 6.893990934E-01 -3.215745278E-02 5.096495032E-02
 7.031214237E-01 -2.994160913E-02 7.880010321E-02
 7.171786427E-01 -2.768927719E-02 1.050951269E-01
 7.295773923E-01 -2.572935075E-02 1.208026060E-01
 7.415833473E-01 -2.381938417E-02 1.416590862E-01
 7.545150816E-01 -2.179329190E-02 1.691398339E-01
 7.676811218E-01 -1.975671295E-02 1.848964332E-01
 7.804707289E-01 -1.782172546E-02 2.129068789E-01
 7.931886911E-01 -1.594975311E-02 2.197673869E-01
 8.049545586E-01 -1.420657802E-02 2.470925680E-01
 8.159369528E-01 -1.262972504E-02 2.692268362E-01
 8.274354935E-01 -1.104060374E-02 2.831988638E-01
 8.395059705E-01 -9.439973161E-03 3.029227783E-01
 8.515233696E-01 -7.905593840E-03 3.187888827E-01
 8.628931046E-01 -6.518172100E-03 3.437078673E-01
 8.742845953E-01 -5.254037911E-03 3.554889759E-01
 8.863858283E-01 -4.020486609E-03 3.667704628E-01
 8.976607025E-01 -2.974092145E-03 3.840497645E-01
 9.077802896E-01 -2.142989717E-03 3.901452942E-01
 9.391623139E-01 -2.911069469E-04 4.049662039E-01
 9.528630674E-01 1.834726418E-04 4.062173891E-01
 9.679384232E-01 4.936573823E-04 4.097592612E-01
 9.825856388E-01 5.986153265E-04 4.224834567E-01
 9.945534170E-01 5.667017540E-04 4.870534645E-01
 -5.000000000E-01 9.500000000E-01 2.394227387E-02
 -5.000000000E-01 9.000000000E-01 3.625773017E-02
 -5.000000000E-01 8.500000000E-01 4.553712374E-02
 -5.000000000E-01 8.000000000E-01 5.382774975E-02
 -5.000000000E-01 7.500000000E-01 6.176000299E-02
 -5.000000000E-01 7.000000000E-01 6.963020294E-02
 -5.000000000E-01 6.500000000E-01 7.749460494E-02
 -5.000000000E-01 6.000000000E-01 8.572235791E-02
 -5.000000000E-01 5.500000000E-01 9.406224513E-02
 -5.000000000E-01 5.000000000E-01 1.027494283E-01
 -5.000000000E-01 4.500000000E-01 1.116033476E-01
 -5.000000000E-01 4.000000000E-01 1.204452545E-01
 -5.000000000E-01 3.500000000E-01 1.293287073E-01
 -5.000000000E-01 3.000000000E-01 1.378800932E-01
 -5.000000000E-01 2.500000000E-01 1.458709401E-01
 -5.000000000E-01 2.000000000E-01 1.530789737E-01
 -5.000000000E-01 1.500000000E-01 1.592698325E-01
 -5.000000000E-01 1.000000000E-01 1.640606788E-01
 -5.000000000E-01 5.000000000E-02 1.672726577E-01
 -5.000000000E-01 2.752242878E-12 1.686972652E-01
 -5.000000000E-01 -5.000000000E-02 1.683637455E-01
 -5.000000000E-01 -1.000000000E-01 1.662148741E-01
 -5.000000000E-01 -1.500000000E-01 1.622928190E-01
 -5.000000000E-01 -2.000000000E-01 1.568439504E-01
 -5.000000000E-01 -2.500000000E-01 1.503351947E-01
 -5.000000000E-01 -3.000000000E-01 1.427328676E-01
 -5.000000000E-01 -3.500000000E-01 1.344921432E-01
 -5.000000000E-01 -4.000000000E-01 1.258655340E-01
 -5.000000000E-01 -4.500000000E-01 1.170552823E-01
 -5.000000000E-01 -5.000000000E-01 1.081533915E-01
 -5.000000000E-01 -5.500000000E-01 9.939511982E-02
 -5.000000000E-01 -6.000000000E-01 9.074813028E-02
 -5.000000000E-01 -6.500000000E-01 8.238895633E-02
 -5.000000000E-01 -7.000000000E-01 7.404882042E-02
 -5.000000000E-01 -7.500000000E-01 6.590067342E-02
 -5.000000000E-01 -8.000000000E-01 5.751355581E-02
 -5.000000000E-01 -8.500000000E-01 4.874620949E-02
 -5.000000000E-01 -9.000000000E-01 3.881079751E-02
 -5.000000000E-01 -9.500000000E-01 2.566208436E-02
 -4.500000000E-01 -1.000000000E+00 2.124728346E-02
 -4.000000000E-01 -1.000000000E+00 3.149294560E-02
 -3.500000000E-01 -1.000000000E+00 3.790379655E-02
 -3.000000000E-01 -1.000000000E+00 4.183278123E-02
 -2.500000000E-01 -1.000000000E+00 4.412359658E-02
 -2.000000000E-01 -1.000000000E+00 4.470970051E-02
 -1.500000000E-01 -1.000000000E+00 4.356022958E-02
 -1.000000000E-01 -1.000000000E+00 4.068511775E-02
 -5.000000000E-02 -1.000000000E+00 3.607675142E-02
 -9.424683256E-13 -1.000000000E+00 2.968682163E-02
 5.000000000E-02 -1.000000000E+00 2.177109533E-02
 1.000000000E-01 -1.000000000E+00 1.236887491E-02
 1.500000000E-01 -1.000000000E+00 1.957341420E-03
 2.000000000E-01 -1.000000000E+00 -9.131259719E-03
 2.500000000E-01 -1.000000000E+00 -2.046136989E-02
 3.000000000E-01 -1.000000000E+00 -3.166403475E-02
 3.500000000E-01 -1.000000000E+00 -4.190035283E-02
 4.000000000E-01 -1.000000000E+00 -5.076874784E-02
 4.500000000E-01 -1.000000000E+00 -5.762233029E-02
 5.000000000E-01 -1.000000000E+00 -6.263905180E-02
 5.500000000E-01 -1.000000000E+00 -6.519659963E-02
 6.000000000E-01 -1.000000000E+00 -6.557064545E-02
 6.500000000E-01 -1.000000000E+00 -6.352648213E-02
 7.000000000E-01 -1.000000000E+00 -5.992172401E-02
 7.500000000E-01 -1.000000000E+00 -5.399923621E-02
 8.000000000E-01 -1.000000000E+00 -4.769764536E-02
 8.500000000E-01 -1.000000000E+00 -4.007229385E-02
 9.000000000E-01 -1.000000000E+00 -3.220153741E-02
 9.500000000E-01 -1.000000000E+00 -2.415486244E-02
 1.000000000E+00 -1.000000000E+00 -1.658570572E-02
 1.050000000E+00 -1.000000000E+00 -9.303951863E-03
 1.100000000E+00 -1.000000000E+00 -2.787118462E-03
 1.150000000E+00 -1.000000000E+00 3.068735053E-03
 1.200000000E+00 -1.000000000E+00 8.091350547E-03
 1.250000000E+00 -1.000000000E+00 1.224261617E-02
 1.300000000E+00 -1.000000000E+00 1.585786752E-02
 1.350000000E+00 -1.000000000E+00 1.862971941E-02
 1.400000000E+00 -1.000000000E+00 2.094298169E-02
 1.450000000E+00 -1.000000000E+00 2.258937728E-02
 1.500000000E+00 -1.000000000E+00 2.383015979E-02
 1.550000000E+00 -1.000000000E+00 2.473117313E-02
 1.600000000E+00 -1.000000000E+00 2.520981445E-02
 1.650000000E+00 -1.000000000E+00 2.560757193E-02
 1.700000000E+00 -1.000000000E+00 2.543864863E-02
 1.750000000E+00 -1.000000000E+00 2.544357034E-02
 1.800000000E+00 -1.000000000E+00 2.516566400E-02
 1.850000000E+00 -1.000000000E+00 2.468056016E-02
 1.900000000E+00 -1.000000000E+00 2.426612186E-02
 1.950000000E+00 -1.000000000E+00 2.366498396E-02
 2.000000000E+00 -1.000000000E+00 2.310824988E-02
 2.050000000E+00 -1.000000000E+00 2.248731578E-02
 2.100000000E+00 -1.000000000E+00 2.191107831E-02
 2.150000000E+00 -1.000000000E+00 2.130301783E-02
 2.200000000E+00 -1.000000000E+00 2.069002137E-02
 2.250000000E+00 -1.000000000E+00 2.010002043E-02
 2.300000000E+00 -1.000000000E+00 1.952975681E-02
 2.350000000E+00 -1.000000000E+00 1.898146765E-02
 2.400000000E+00 -1.000000000E+00 1.848927487E-02
 2.450000000E+00 -1.000000000E+00 1.798286273E-02
 2.500000000E+00 -1.000000000E+00 1.755328132E-02
 2.550000000E+00 -1.000000000E+00 1.709329357E-02
 2.600000000E+00 -1.000000000E+00 1.683573948E-02
 2.650000000E+00 -1.000000000E+00 1.639321262E-02
 2.700000000E+00 -1.000000000E+00 1.613738900E-02
 2.750000000E+00 -1.000000000E+00 1.585642803E-02
 2.800000000E+00 -1.000000000E+00 1.557348040E-02
 2.850000000E+00 -1.000000000E+00 1.541823136E-02
 2.900000000E+00 -1.000000000E+00 1.523695777E-02
 2.950000000E+00 -1.000000000E+00 1.510311102E-02
 3.000000000E+00 -1.000000000E+00 1.493957225E-02
 3.050000000E+00 -1.000000000E+00 1.496798803E-02
 3.100000000E+00 -1.000000000E+00 1.476037252E-02
 3.150000000E+00 -1.000000000E+00 1.472347572E-02
 3.200000000E+00 -1.000000000E+00 1.451430136E-02
 3.250000000E+00 -1.000000000E+00 1.429258509E-02
 3.300000000E+00 -1.000000000E+00 1.390551088E-02
 3.350000000E+00 -1.000000000E+00 1.340005007E-02
 3.400000000E+00 -1.000000000E+00 1.205908513E-02
 3.450000000E+00 -1.000000000E+00 8.855038399E-03
 3.500000000E+00 -9.500000000E-01 2.313958326E-03
 3.500000000E+00 -9.000000000E-01 5.163549231E-03
 3.500000000E+00 -8.500000000E-01 7.987430805E-03
 3.500000000E+00 -8.000000000E-01 9.900333746E-03
 3.500000000E+00 -7.500000000E-01 1.130287758E-02
 3.500000000E+00 -7.000000000E-01 1.253707109E-02
 3.500000000E+00 -6.500000000E-01 1.377823829E-02
 3.500000000E+00 -6.000000000E-01 1.514667424E-02
 3.500000000E+00 -5.500000000E-01 1.662906879E-02
 3.500000000E+00 -5.000000000E-01 1.818407432E-02
 3.500000000E+00 -4.500000000E-01 1.978179196E-02
 3.500000000E+00 -4.000000000E-01 2.129446787E-02
 3.500000000E+00 -3.500000000E-01 2.286803111E-02
 3.500000000E+00 -3.000000000E-01 2.431316624E-02
 3.500000000E+00 -2.500000000E-01 2.540694437E-02
 3.500000000E+00 -2.000000000E-01 2.595147629E-02
 3.500000000E+00 -1.500000000E-01 2.586133863E-02
 3.500000000E+00 -1.000000000E-01 2.541982014E-02
 3.500000000E+00 -5.000000000E-02 2.513430743E-02
 3.500000000E+00 -2.752242878E-12 2.533670166E-02
 3.500000000E+00 5.000000000E-02 2.577036536E-02
 3.500000000E+00 1.000000000E-01 2.600928473E-02
 3.500000000E+00 1.500000000E-01 2.576193050E-02
 3.500000000E+00 2.000000000E-01 2.461491262E-02
 3.500000000E+00 2.500000000E-01 2.314966648E-02
 3.500000000E+00 3.000000000E-01 2.159964707E-02
 3.500000000E+00 3.500000000E-01 2.001772179E-02
 3.500000000E+00 4.000000000E-01 1.848415953E-02
 3.500000000E+00 4.500000000E-01 1.694391683E-02
 3.500000000E+00 5.000000000E-01 1.535930429E-02
 3.500000000E+00 5.500000000E-01 1.388400270E-02
 3.500000000E+00 6.000000000E-01 1.275485319E-02
 3.500000000E+00 6.500000000E-01 1.217213377E-02
 3.500000000E+00 7.000000000E-01 1.140469351E-02
 3.500000000E+00 7.500000000E-01 9.843525572E-03
 3.500000000E+00 8.000000000E-01 5.956645435E-03
 3.500000000E+00 8.500000000E-01 -1.456024040E-03
 3.500000000E+00 9.000000000E-01 -1.093325910E-02
 3.500000000E+00 9.500000000E-01 -2.227150348E-02
 3.450000000E+00 1.000000000E+00 -8.300173663E-03
 3.400000000E+00 1.000000000E+00 -7.799147792E-04
 3.350000000E+00 1.000000000E+00 1.510245069E-03
 3.300000000E+00 1.000000000E+00 1.738292034E-03
 3.250000000E+00 1.000000000E+00 1.748787765E-03
 3.200000000E+00 1.000000000E+00 1.137458503E-03
 3.150000000E+00 1.000000000E+00 5.530138112E-04
 3.100000000E+00 1.000000000E+00 -1.162366912E-04
 3.050000000E+00 1.000000000E+00 -9.410816049E-04
 3.000000000E+00 1.000000000E+00 -1.750310559E-03
 2.950000000E+00 1.000000000E+00 -2.563786717E-03
 2.900000000E+00 1.000000000E+00 -3.365647582E-03
 2.850000000E+00 1.000000000E+00 -4.235076632E-03
 2.800000000E+00 1.000000000E+00 -5.227480723E-03
 2.750000000E+00 1.000000000E+00 -6.114292401E-03
 2.700000000E+00 1.000000000E+00 -7.141558377E-03
 2.650000000E+00 1.000000000E+00 -8.167515006E-03
 2.600000000E+00 1.000000000E+00 -9.164356637E-03
 2.550000000E+00 1.000000000E+00 -1.025808215E-02
 2.500000000E+00 1.000000000E+00 -1.142155577E-02
 2.450000000E+00 1.000000000E+00 -1.239215734E-02
 2.400000000E+00 1.000000000E+00 -1.385520449E-02
 2.350000000E+00 1.000000000E+00 -1.490611519E-02
 2.300000000E+00 1.000000000E+00 -1.632778942E-02
 2.250000000E+00 1.000000000E+00 -1.785134519E-02
 2.200000000E+00 1.000000000E+00 -1.922571851E-02
 2.150000000E+00 1.000000000E+00 -2.091201804E-02
 2.100000000E+00 1.000000000E+00 -2.260285842E-02
 2.050000000E+00 1.000000000E+00 -2.435417023E-02
 2.000000000E+00 1.000000000E+00 -2.643795468E-02
 1.950000000E+00 1.000000000E+00 -2.861724918E-02
 1.900000000E+00 1.000000000E+00 -3.082493503E-02
 1.850000000E+00 1.000000000E+00 -3.350172313E-02
 1.800000000E+00 1.000000000E+00 -3.607611908E-02
 1.750000000E+00 1.000000000E+00 -3.927694454E-02
 1.700000000E+00 1.000000000E+00 -4.247395907E-02
 1.650000000E+00 1.000000000E+00 -4.606651075E-02
 1.600000000E+00 1.000000000E+00 -4.990195807E-02
 1.550000000E+00 1.000000000E+00 -5.436033980E-02
 1.500000000E+00 1.000000000E+00 -5.911747078E-02
 1.450000000E+00 1.000000000E+00 -6.417401121E-02
 1.400000000E+00 1.000000000E+00 -6.980372698E-02
 1.350000000E+00 1.000000000E+00 -7.571890846E-02
 1.300000000E+00 1.000000000E+00 -8.218790631E-02
 1.250000000E+00 1.000000000E+00 -8.881358596E-02
 1.200000000E+00 1.000000000E+00 -9.567237699E-02
 1.150000000E+00 1.000000000E+00 -1.032692804E-01
 1.100000000E+00 1.000000000E+00 -1.090335494E-01
 1.050000000E+00 1.000000000E+00 -1.162940816E-01
 1.000000000E+00 1.000000000E+00 -1.220652755E-01
 9.500000000E-01 1.000000000E+00 -1.271473809E-01
 9.000000000E-01 1.000000000E+00 -1.305775843E-01
 8.500000000E-01 1.000000000E+00 -1.332162040E-01
 8.000000000E-01 1.000000000E+00 -1.329223709E-01
 7.500000000E-01 1.000000000E+00 -1.310154229E-01
 7.000000000E-01 1.000000000E+00 -1.285755449E-01
 6.500000000E-01 1.000000000E+00 -1.214847202E-01
 6.000000000E-01 1.000000000E+00 -1.156065804E-01
 5.500000000E-01 1.000000000E+00 -1.056153304E-01
 5.000000000E-01 1.000000000E+00 -9.470089133E-02
 4.500000000E-01 1.000000000E+00 -8.256975346E-02
 4.000000000E-01 1.000000000E+00 -6.947208320E-02
 3.500000000E-01 1.000000000E+00 -5.603576668E-02
 3.000000000E-01 1.000000000E+00 -4.225180375E-02
 2.500000000E-01 1.000000000E+00 -2.878176234E-02
 2.000000000E-01 1.000000000E+00 -1.578470315E-02
 1.500000000E-01 1.000000000E+00 -3.732871335E-03
 1.000000000E-01 1.000000000E+00 7.383943975E-03
 5.000000000E-02 1.000000000E+00 1.708893507E-02
 1.733724275E-12 1.000000000E+00 2.529770092E-02
 -5.000000000E-02 1.000000000E+00 3.183402755E-02
 -1.000000000E-01 1.000000000E+00 3.655280368E-02
 -1.500000000E-01 1.000000000E+00 3.968973407E-02
 -2.000000000E-01 1.000000000E+00 4.107701502E-02
 -2.500000000E-01 1.000000000E+00 4.070845786E-02
 -3.000000000E-01 1.000000000E+00 3.882935948E-02
 -3.500000000E-01 1.000000000E+00 3.523855097E-02
 -4.000000000E-01 1.000000000E+00 2.933614410E-02
 -4.500000000E-01 1.000000000E+00 1.976454070E-02
 8.952471602E-01 -8.171959149E-03 3.727026569E-01
 8.200843860E-01 -1.698303329E-02 2.684364083E-01
 7.520099986E-01 -2.791019604E-02 1.617534155E-01
 6.800047226E-01 -3.923399251E-02 3.522641346E-02
 9.791008313E-01 -4.992598788E-03 4.073645971E-01
 6.142181271E-01 -5.041871415E-02 -9.442833804E-02
 5.489994746E-01 -6.004601566E-02 -2.533663751E-01
 4.896830487E-01 -6.653082690E-02 -4.297756843E-01
 4.318952930E-01 -7.281866502E-02 -8.300671295E-01
 3.757287187E-01 -7.498659716E-02 -8.839997243E-01
 3.198925940E-01 -7.488205558E-02 -7.656223980E-01
 2.649833666E-01 -7.238711270E-02 -6.368798004E-01
 2.110967224E-01 -6.811854388E-02 -5.257315908E-01
 1.548326592E-01 -6.097574473E-02 -4.161725396E-01