TITLE     = "Visualization of the solution"
VARIABLES = "x"
"y"
"Pressure_Coefficient"
ZONE T="Zone"
 STRANDID=0, SOLUTIONTIME=0
 Nodes=11939, Elements=23297, ZONETYPE=FEQuadrilateral
 DATAPACKING=POINT
 DT=(DOUBLE DOUBLE DOUBLE )
 1.000092387E+00 5.158772692E-04 4.014886700E-01
 9.846644402E-01 3.688991303E-03 2.624192346E-01
 9.717093110E-01 6.389217451E-03 1.956528915E-01
 9.563905001E-01 9.615717456E-03 1.218617910E-01
 9.423548579E-01 1.246757898E-02 8.387725726E-02
 9.304128885E-01 1.490741502E-02 4.534560747E-02
 9.195806384E-01 1.711574569E-02 7.791289087E-03
 9.084984660E-01 1.936540194E-02 -3.738855715E-02
 8.969829082E-01 2.162168175E-02 -6.933850997E-02
 8.847515583E-01 2.393998578E-02 -8.916512326E-02
 8.729693890E-01 2.619464882E-02 -1.432790721E-01
 8.605381846E-01 2.838760614E-02 -1.415297189E-01
 8.486956954E-01 3.050218336E-02 -1.711973003E-01
 8.376894593E-01 3.244587034E-02 -2.065835935E-01
 8.262290955E-01 3.438539430E-02 -2.237665414E-01
 8.138771057E-01 3.644460440E-02 -2.534637882E-01
 8.013390899E-01 3.843140230E-02 -2.608879875E-01
 7.895979285E-01 4.029468819E-02 -2.915747631E-01
 7.773008943E-01 4.215183109E-02 -2.983061025E-01
 7.659407854E-01 4.387111589E-02 -3.249789343E-01
 7.531990409E-01 4.572395608E-02 -3.385913635E-01
 7.401831746E-01 4.761598632E-02 -3.814939805E-01
 7.292389274E-01 4.911673442E-02 -3.884997557E-01
 7.177343369E-01 5.067126825E-02 -4.096009697E-01
 7.059036493E-01 5.222812667E-02 -4.336144320E-01
 6.928676367E-01 5.387923867E-02 -4.547091071E-01
 6.798988581E-01 5.546367913E-02 -4.780927829E-01
 6.684806943E-01 5.680754408E-02 -4.944763082E-01
 6.564891338E-01 5.817195773E-02 -5.271452780E-01
 6.452558041E-01 5.940997973E-02 -5.578305651E-01
 6.328533888E-01 6.066870689E-02 -5.583412338E-01
 6.209712029E-01 6.182984635E-02 -5.662982076E-01
 6.102602482E-01 6.283418089E-02 -5.380146949E-01
 5.982732177E-01 6.389516592E-02 -5.338334796E-01
 5.862989426E-01 6.488116086E-02 -7.636224674E-01
 5.724431872E-01 6.592883170E-02 -8.945066120E-01
 5.591942072E-01 6.682290882E-02 -8.653166033E-01
 5.460002422E-01 6.764367968E-02 -8.629803913E-01
 5.344718695E-01 6.828924268E-02 -8.552626224E-01
 5.219660401E-01 6.890550256E-02 -8.409874884E-01
 5.093513727E-01 6.944079697E-02 -8.280451190E-01
 4.983921051E-01 6.983665377E-02 -8.224888679E-01
 4.854541719E-01 7.026019692E-02 -8.180182045E-01
 4.725404978E-01 7.057692111E-02 -7.919775145E-01
 4.589687884E-01 7.081378251E-02 -7.816620120E-01
 4.451113343E-01 7.097833604E-02 -7.748622605E-01
 4.322161973E-01 7.104950398E-02 -7.572022740E-01
 4.190086126E-01 7.104048133E-02 -7.404961093E-01
 4.062695503E-01 7.095405459E-02 -7.165638634E-01
 3.926412463E-01 7.075781375E-02 -6.956473899E-01
 3.804204166E-01 7.052349299E-02 -6.899776987E-01
 3.687212765E-01 7.023540884E-02 -6.686106163E-01
 3.551507890E-01 6.980683655E-02 -6.527309599E-01
 3.423207104E-01 6.934914738E-02 -6.474760974E-01
 3.294485509E-01 6.879035383E-02 -6.359492721E-01
 3.190269172E-01 6.829634309E-02 -6.322702595E-01
 3.069078624E-01 6.764239818E-02 -6.130316520E-01
 2.945480049E-01 6.689539552E-02 -5.891581712E-01
 2.808131278E-01 6.598109752E-02 -5.805706660E-01
 2.688110173E-01 6.511048228E-02 -5.692840761E-01
 2.568788826E-01 6.415067613E-02 -5.430327881E-01
 2.444756031E-01 6.308630109E-02 -5.298502846E-01
 2.319661975E-01 6.193562597E-02 -5.213263647E-01
 2.200295478E-01 6.074549630E-02 -5.042817019E-01
 2.082936019E-01 5.948845670E-02 -4.847784074E-01
 1.965811402E-01 5.815508217E-02 -4.691558518E-01
 1.843723804E-01 5.667303875E-02 -4.535209875E-01
 1.726868004E-01 5.515334383E-02 -4.320444460E-01
 1.609384865E-01 5.353631824E-02 -4.168738807E-01
 1.493945420E-01 5.184800923E-02 -4.036002229E-01
 1.383549422E-01 5.011544749E-02 -3.776491260E-01
 1.270761043E-01 4.823978618E-02 -3.567010896E-01
 1.161210015E-01 4.631384835E-02 -3.412464535E-01
 1.054074094E-01 4.428789765E-02 -3.142826065E-01
 9.549491107E-02 4.230995849E-02 -2.957315882E-01
 8.491243422E-02 4.004702717E-02 -2.684008672E-01
 7.398280501E-02 3.753696382E-02 -2.371128269E-01
 6.432603300E-02 3.513551131E-02 -2.083659372E-01
 5.509147421E-02 3.266276792E-02 -1.760874122E-01
 4.633808509E-02 3.010394424E-02 -1.418372032E-01
 3.848525509E-02 2.760916017E-02 -1.051324092E-01
 3.163276613E-02 2.522504702E-02 -6.468887428E-02
 2.572057582E-02 2.296122350E-02 -2.840170134E-02
 2.134729736E-02 2.112039924E-02 1.820536083E-02
 1.716548949E-02 1.920458488E-02 5.915315742E-02
 1.399649680E-02 1.760551892E-02 1.088735094E-01
 1.121240016E-02 1.606400497E-02 1.481235599E-01
 9.228354320E-03 1.486345753E-02 1.925362336E-01
 7.358757313E-03 1.363018434E-02 2.353465679E-01
 5.620126147E-03 1.236137375E-02 3.233355263E-01
 3.463902511E-03 1.054822933E-02 4.298879324E-01
 1.696620719E-03 8.753545582E-03 5.400113501E-01
 3.082529001E-04 6.961092353E-03 7.494505794E-01
 -1.038929913E-03 4.446556792E-03 9.596281290E-01
 -1.624856261E-03 2.488263883E-03 1.096586772E+00
 -1.816314762E-03 8.822003729E-04 1.179633153E+00
 -1.723548281E-03 -1.015007962E-03 1.201419223E+00
 -1.237349119E-03 -3.169939853E-03 1.174288361E+00
 -1.892690198E-04 -5.699018948E-03 1.067102473E+00
 1.447850373E-03 -8.379866369E-03 9.262359138E-01
 3.572872607E-03 -1.104534417E-02 7.774215692E-01
 5.511708092E-03 -1.306988951E-02 6.480092140E-01
 7.792502642E-03 -1.515125763E-02 5.578200540E-01
 9.558324702E-03 -1.660331711E-02 4.701860827E-01
 1.170159131E-02 -1.822348312E-02 4.076808439E-01
 1.416710578E-02 -1.993853413E-02 3.311824663E-01
 1.736399159E-02 -2.196983993E-02 2.532731421E-01
 2.054696903E-02 -2.382135391E-02 1.786985123E-01
 2.456328087E-02 -2.596432157E-02 1.120022733E-01
 2.977046929E-02 -2.848340757E-02 4.316908057E-02
 3.524953499E-02 -3.088673204E-02 -3.027974358E-02
 4.187514260E-02 -3.351742029E-02 -8.441101259E-02
 4.915340245E-02 -3.615248576E-02 -1.397595654E-01
 5.776636302E-02 -3.897013515E-02 -1.870690122E-01
 6.626276672E-02 -4.150136188E-02 -2.301287231E-01
 7.643115520E-02 -4.427759722E-02 -2.713250228E-01
 8.598411828E-02 -4.666739702E-02 -2.964721202E-01
 9.668952972E-02 -4.914258048E-02 -3.351267597E-01
 1.078202501E-01 -5.151868984E-02 -3.627413937E-01
 1.195614487E-01 -5.382525921E-02 -3.847167518E-01
 1.312347353E-01 -5.596207455E-02 -4.122111958E-01
 1.416541934E-01 -5.773915723E-02 -4.365156526E-01
 1.530937850E-01 -5.956343561E-02 -4.564641324E-01
 1.649296880E-01 -6.132266298E-02 -4.780746211E-01
 1.764421463E-01 -6.292052567E-02 -5.030154217E-01
 1.881049871E-01 -6.442877650E-02 -5.271698313E-01
 1.987295151E-01 -6.570490450E-02 -5.518934031E-01
 2.100071013E-01 -6.696258485E-02 -5.695667723E-01
 2.220705301E-01 -6.820072234E-02 -5.886344687E-01
 2.339308709E-01 -6.932660937E-02 -6.222530079E-01
 2.455975413E-01 -7.031893730E-02 -6.485127798E-01
 2.576274574E-01 -7.125120610E-02 -6.801365097E-01
 2.688217759E-01 -7.199379057E-02 -6.963222245E-01
 2.813961208E-01 -7.275192440E-02 -7.236768430E-01
 2.934927046E-01 -7.334307581E-02 -7.571530463E-01
 3.063299656E-01 -7.385732979E-02 -7.901080928E-01
 3.181698918E-01 -7.420032471E-02 -8.169032758E-01
 3.306149542E-01 -7.446553558E-02 -8.327481041E-01
 3.411891162E-01 -7.458683103E-02 -8.720914090E-01
 3.528442383E-01 -7.458614558E-02 -9.037850504E-01
 3.641267717E-01 -7.447303087E-02 -9.228966998E-01
 3.753191531E-01 -7.427579910E-02 -9.473029955E-01
 3.876021206E-01 -7.392686605E-02 -9.762337307E-01
 4.007172883E-01 -7.340365648E-02 -1.005854332E+00
 4.131269753E-01 -7.275190949E-02 -1.028200855E+00
 4.259116352E-01 -7.193850726E-02 -1.054299468E+00
 4.384476840E-01 -7.101225108E-02 -1.079315870E+00
 4.516099691E-01 -6.991042942E-02 -4.990743323E-01
 4.641872942E-01 -6.871955097E-02 -3.790264828E-01
 4.765356779E-01 -6.742824614E-02 -4.460012452E-01
 4.890680313E-01 -6.603750587E-02 -4.327420233E-01
 5.012097955E-01 -6.456814706E-02 -4.012605183E-01
 5.145559311E-01 -6.285279989E-02 -3.595083493E-01
 5.274079442E-01 -6.113284454E-02 -3.300588451E-01
 5.394233465E-01 -5.943675712E-02 -2.908135769E-01
 5.527072549E-01 -5.750093609E-02 -2.518472379E-01
 5.659263730E-01 -5.553674325E-02 -2.245624879E-01
 5.790619254E-01 -5.350324884E-02 -1.851848798E-01
 5.924764872E-01 -5.138588324E-02 -1.488162658E-01
 6.058961153E-01 -4.926522449E-02 -1.278402777E-01
 6.188733578E-01 -4.714716226E-02 -9.429818775E-02
 6.319926977E-01 -4.496156052E-02 -5.630789156E-02
 6.456922889E-01 -4.272559658E-02 -4.232275245E-02
 6.584348083E-01 -4.056452960E-02 -4.682714468E-03
 6.717305183E-01 -3.833027184E-02 1.962405716E-02
 6.841359138E-01 -3.624923527E-02 4.162089428E-02
 6.965501308E-01 -3.416256979E-02 6.452954529E-02
 7.112402916E-01 -3.169493750E-02 8.985202854E-02
 7.242835164E-01 -2.950273454E-02 1.143611573E-01
 7.358319163E-01 -2.758061886E-02 1.326521371E-01
 7.493328452E-01 -2.532700822E-02 1.584454081E-01
 7.625412345E-01 -2.316543460E-02 1.765035257E-01
 7.761281133E-01 -2.092234418E-02 2.056834034E-01
 7.885318995E-01 -1.891940832E-02 2.272619550E-01
 8.014958501E-01 -1.687190123E-02 2.467490642E-01
 8.124477863E-01 -1.516473014E-02 2.663670274E-01
 8.234838247E-01 -1.347615011E-02 2.851883270E-01
 8.353827596E-01 -1.166843064E-02 3.143511947E-01
 8.474503756E-01 -9.929177351E-03 3.357819317E-01
 8.596815467E-01 -8.275084198E-03 3.538262432E-01
 8.703222275E-01 -6.932362448E-03 3.669055353E-01
 8.810539842E-01 -5.628955550E-03 3.876958441E-01
 8.933608532E-01 -4.287291784E-03 4.001343828E-01
 9.032749534E-01 -3.293985734E-03 4.135225983E-01
 9.141827822E-01 -2.349480521E-03 4.222072278E-01
 9.243336916E-01 -1.571090659E-03 4.330116732E-01
 9.342571497E-01 -9.322160622E-04 4.385374585E-01
 9.469980001E-01 -3.111859260E-04 4.401881239E-01
 9.610463977E-01 1.808200032E-04 4.446280989E-01
 9.758874774E-01 4.640325787E-04 4.509867216E-01
 9.892839193E-01 5.364747485E-04 4.763292673E-01
 -5.000000000E-01 -1.000000000E+00 1.836226792E-02
 3.500000000E+00 -1.000000000E+00 5.395928765E-03
 3.500000000E+00 1.000000000E+00 -2.846743596E-02
 -5.000000000E-01 1.000000000E+00 1.739101686E-02
 9.923784137E-01 2.102434286E-03 3.587227224E-01
 9.781868756E-01 5.039104377E-03 2.306751437E-01
 9.640499055E-01 8.002467453E-03 1.539032682E-01
 9.493726790E-01 1.104164822E-02 1.030383051E-01
 9.363838732E-01 1.368749700E-02 6.410890413E-02
 9.249967635E-01 1.601158036E-02 2.707866014E-02
 9.140395522E-01 1.824057382E-02 -1.676891260E-02
 9.027406871E-01 2.049354184E-02 -5.601390333E-02
 8.908672333E-01 2.278083377E-02 -7.330054740E-02
 8.788604736E-01 2.506731730E-02 -1.258128173E-01
 8.667537868E-01 2.729112748E-02 -1.375882775E-01
 8.546169400E-01 2.944489475E-02 -1.547052476E-01
 8.431925774E-01 3.147402685E-02 -1.929753284E-01
 8.319592774E-01 3.341563232E-02 -2.125256238E-01
 8.200531006E-01 3.541499935E-02 -2.432708405E-01
 8.076080978E-01 3.743800335E-02 -2.522084550E-01
 7.954685092E-01 3.936304525E-02 -2.814628917E-01
 7.834494114E-01 4.122325964E-02 -2.902076165E-01
 7.716208398E-01 4.301147349E-02 -3.160585162E-01
 7.595699131E-01 4.479753599E-02 -3.263866864E-01
 7.466911077E-01 4.666997120E-02 -3.647809745E-01
 7.347110510E-01 4.836636037E-02 -3.836012961E-01
 7.234866321E-01 4.989400133E-02 -3.979698427E-01
 7.118189931E-01 5.144969746E-02 -4.229404144E-01
 6.993856430E-01 5.305368267E-02 -4.438662386E-01
 6.863832474E-01 5.467145890E-02 -4.665025723E-01
 6.741897762E-01 5.613561161E-02 -4.864625189E-01
 6.624849141E-01 5.748975091E-02 -5.064628282E-01
 6.508724689E-01 5.879096873E-02 -5.503417208E-01
 6.390545964E-01 6.003934331E-02 -5.558949052E-01
 6.269122958E-01 6.124927662E-02 -5.633025456E-01
 6.156157255E-01 6.233201362E-02 -5.593352332E-01
 6.042667329E-01 6.336467341E-02 -5.182653463E-01
 5.922860801E-01 6.438816339E-02 -6.213871343E-01
 5.793710649E-01 6.540499628E-02 -8.676327577E-01
 5.658186972E-01 6.637587026E-02 -8.792321763E-01
 5.525972247E-01 6.723329425E-02 -8.622703033E-01
 5.402360559E-01 6.796646118E-02 -8.611490937E-01
 5.282189548E-01 6.859737262E-02 -8.481588365E-01
 5.156587064E-01 6.917314976E-02 -8.343265553E-01
 5.038717389E-01 6.963872537E-02 -8.212333528E-01
 4.919231385E-01 7.004842535E-02 -8.260633124E-01
 4.789973348E-01 7.041855901E-02 -8.043803087E-01
 4.657546431E-01 7.069535181E-02 -7.841003073E-01
 4.520400614E-01 7.089605927E-02 -7.796994136E-01
 4.386637658E-01 7.101392001E-02 -7.665324521E-01
 4.256124049E-01 7.104499266E-02 -7.484708284E-01
 4.126390815E-01 7.099726796E-02 -7.310621111E-01
 3.994553983E-01 7.085593417E-02 -7.020730823E-01
 3.865308315E-01 7.064065337E-02 -6.927579638E-01
 3.745708466E-01 7.037945092E-02 -6.833399158E-01
 3.619360328E-01 7.002112269E-02 -6.553332269E-01
 3.487357497E-01 6.957799196E-02 -6.543868537E-01
 3.358846307E-01 6.906975061E-02 -6.368564701E-01
 3.242377341E-01 6.854334846E-02 -6.377032336E-01
 3.129673898E-01 6.796937063E-02 -6.238192688E-01
 3.007279336E-01 6.726889685E-02 -6.008636041E-01
 2.876805663E-01 6.643824652E-02 -5.824215558E-01
 2.748120725E-01 6.554578990E-02 -5.783926546E-01
 2.628449500E-01 6.463057920E-02 -5.547739894E-01
 2.506772429E-01 6.361848861E-02 -5.353645830E-01
 2.382209003E-01 6.251096353E-02 -5.264717665E-01
 2.259978727E-01 6.134056114E-02 -5.135385502E-01
 2.141615748E-01 6.011697650E-02 -4.937029075E-01
 2.024373710E-01 5.882176943E-02 -4.771424266E-01
 1.904767603E-01 5.741406046E-02 -4.622671557E-01
 1.785295904E-01 5.591319129E-02 -4.422005601E-01
 1.668126434E-01 5.434483103E-02 -4.237650482E-01
 1.551665142E-01 5.269216374E-02 -4.119438530E-01
 1.438747421E-01 5.098172836E-02 -3.910772320E-01
 1.327155232E-01 4.917761683E-02 -3.652396380E-01
 1.215985529E-01 4.727681726E-02 -3.520816138E-01
 1.107642055E-01 4.530087300E-02 -3.251483070E-01
 1.004511602E-01 4.329892807E-02 -3.071855500E-01
 9.020367265E-02 4.117849283E-02 -2.826739891E-01
 7.944761962E-02 3.879199550E-02 -2.574148435E-01
 7.134696096E-02 -4.288947955E-02 -2.553217385E-01
 9.133682400E-02 -4.790498875E-02 -3.207457622E-01
 1.022548899E-01 -5.033063516E-02 -3.486135522E-01
 1.136908494E-01 -5.267197452E-02 -3.751526157E-01
 1.253980920E-01 -5.489366688E-02 -3.980296229E-01
 1.364444643E-01 -5.685061589E-02 -4.269200353E-01
 1.473739892E-01 -5.865129642E-02 -4.452468147E-01
 1.590117365E-01 -6.044304930E-02 -4.674802956E-01
 1.706859171E-01 -6.212159432E-02 -4.907554129E-01
 1.822735667E-01 -6.367465109E-02 -5.149255461E-01
 1.934172511E-01 -6.506684050E-02 -5.410825526E-01
 2.043683082E-01 -6.633374467E-02 -5.599237423E-01
 2.160388157E-01 -6.758165359E-02 -5.789991282E-01
 2.280007005E-01 -6.876366585E-02 -6.029188379E-01
 2.397642061E-01 -6.982277334E-02 -6.384126213E-01
 2.516124994E-01 -7.078507170E-02 -6.609596011E-01
 2.632246166E-01 -7.162249833E-02 -6.944995616E-01
 2.751089483E-01 -7.237285748E-02 -7.022681797E-01
 2.874444127E-01 -7.304750010E-02 -7.446086517E-01
 2.999113351E-01 -7.360020280E-02 -7.701167565E-01
 3.122499287E-01 -7.402882725E-02 -8.089972082E-01
 3.243924230E-01 -7.433293015E-02 -8.215824923E-01
 3.359020352E-01 -7.452618331E-02 -8.511726993E-01
 3.470166773E-01 -7.458648831E-02 -8.894349509E-01
 3.584855050E-01 -7.452958822E-02 -9.160109052E-01
 3.697229624E-01 -7.437441498E-02 -9.316252277E-01
 3.814606369E-01 -7.410133258E-02 -9.611311423E-01
 3.941597044E-01 -7.366526127E-02 -9.905383887E-01
 4.069221318E-01 -7.307778299E-02 -1.020316050E+00
 4.195193052E-01 -7.234520838E-02 -1.034771818E+00
 4.321796596E-01 -7.147537917E-02 -1.091580729E+00
 4.450288266E-01 -7.046134025E-02 -8.708675974E-01
 4.578986317E-01 -6.931499019E-02 -3.564629532E-01
 4.703614861E-01 -6.807389855E-02 -4.306519878E-01
 4.828018546E-01 -6.673287600E-02 -4.399534183E-01
 4.951389134E-01 -6.530282646E-02 -4.209148057E-01
 5.078828633E-01 -6.371047348E-02 -3.797450170E-01
 5.209819376E-01 -6.199282221E-02 -3.437480694E-01
 5.334156454E-01 -6.028480083E-02 -3.130967166E-01
 5.460653007E-01 -5.846884660E-02 -2.703047506E-01
 5.593168139E-01 -5.651883967E-02 -2.367965633E-01
 5.724941492E-01 -5.451999605E-02 -2.072771129E-01
 5.857692063E-01 -5.244456604E-02 -1.663093881E-01
 5.991863012E-01 -5.032555386E-02 -1.361095779E-01
 6.123847365E-01 -4.820619337E-02 -1.134232205E-01
 6.254330277E-01 -4.605436139E-02 -7.595514885E-02
 6.388424933E-01 -4.384357855E-02 -4.582978012E-02
 6.520635486E-01 -4.164506309E-02 -2.765234616E-02
 6.650826633E-01 -3.944740072E-02 9.314631663E-03
 6.779332161E-01 -3.728975356E-02 3.083702813E-02
 6.903430223E-01 -3.520590253E-02 5.290658538E-02
 7.038952112E-01 -3.292875364E-02 7.689190092E-02
 7.177619040E-01 -3.059883602E-02 1.022327141E-01
 7.300577164E-01 -2.854167670E-02 1.241735203E-01
 7.425823808E-01 -2.645381354E-02 1.444019787E-01
 7.559370399E-01 -2.424622141E-02 1.687592862E-01
 7.693346739E-01 -2.204388939E-02 1.898672901E-01
 7.823300064E-01 -1.992087625E-02 2.175635456E-01
 7.950138748E-01 -1.789565478E-02 2.371399980E-01
 8.069718182E-01 -1.601831568E-02 2.568754439E-01
 8.179658055E-01 -1.432044012E-02 2.755771587E-01
 8.294332922E-01 -1.257229038E-02 2.974486870E-01
 8.414165676E-01 -1.079880400E-02 3.253430993E-01
 8.535659611E-01 -9.102130774E-03 3.453209059E-01
 8.650018871E-01 -7.603723323E-03 3.619038117E-01
 8.756881058E-01 -6.280658999E-03 3.756568486E-01
 8.872074187E-01 -4.958123667E-03 3.939398876E-01
 9.087288678E-01 -2.821733127E-03 4.218700087E-01
 9.192582369E-01 -1.960285590E-03 4.282954835E-01
 9.406275749E-01 -6.217009941E-04 4.408368948E-01
 9.540221989E-01 -6.518296141E-05 4.413846307E-01
 9.684669375E-01 3.224262909E-04 4.472302909E-01
 9.825856984E-01 5.002536636E-04 4.603116285E-01
 9.946881533E-01 5.261760089E-04 5.236520582E-01
 -5.000000000E-01 9.500000000E-01 2.846611019E-02
 -5.000000000E-01 9.000000000E-01 4.309067127E-02
 -5.000000000E-01 8.500000000E-01 5.401734906E-02
 -5.000000000E-01 8.000000000E-01 6.398680948E-02
 -5.000000000E-01 7.500000000E-01 7.318648864E-02
 -5.000000000E-01 7.000000000E-01 8.229221490E-02
 -5.000000000E-01 6.500000000E-01 9.167596735E-02
 -5.000000000E-01 6.000000000E-01 1.011529231E-01
 -5.000000000E-01 5.500000000E-01 1.110672912E-01
 -5.000000000E-01 5.000000000E-01 1.210759317E-01
 -5.000000000E-01 4.500000000E-01 1.314014202E-01
 -5.000000000E-01 4.000000000E-01 1.416559963E-01
 -5.000000000E-01 3.500000000E-01 1.518424066E-01
 -5.000000000E-01 3.000000000E-01 1.615367508E-01
 -5.000000000E-01 2.500000000E-01 1.708504841E-01
 -5.000000000E-01 2.000000000E-01 1.791744818E-01
 -5.000000000E-01 1.500000000E-01 1.860284586E-01
 -5.000000000E-01 1.000000000E-01 1.913774087E-01
 -5.000000000E-01 5.000000000E-02 1.948587145E-01
 -5.000000000E-01 2.752242878E-12 1.963527674E-01
 -5.000000000E-01 -5.000000000E-02 1.956747543E-01
 -5.000000000E-01 -1.000000000E-01 1.928835941E-01
 -5.000000000E-01 -1.500000000E-01 1.882321541E-01
 -5.000000000E-01 -2.000000000E-01 1.818467266E-01
 -5.000000000E-01 -2.500000000E-01 1.741886004E-01
 -5.000000000E-01 -3.000000000E-01 1.652106312E-01
 -5.000000000E-01 -3.500000000E-01 1.557527381E-01
 -5.000000000E-01 -4.000000000E-01 1.457461448E-01
 -5.000000000E-01 -4.500000000E-01 1.355920860E-01
 -5.000000000E-01 -5.000000000E-01 1.253788918E-01
 -5.000000000E-01 -5.500000000E-01 1.151899291E-01
 -5.000000000E-01 -6.000000000E-01 1.053731306E-01
 -5.000000000E-01 -6.500000000E-01 9.564275679E-02
 -5.000000000E-01 -7.000000000E-01 8.604020125E-02
 -5.000000000E-01 -7.500000000E-01 7.652074144E-02
 -5.000000000E-01 -8.000000000E-01 6.712589129E-02
 -5.000000000E-01 -8.500000000E-01 5.696420210E-02
 -5.000000000E-01 -9.000000000E-01 4.516109334E-02
 -5.000000000E-01 -9.500000000E-01 3.011612725E-02
 -4.500000000E-01 -1.000000000E+00 2.479460239E-02
 -4.000000000E-01 -1.000000000E+00 3.673779975E-02
 -3.500000000E-01 -1.000000000E+00 4.426715949E-02
 -3.000000000E-01 -1.000000000E+00 4.867264606E-02
 -2.500000000E-01 -1.000000000E+00 5.162869213E-02
 -2.000000000E-01 -1.000000000E+00 5.262498566E-02
 -1.500000000E-01 -1.000000000E+00 5.144013120E-02
 -1.000000000E-01 -1.000000000E+00 4.834689278E-02
 -5.000000000E-02 -1.000000000E+00 4.332161125E-02
 -9.424683256E-13 -1.000000000E+00 3.650532556E-02
 5.000000000E-02 -1.000000000E+00 2.779682384E-02
 1.000000000E-01 -1.000000000E+00 1.759188773E-02
 1.500000000E-01 -1.000000000E+00 6.127306769E-03
 2.000000000E-01 -1.000000000E+00 -6.038892034E-03
 2.500000000E-01 -1.000000000E+00 -1.862968819E-02
 3.000000000E-01 -1.000000000E+00 -3.083740100E-02
 3.500000000E-01 -1.000000000E+00 -4.222141418E-02
 4.000000000E-01 -1.000000000E+00 -5.182209326E-02
 4.500000000E-01 -1.000000000E+00 -5.976170902E-02
 5.000000000E-01 -1.000000000E+00 -6.550397130E-02
 5.500000000E-01 -1.000000000E+00 -6.799593158E-02
 6.000000000E-01 -1.000000000E+00 -6.892764973E-02
 6.500000000E-01 -1.000000000E+00 -6.661046550E-02
 7.000000000E-01 -1.000000000E+00 -6.269036983E-02
 7.500000000E-01 -1.000000000E+00 -5.662767908E-02
 8.000000000E-01 -1.000000000E+00 -4.935197311E-02
 8.500000000E-01 -1.000000000E+00 -4.107871908E-02
 9.000000000E-01 -1.000000000E+00 -3.234112872E-02
 9.500000000E-01 -1.000000000E+00 -2.372427863E-02
 1.000000000E+00 -1.000000000E+00 -1.493039820E-02
 1.050000000E+00 -1.000000000E+00 -7.725069325E-03
 1.100000000E+00 -1.000000000E+00 -1.434486675E-04
 1.150000000E+00 -1.000000000E+00 6.292001658E-03
 1.200000000E+00 -1.000000000E+00 1.166566743E-02
 1.250000000E+00 -1.000000000E+00 1.638676069E-02
 1.300000000E+00 -1.000000000E+00 2.013444514E-02
 1.350000000E+00 -1.000000000E+00 2.329015691E-02
 1.400000000E+00 -1.000000000E+00 2.577192272E-02
 1.450000000E+00 -1.000000000E+00 2.748995909E-02
 1.500000000E+00 -1.000000000E+00 2.891645682E-02
 1.550000000E+00 -1.000000000E+00 2.977194528E-02
 1.600000000E+00 -1.000000000E+00 3.041861591E-02
 1.650000000E+00 -1.000000000E+00 3.049404181E-02
 1.700000000E+00 -1.000000000E+00 3.058954781E-02
 1.750000000E+00 -1.000000000E+00 3.030879181E-02
 1.800000000E+00 -1.000000000E+00 2.990916031E-02
 1.850000000E+00 -1.000000000E+00 2.941317251E-02
 1.900000000E+00 -1.000000000E+00 2.887527959E-02
 1.950000000E+00 -1.000000000E+00 2.819562837E-02
 2.000000000E+00 -1.000000000E+00 2.746404670E-02
 2.050000000E+00 -1.000000000E+00 2.682057103E-02
 2.100000000E+00 -1.000000000E+00 2.598172282E-02
 2.150000000E+00 -1.000000000E+00 2.531616525E-02
 2.200000000E+00 -1.000000000E+00 2.453499034E-02
 2.250000000E+00 -1.000000000E+00 2.384785843E-02
 2.300000000E+00 -1.000000000E+00 2.318429064E-02
 2.350000000E+00 -1.000000000E+00 2.251901743E-02
 2.400000000E+00 -1.000000000E+00 2.190432208E-02
 2.450000000E+00 -1.000000000E+00 2.131791713E-02
 2.500000000E+00 -1.000000000E+00 2.075120287E-02
 2.550000000E+00 -1.000000000E+00 2.024672610E-02
 2.600000000E+00 -1.000000000E+00 1.982442870E-02
 2.650000000E+00 -1.000000000E+00 1.937782855E-02
 2.700000000E+00 -1.000000000E+00 1.902790806E-02
 2.750000000E+00 -1.000000000E+00 1.870185348E-02
 2.800000000E+00 -1.000000000E+00 1.837422785E-02
 2.850000000E+00 -1.000000000E+00 1.815894702E-02
 2.900000000E+00 -1.000000000E+00 1.792860306E-02
 2.950000000E+00 -1.000000000E+00 1.779686976E-02
 3.000000000E+00 -1.000000000E+00 1.761849330E-02
 3.050000000E+00 -1.000000000E+00 1.751855539E-02
 3.100000000E+00 -1.000000000E+00 1.735364399E-02
 3.150000000E+00 -1.000000000E+00 1.734692546E-02
 3.200000000E+00 -1.000000000E+00 1.697158834E-02
 3.250000000E+00 -1.000000000E+00 1.690588347E-02
 3.300000000E+00 -1.000000000E+00 1.638481892E-02
 3.350000000E+00 -1.000000000E+00 1.569407454E-02
 3.400000000E+00 -1.000000000E+00 1.422919717E-02
 3.450000000E+00 -1.000000000E+00 1.061796273E-02
 3.500000000E+00 -9.500000000E-01 3.293459382E-03
 3.500000000E+00 -9.000000000E-01 6.560929341E-03
 3.500000000E+00 -8.500000000E-01 9.384779768E-03
 3.500000000E+00 -8.000000000E-01 1.156501920E-02
 3.500000000E+00 -7.500000000E-01 1.337236325E-02
 3.500000000E+00 -7.000000000E-01 1.482270159E-02
 3.500000000E+00 -6.500000000E-01 1.623859371E-02
 3.500000000E+00 -6.000000000E-01 1.783740316E-02
 3.500000000E+00 -5.500000000E-01 1.959746009E-02
 3.500000000E+00 -5.000000000E-01 2.139846621E-02
 3.500000000E+00 -4.500000000E-01 2.326972456E-02
 3.500000000E+00 -4.000000000E-01 2.508042461E-02
 3.500000000E+00 -3.500000000E-01 2.696607444E-02
 3.500000000E+00 -3.000000000E-01 2.870518234E-02
 3.500000000E+00 -2.500000000E-01 2.979947832E-02
 3.500000000E+00 -2.000000000E-01 2.997685271E-02
 3.500000000E+00 -1.500000000E-01 2.938321099E-02
 3.500000000E+00 -1.000000000E-01 2.866374435E-02
 3.500000000E+00 -5.000000000E-02 2.823213612E-02
 3.500000000E+00 -2.752242878E-12 2.865688344E-02
 3.500000000E+00 5.000000000E-02 2.964002054E-02
 3.500000000E+00 1.000000000E-01 3.026267473E-02
 3.500000000E+00 1.500000000E-01 2.996889213E-02
 3.500000000E+00 2.000000000E-01 2.873470460E-02
 3.500000000E+00 2.500000000E-01 2.700121571E-02
 3.500000000E+00 3.000000000E-01 2.522226412E-02
 3.500000000E+00 3.500000000E-01 2.344404895E-02
 3.500000000E+00 4.000000000E-01 2.155331861E-02
 3.500000000E+00 4.500000000E-01 1.966813474E-02
 3.500000000E+00 5.000000000E-01 1.777404787E-02
 3.500000000E+00 5.500000000E-01 1.609122862E-02
 3.500000000E+00 6.000000000E-01 1.496251840E-02
 3.500000000E+00 6.500000000E-01 1.442936471E-02
 3.500000000E+00 7.000000000E-01 1.368340725E-02
 3.500000000E+00 7.500000000E-01 1.127556097E-02
 3.500000000E+00 8.000000000E-01 5.331598238E-03
 3.500000000E+00 8.500000000E-01 -5.354806452E-03
 3.500000000E+00 9.000000000E-01 -1.795420556E-02
 3.500000000E+00 9.500000000E-01 -3.211309950E-02
 3.450000000E+00 1.000000000E+00 -1.356517671E-02
 3.400000000E+00 1.000000000E+00 -3.645226663E-03
 3.350000000E+00 1.000000000E+00 4.644945482E-04
 3.300000000E+00 1.000000000E+00 6.285368998E-04
 3.250000000E+00 1.000000000E+00 1.337266241E-03
 3.200000000E+00 1.000000000E+00 6.191341297E-04
 3.150000000E+00 1.000000000E+00 -3.560815462E-06
 3.100000000E+00 1.000000000E+00 -7.190682976E-04
 3.050000000E+00 1.000000000E+00 -1.615272845E-03
 3.000000000E+00 1.000000000E+00 -2.474453810E-03
 2.950000000E+00 1.000000000E+00 -3.501465648E-03
 2.900000000E+00 1.000000000E+00 -4.353322330E-03
 2.850000000E+00 1.000000000E+00 -5.390491971E-03
 2.800000000E+00 1.000000000E+00 -6.712756890E-03
 2.750000000E+00 1.000000000E+00 -7.338241161E-03
 2.700000000E+00 1.000000000E+00 -8.796390089E-03
 2.650000000E+00 1.000000000E+00 -9.965128769E-03
 2.600000000E+00 1.000000000E+00 -1.117367059E-02
 2.550000000E+00 1.000000000E+00 -1.243950725E-02
 2.500000000E+00 1.000000000E+00 -1.387024857E-02
 2.450000000E+00 1.000000000E+00 -1.509746378E-02
 2.400000000E+00 1.000000000E+00 -1.653083708E-02
 2.350000000E+00 1.000000000E+00 -1.800842229E-02
 2.300000000E+00 1.000000000E+00 -1.966547854E-02
 2.250000000E+00 1.000000000E+00 -2.135674992E-02
 2.200000000E+00 1.000000000E+00 -2.328336149E-02
 2.150000000E+00 1.000000000E+00 -2.499807004E-02
 2.100000000E+00 1.000000000E+00 -2.697905174E-02
 2.050000000E+00 1.000000000E+00 -2.933393478E-02
 2.000000000E+00 1.000000000E+00 -3.150984175E-02
 1.950000000E+00 1.000000000E+00 -3.410246154E-02
 1.900000000E+00 1.000000000E+00 -3.685543116E-02
 1.850000000E+00 1.000000000E+00 -3.996611771E-02
 1.800000000E+00 1.000000000E+00 -4.325446502E-02
 1.750000000E+00 1.000000000E+00 -4.699484931E-02
 1.700000000E+00 1.000000000E+00 -5.069737289E-02
 1.650000000E+00 1.000000000E+00 -5.516507952E-02
 1.600000000E+00 1.000000000E+00 -5.970637392E-02
 1.550000000E+00 1.000000000E+00 -6.505047928E-02
 1.500000000E+00 1.000000000E+00 -7.059461717E-02
 1.450000000E+00 1.000000000E+00 -7.658421261E-02
 1.400000000E+00 1.000000000E+00 -8.349179129E-02
 1.350000000E+00 1.000000000E+00 -9.116433838E-02
 1.300000000E+00 1.000000000E+00 -9.814199719E-02
 1.250000000E+00 1.000000000E+00 -1.069082575E-01
 1.200000000E+00 1.000000000E+00 -1.152725638E-01
 1.150000000E+00 1.000000000E+00 -1.240333383E-01
 1.100000000E+00 1.000000000E+00 -1.328589189E-01
 1.050000000E+00 1.000000000E+00 -1.413489946E-01
 1.000000000E+00 1.000000000E+00 -1.490634260E-01
 9.500000000E-01 1.000000000E+00 -1.553199548E-01
 9.000000000E-01 1.000000000E+00 -1.604172127E-01
 8.500000000E-01 1.000000000E+00 -1.639822965E-01
 8.000000000E-01 1.000000000E+00 -1.639643899E-01
 7.500000000E-01 1.000000000E+00 -1.632428836E-01
 7.000000000E-01 1.000000000E+00 -1.582114460E-01
 6.500000000E-01 1.000000000E+00 -1.515264066E-01
 6.000000000E-01 1.000000000E+00 -1.410386614E-01
 5.500000000E-01 1.000000000E+00 -1.296900224E-01
 5.000000000E-01 1.000000000E+00 -1.154656300E-01
 4.500000000E-01 1.000000000E+00 -1.002265917E-01
 4.000000000E-01 1.000000000E+00 -8.381723012E-02
 3.500000000E-01 1.000000000E+00 -6.688350446E-02
 3.000000000E-01 1.000000000E+00 -4.995198985E-02
 2.500000000E-01 1.000000000E+00 -3.357345675E-02
 2.000000000E-01 1.000000000E+00 -1.788889103E-02
 1.500000000E-01 1.000000000E+00 -3.456243603E-03
 1.000000000E-01 1.000000000E+00 9.678381869E-03
 5.000000000E-02 1.000000000E+00 2.106798132E-02
 1.733724275E-12 1.000000000E+00 3.073640845E-02
 -5.000000000E-02 1.000000000E+00 3.831483759E-02
 -1.000000000E-01 1.000000000E+00 4.390048788E-02
 -1.500000000E-01 1.000000000E+00 4.742079898E-02
 -2.000000000E-01 1.000000000E+00 4.894545471E-02
 -2.500000000E-01 1.000000000E+00 4.851261110E-02
 -3.000000000E-01 1.000000000E+00 4.616169194E-02
 -3.500000000E-01 1.000000000E+00 4.181697825E-02
 -4.000000000E-01 1.000000000E+00 3.483251230E-02
 -4.500000000E-01 1.000000000E+00 2.347890396E-02
 8.846748400E-01 -1.028483663E-02 3.839812789E-01
 8.104238127E-01 -2.048442061E-02 2.594965552E-01
 9.793781764E-01 -5.253828978E-03 4.466033550E-01
 7.470897326E-01 -3.172349856E-02 1.513401367E-01
 6.759219121E-01 -4.363124762E-02 2.543311693E-02
 6.101183852E-01 -5.431142492E-02 -1.168116241E-01
 5.425006956E-01 -6.423376289E-02 -2.798489105E-01
 4.806756166E-01 -7.200047225E-02 -4.364267811E-01
 4.231667039E-01 -7.757424938E-02 -1.028724760E+00
 3.680145849E-01 -7.861096747E-02 -9.193206802E-01
 3.084760602E-01 -7.904311191E-02 -7.845679395E-01
 2.549801907E-01 -7.616299176E-02 -6.606589059E-01