TITLE     = "Visualization of the solution"
VARIABLES = "x"
"y"
"Pressure_Coefficient"
ZONE T="Zone"
 STRANDID=0, SOLUTIONTIME=0
 Nodes=12229, Elements=23875, ZONETYPE=FEQuadrilateral
 DATAPACKING=POINT
 DT=(DOUBLE DOUBLE DOUBLE )
 1.000170946E+00 5.017932854E-04 3.149151687E-01
 9.889101386E-01 2.721800469E-03 2.570973272E-01
 9.763243198E-01 5.238797981E-03 1.682910361E-01
 9.590391517E-01 8.602160960E-03 1.110222737E-01
 9.432508945E-01 1.168318372E-02 6.559130132E-02
 9.272497296E-01 1.483163238E-02 1.659587480E-02
 9.153180718E-01 1.715016179E-02 -1.388521165E-02
 9.033536315E-01 1.947485469E-02 -4.837069002E-02
 8.915203214E-01 2.175210416E-02 -8.356000274E-02
 8.793879747E-01 2.403199486E-02 -1.089249025E-01
 8.668794036E-01 2.636973001E-02 -1.477680645E-01
 8.539685011E-01 2.869728208E-02 -1.718013514E-01
 8.409483433E-01 3.098859452E-02 -1.945985518E-01
 8.302272558E-01 3.283993527E-02 -2.132012788E-01
 8.182991743E-01 3.487960249E-02 -2.401758254E-01
 8.052848577E-01 3.703932092E-02 -2.605217942E-01
 7.926705480E-01 3.910987452E-02 -2.914743979E-01
 7.799019814E-01 4.111809283E-02 -3.023796067E-01
 7.678771019E-01 4.300525039E-02 -3.343020079E-01
 7.562270761E-01 4.477661103E-02 -3.558115976E-01
 7.432010770E-01 4.668728635E-02 -3.666530556E-01
 7.295344472E-01 4.865996912E-02 -3.937336159E-01
 7.195026278E-01 5.010030046E-02 -4.328254937E-01
 7.087330222E-01 5.155550689E-02 -4.374538579E-01
 6.974660754E-01 5.305670202E-02 -4.591146463E-01
 6.840823889E-01 5.477531999E-02 -4.821713415E-01
 6.715164185E-01 5.633017048E-02 -5.079451876E-01
 6.622005105E-01 5.743910372E-02 -5.173876130E-01
 6.510618925E-01 5.871507525E-02 -5.329653099E-01
 6.393909454E-01 6.000352651E-02 -5.355845436E-01
 6.279422045E-01 6.120891497E-02 -4.928854298E-01
 6.169056296E-01 6.231696904E-02 -4.994446349E-01
 6.062139869E-01 6.330977380E-02 -8.390087676E-01
 5.937420726E-01 6.441545486E-02 -9.692392311E-01
 5.827621818E-01 6.532279402E-02 -9.216080725E-01
 5.695852041E-01 6.632498652E-02 -9.136277692E-01
 5.577405095E-01 6.713886559E-02 -9.056263159E-01
 5.463188291E-01 6.786476076E-02 -8.921635211E-01
 5.360234976E-01 6.843271852E-02 -8.649278125E-01
 5.250662565E-01 6.897319853E-02 -8.691085490E-01
 5.131457448E-01 6.954480708E-02 -8.619159800E-01
 5.019941330E-01 6.996542960E-02 -8.283684344E-01
 4.891826510E-01 7.038839906E-02 -8.189440090E-01
 4.755123854E-01 7.074142992E-02 -7.930048050E-01
 4.616115093E-01 7.098745555E-02 -7.753905011E-01
 4.484677017E-01 7.116460055E-02 -7.613810883E-01
 4.356581271E-01 7.123865187E-02 -7.207499792E-01
 4.229286909E-01 7.121597975E-02 -6.941221701E-01
 4.105201662E-01 7.114455849E-02 -6.923297567E-01
 3.986602724E-01 7.101196051E-02 -6.854121351E-01
 3.862913549E-01 7.081045210E-02 -6.793332482E-01
 3.750444949E-01 7.056719065E-02 -6.665023975E-01
 3.621113300E-01 7.021610439E-02 -6.562284736E-01
 3.495091200E-01 6.979977340E-02 -6.318825936E-01
 3.360274136E-01 6.925742328E-02 -6.063022925E-01
 3.248124123E-01 6.876412779E-02 -6.025229807E-01
 3.120181859E-01 6.813666970E-02 -5.964973770E-01
 2.985121310E-01 6.737779081E-02 -5.788349225E-01
 2.843427062E-01 6.648381799E-02 -5.604433031E-01
 2.717299461E-01 6.559908390E-02 -5.404532274E-01
 2.595074177E-01 6.467842311E-02 -5.267943348E-01
 2.468959540E-01 6.364835799E-02 -5.157867460E-01
 2.342292219E-01 6.253268570E-02 -5.037235422E-01
 2.216026634E-01 6.131151691E-02 -4.814413880E-01
 2.098048776E-01 6.009960547E-02 -4.676195206E-01
 1.979778856E-01 5.879333243E-02 -4.480144343E-01
 1.853078902E-01 5.730387196E-02 -4.340410205E-01
 1.734107137E-01 5.579479411E-02 -4.134363637E-01
 1.623356938E-01 5.430461839E-02 -3.946872629E-01
 1.504128128E-01 5.259151384E-02 -3.767500884E-01
 1.398305148E-01 5.096531659E-02 -3.520471295E-01
 1.281648874E-01 4.906395450E-02 -3.301216862E-01
 1.168675572E-01 4.708792269E-02 -3.039077255E-01
 1.063512638E-01 4.513226822E-02 -2.822476021E-01
 9.632853419E-02 4.313810915E-02 -2.536996919E-01
 8.535120636E-02 4.079204798E-02 -2.161332598E-01
 7.350559533E-02 3.805331513E-02 -1.831567156E-01
 6.368063390E-02 3.556745872E-02 -1.377123764E-01
 5.349953473E-02 3.277246282E-02 -8.434692539E-02
 4.496376589E-02 3.019578382E-02 -3.965252206E-02
 3.788800538E-02 2.787195519E-02 1.017128196E-02
 3.156084195E-02 2.560324222E-02 6.737007892E-02
 2.597535215E-02 2.341265418E-02 1.180591227E-01
 2.198269777E-02 2.171312086E-02 1.760443819E-01
 1.807447709E-02 1.990421116E-02 2.332595076E-01
 1.496140566E-02 1.833691634E-02 2.965824742E-01
 1.210808475E-02 1.676736958E-02 3.562533065E-01
 1.000277326E-02 1.550923940E-02 4.177761842E-01
 8.212508634E-03 1.435315609E-02 4.659941199E-01
 6.590695586E-03 1.320284232E-02 5.473707040E-01
 4.443213344E-03 1.150245871E-02 6.559733681E-01
 2.510667546E-03 9.684889577E-03 7.572664410E-01
 9.190538549E-04 7.812906988E-03 9.609152581E-01
 -6.493531400E-04 5.077749491E-03 1.152752578E+00
 -1.187788672E-03 3.110854421E-03 1.191145067E+00
 -1.250262954E-03 1.613358618E-03 1.135497742E+00
 -1.005905215E-03 1.231565111E-04 9.943628279E-01
 -4.954400938E-04 -1.256279415E-03 7.866532482E-01
 5.246659857E-04 -2.939868253E-03 5.808126920E-01
 1.951030572E-03 -4.574552178E-03 3.501383008E-01
 3.908786923E-03 -6.271708757E-03 1.822168135E-01
 5.687869620E-03 -7.517392747E-03 4.622535290E-02
 7.652696688E-03 -8.698118851E-03 -2.370784000E-02
 9.259505197E-03 -9.558603168E-03 -8.523269832E-02
 1.140307542E-02 -1.059127785E-02 -1.188554373E-01
 1.380044501E-02 -1.162845362E-02 -1.533324302E-01
 1.719707809E-02 -1.294424664E-02 -1.822448843E-01
 2.010751516E-02 -1.395187993E-02 -2.161568804E-01
 2.396195009E-02 -1.516721211E-02 -2.234385896E-01
 2.953589335E-02 -1.673866436E-02 -2.304928156E-01
 3.560159355E-02 -1.825765334E-02 -2.436807484E-01
 4.310820252E-02 -1.993480138E-02 -2.470299821E-01
 5.097848549E-02 -2.151456103E-02 -2.499760630E-01
 6.061691791E-02 -2.326197177E-02 -2.493319866E-01
 6.964179128E-02 -2.475177869E-02 -2.546806369E-01
 8.010231704E-02 -2.634475753E-02 -2.569249283E-01
 9.060965478E-02 -2.782096900E-02 -2.589422211E-01
 1.009374857E-01 -2.917173132E-02 -2.619992248E-01
 1.124594957E-01 -3.058983758E-02 -2.688751674E-01
 1.240292713E-01 -3.191604093E-02 -2.748821336E-01
 1.360623688E-01 -3.321225196E-02 -2.817394892E-01
 1.469256282E-01 -3.431335092E-02 -2.900769664E-01
 1.582288146E-01 -3.539527953E-02 -2.972982532E-01
 1.707131863E-01 -3.651994839E-02 -3.059592978E-01
 1.826752126E-01 -3.753449023E-02 -3.179870157E-01
 1.946978718E-01 -3.848642856E-02 -3.277131562E-01
 2.055858821E-01 -3.929635510E-02 -3.399507919E-01
 2.168603390E-01 -4.007487372E-02 -3.480451526E-01
 2.292662561E-01 -4.087515175E-02 -3.613361002E-01
 2.425737828E-01 -4.165539518E-02 -3.743771714E-01
 2.550080419E-01 -4.231489450E-02 -3.905292344E-01
 2.671844661E-01 -4.287731275E-02 -3.978693811E-01
 2.781969905E-01 -4.333747551E-02 -4.127724354E-01
 2.907719910E-01 -4.378592968E-02 -4.262702483E-01
 3.030273318E-01 -4.413379729E-02 -4.341479527E-01
 3.159446418E-01 -4.442926869E-02 -4.521651332E-01
 3.276771009E-01 -4.459467530E-02 -4.595523930E-01
 3.398294747E-01 -4.468471184E-02 -4.670151170E-01
 3.505975306E-01 -4.466988146E-02 -4.638097977E-01
 3.617422283E-01 -4.459600151E-02 -4.704153285E-01
 3.720491529E-01 -4.444353282E-02 -4.729531234E-01
 3.823109269E-01 -4.421559349E-02 -4.686763136E-01
 3.934367299E-01 -4.387573153E-02 -4.574363639E-01
 4.063286483E-01 -4.336458817E-02 -4.387541307E-01
 4.182552397E-01 -4.277625307E-02 -4.174376902E-01
 4.303166866E-01 -4.208682850E-02 -3.970433661E-01
 4.421754777E-01 -4.130271822E-02 -3.715325558E-01
 4.534732997E-01 -4.046103358E-02 -3.414957446E-01
 4.645912051E-01 -3.956643492E-02 -3.199569307E-01
 4.762545526E-01 -3.851967305E-02 -2.802203866E-01
 4.869537354E-01 -3.751327842E-02 -2.546330553E-01
 4.994444847E-01 -3.625513613E-02 -2.165182912E-01
 5.129032135E-01 -3.483716026E-02 -1.818494443E-01
 5.262318850E-01 -3.337678686E-02 -1.497363221E-01
 5.395568609E-01 -3.185752034E-02 -1.147490586E-01
 5.516174436E-01 -3.045722097E-02 -8.694604531E-02
 5.646899343E-01 -2.892700024E-02 -6.359242684E-02
 5.770252943E-01 -2.743276581E-02 -3.059925213E-02
 5.883643031E-01 -2.607967891E-02 -1.366895870E-02
 6.004339457E-01 -2.460836619E-02 1.539804558E-02
 6.153158545E-01 -2.282426506E-02 3.701327577E-02
 6.299484372E-01 -2.107345685E-02 6.102467682E-02
 6.455885768E-01 -1.921698451E-02 8.377660254E-02
 6.585680842E-01 -1.769180782E-02 1.021654132E-01
 6.717607975E-01 -1.614805497E-02 1.218511547E-01
 6.836916208E-01 -1.476090215E-02 1.431127409E-01
 6.961402893E-01 -1.336280443E-02 1.567615433E-01
 7.106767297E-01 -1.176728122E-02 1.722511344E-01
 7.238972187E-01 -1.034080423E-02 1.888104599E-01
 7.361282110E-01 -9.052833542E-03 2.024198518E-01
 7.493135333E-01 -7.679680828E-03 2.215959544E-01
 7.608231306E-01 -6.516885944E-03 2.392525084E-01
 7.741590142E-01 -5.258034915E-03 2.475956474E-01
 7.858449221E-01 -4.184877966E-03 2.607569808E-01
 7.984284163E-01 -3.049562685E-03 2.806943416E-01
 8.096090555E-01 -2.123245038E-03 2.901555881E-01
 8.214108348E-01 -1.187553862E-03 3.055689943E-01
 8.350541592E-01 -2.081112325E-04 3.169804028E-01
 8.477999568E-01 6.224064273E-04 3.306904486E-01
 8.602909446E-01 1.330332481E-03 3.407029143E-01
 8.727713227E-01 1.937554800E-03 3.515039841E-01
 8.853800297E-01 2.426590305E-03 3.589952422E-01
 8.988917470E-01 2.806080272E-03 3.646609120E-01
 9.094829559E-01 2.986223437E-03 3.680173255E-01
 9.199124575E-01 3.067422193E-03 3.684495538E-01
 9.288846850E-01 3.057178343E-03 3.679605184E-01
 9.371109605E-01 2.985985251E-03 3.681025256E-01
 9.482544065E-01 2.794781467E-03 3.640376933E-01
 9.600569606E-01 2.474370413E-03 3.591196064E-01
 9.749338627E-01 1.902928692E-03 3.515851172E-01
 9.881556630E-01 1.267055166E-03 3.540776238E-01
 -5.000000000E-01 -1.000000000E+00 1.442630076E-02
 3.500000000E+00 -1.000000000E+00 8.060753322E-03
 3.500000000E+00 1.000000000E+00 -3.590365131E-02
 -5.000000000E-01 1.000000000E+00 1.318638856E-02
 9.945405424E-01 1.611796877E-03 3.284647532E-01
 9.826172292E-01 3.980299225E-03 2.037569741E-01
 9.676817358E-01 6.920479471E-03 1.373306577E-01
 9.511450231E-01 1.014267234E-02 8.826416821E-02
 9.352503121E-01 1.325740805E-02 3.861869883E-02
 9.212839007E-01 1.599089708E-02 1.351270094E-03
 9.093358517E-01 1.831250824E-02 -3.100776177E-02
 8.974369764E-01 2.061347943E-02 -6.788845281E-02
 8.854541481E-01 2.289204951E-02 -9.421499951E-02
 8.731336892E-01 2.520086244E-02 -1.307061287E-01
 8.604239523E-01 2.753350604E-02 -1.600103809E-01
 8.474584222E-01 2.984293830E-02 -1.831794960E-01
 8.355877995E-01 3.191426490E-02 -2.025716229E-01
 8.242632151E-01 3.385976888E-02 -2.288821007E-01
 8.117920160E-01 3.595946170E-02 -2.476751460E-01
 7.989777029E-01 3.807459772E-02 -2.799121373E-01
 7.862862647E-01 4.011398368E-02 -2.935487774E-01
 7.738895416E-01 4.206167161E-02 -3.191324506E-01
 7.620520890E-01 4.389093071E-02 -3.473553239E-01
 7.497140765E-01 4.573194869E-02 -3.606882915E-01
 7.363677621E-01 4.767362773E-02 -3.751285569E-01
 7.245185375E-01 4.938013479E-02 -4.203619664E-01
 7.141178250E-01 5.082790367E-02 -4.320603065E-01
 7.030995488E-01 5.230610445E-02 -4.492805347E-01
 6.907742321E-01 5.391601101E-02 -4.702752589E-01
 6.777994037E-01 5.555274524E-02 -4.945605331E-01
 6.566312015E-01 5.807708949E-02 -5.255652648E-01
 6.452264190E-01 5.935930088E-02 -5.386416279E-01
 6.336665750E-01 6.060622074E-02 -5.195215826E-01
 6.224239171E-01 6.176294200E-02 -4.721972103E-01
 6.115598083E-01 6.281337142E-02 -6.305041240E-01
 5.999780297E-01 6.386261433E-02 -9.574150597E-01
 5.882521272E-01 6.486912444E-02 -9.415469781E-01
 5.761736929E-01 6.582389027E-02 -9.163971808E-01
 5.636628568E-01 6.673192605E-02 -9.077457065E-01
 5.520296693E-01 6.750181317E-02 -9.030846638E-01
 5.411711633E-01 6.814873964E-02 -8.760792272E-01
 5.305448771E-01 6.870295852E-02 -8.604874997E-01
 5.191060007E-01 6.925900280E-02 -8.770963066E-01
 5.075699389E-01 6.975511834E-02 -8.384650554E-01
 4.955883920E-01 7.017691433E-02 -8.260668396E-01
 4.823475182E-01 7.056491449E-02 -8.082448715E-01
 4.685619473E-01 7.086444274E-02 -7.790032968E-01
 4.550396055E-01 7.107602805E-02 -7.732431706E-01
 4.420629144E-01 7.120162621E-02 -7.426230346E-01
 4.292934090E-01 7.122731581E-02 -7.014952858E-01
 4.167244285E-01 7.118026912E-02 -6.933761113E-01
 4.045902193E-01 7.107825950E-02 -6.891281407E-01
 3.924758136E-01 7.091120631E-02 -6.823877734E-01
 3.806679249E-01 7.068882138E-02 -6.737857831E-01
 3.685779124E-01 7.039164752E-02 -6.614190917E-01
 3.558102250E-01 7.000793889E-02 -6.478010411E-01
 3.427682668E-01 6.952859834E-02 -6.143263267E-01
 3.304199129E-01 6.901077554E-02 -6.038416405E-01
 3.184152991E-01 6.845039874E-02 -6.021382459E-01
 3.052651584E-01 6.775723025E-02 -5.883511659E-01
 2.914274186E-01 6.693080440E-02 -5.699398428E-01
 2.780363262E-01 6.604145095E-02 -5.484905850E-01
 2.656186819E-01 6.513875350E-02 -5.343780498E-01
 2.532016858E-01 6.416339055E-02 -5.200683031E-01
 2.405625880E-01 6.309052184E-02 -5.128168827E-01
 2.279159427E-01 6.192210130E-02 -4.902147482E-01
 2.157037705E-01 6.070556119E-02 -4.754985512E-01
 2.038913816E-01 5.944646895E-02 -4.573717557E-01
 1.916428879E-01 5.804860219E-02 -4.423010975E-01
 1.793593019E-01 5.654933304E-02 -4.221956333E-01
 1.678732038E-01 5.504970625E-02 -4.055608522E-01
 1.563742533E-01 5.344806612E-02 -3.852442185E-01
 1.451216638E-01 5.177841522E-02 -3.649073771E-01
 1.339977011E-01 5.001463555E-02 -3.422786209E-01
 1.225162223E-01 4.807593860E-02 -3.157669656E-01
 1.116094105E-01 4.611009546E-02 -2.931820113E-01
 1.013398990E-01 4.413518868E-02 -2.702731014E-01
 9.083987027E-02 4.196507856E-02 -2.376469078E-01
 7.942840084E-02 3.942268156E-02 -1.986898221E-01
 6.859311461E-02 3.681038693E-02 -1.611248955E-01
 5.859008431E-02 3.416996077E-02 -1.192517557E-01
 7.487205416E-02 -2.554826811E-02 -2.560659722E-01
 8.535598591E-02 -2.708286326E-02 -2.586640713E-01
 9.577357024E-02 -2.849635016E-02 -2.613909936E-01
 1.066984907E-01 -2.988078445E-02 -2.638955389E-01
 1.182443835E-01 -3.125293925E-02 -2.728253689E-01
 1.300458200E-01 -3.256414644E-02 -2.776727776E-01
 1.414939985E-01 -3.376280144E-02 -2.869849614E-01
 1.525772214E-01 -3.485431522E-02 -2.932577111E-01
 1.644710004E-01 -3.595761396E-02 -3.011351468E-01
 1.766941994E-01 -3.702721931E-02 -3.120920460E-01
 1.886865422E-01 -3.801045939E-02 -3.231172280E-01
 2.001418769E-01 -3.889139183E-02 -3.338618561E-01
 2.112231106E-01 -3.968561441E-02 -3.442742702E-01
 2.230632976E-01 -4.047501273E-02 -3.532691774E-01
 2.359200194E-01 -4.126527347E-02 -3.678441627E-01
 2.487909123E-01 -4.198514484E-02 -3.824658443E-01
 2.610962540E-01 -4.259610362E-02 -3.956670039E-01
 2.726907283E-01 -4.310739413E-02 -4.040449862E-01
 2.844844908E-01 -4.356170259E-02 -4.191452116E-01
 2.968996614E-01 -4.395986348E-02 -4.313465605E-01
 3.094859868E-01 -4.428153299E-02 -4.405842786E-01
 3.218108714E-01 -4.451197200E-02 -4.593963125E-01
 3.337532878E-01 -4.463969357E-02 -4.613829699E-01
 3.452135026E-01 -4.467729665E-02 -4.694589786E-01
 3.561698794E-01 -4.463294148E-02 -4.641202037E-01
 3.668956906E-01 -4.451976717E-02 -4.741386954E-01
 3.771800399E-01 -4.432956316E-02 -4.703542566E-01
 3.878738284E-01 -4.404566251E-02 -4.638424574E-01
 3.998826891E-01 -4.362015985E-02 -4.473375659E-01
 4.122919440E-01 -4.307042062E-02 -4.301322107E-01
 4.242859632E-01 -4.243154079E-02 -4.060942066E-01
 4.362460822E-01 -4.169477336E-02 -3.857917772E-01
 4.478243887E-01 -4.088187590E-02 -3.572751966E-01
 4.590322524E-01 -4.001373425E-02 -3.295554314E-01
 4.704228789E-01 -3.904305398E-02 -3.026587364E-01
 4.816041440E-01 -3.801647574E-02 -2.658653495E-01
 4.931991100E-01 -3.688420728E-02 -2.369672276E-01
 5.061738491E-01 -3.554614820E-02 -1.984755020E-01
 5.195675492E-01 -3.410697356E-02 -1.658233367E-01
 5.328943729E-01 -3.261715360E-02 -1.329015445E-01
 5.455871522E-01 -3.115737066E-02 -1.002655770E-01
 5.581536889E-01 -2.969211061E-02 -7.451084528E-02
 5.708576143E-01 -2.817988303E-02 -4.870309591E-02
 5.826947987E-01 -2.675622236E-02 -1.993042405E-02
 5.943991244E-01 -2.534402255E-02 -1.127013919E-03
 6.078749001E-01 -2.371631563E-02 2.679253151E-02
 6.226321459E-01 -2.194886096E-02 4.892634858E-02
 6.377685070E-01 -2.014522068E-02 7.251106224E-02
 6.520783305E-01 -1.845439617E-02 9.364546377E-02
 6.651644409E-01 -1.691993140E-02 1.115335740E-01
 6.777262092E-01 -1.545447856E-02 1.320992154E-01
 6.899159551E-01 -1.406185329E-02 1.506039422E-01
 7.034085095E-01 -1.256504282E-02 1.642168807E-01
 7.172869742E-01 -1.105404273E-02 1.808444737E-01
 7.300127149E-01 -9.696818888E-03 1.959168850E-01
 7.427208722E-01 -8.366257185E-03 2.109269803E-01
 7.550683320E-01 -7.098283386E-03 2.306695695E-01
 7.674910724E-01 -5.887460429E-03 2.441020529E-01
 7.800019681E-01 -4.721456440E-03 2.541989925E-01
 7.921366692E-01 -3.617220325E-03 2.691051148E-01
 8.040187359E-01 -2.586403862E-03 2.871778137E-01
 8.155099452E-01 -1.655399450E-03 2.965266860E-01
 8.282324970E-01 -6.978325473E-04 3.107670593E-01
 8.414270580E-01 2.071475974E-04 3.239518987E-01
 8.540454507E-01 9.763694543E-04 3.360937802E-01
 8.665311337E-01 1.633943641E-03 3.455310973E-01
 8.790756762E-01 2.182072552E-03 3.551791023E-01
 8.921358883E-01 2.616335289E-03 3.615684855E-01
 9.041873515E-01 2.896151855E-03 3.686098386E-01
 9.146977067E-01 3.026822815E-03 3.687342304E-01
 9.426826835E-01 2.890383359E-03 3.648755204E-01
 9.541556835E-01 2.634575940E-03 3.614604818E-01
 9.674954116E-01 2.188649552E-03 3.536763080E-01
 9.815447628E-01 1.584991929E-03 3.521227605E-01
 9.941633046E-01 8.844242257E-04 3.856988872E-01
 -5.000000000E-01 9.500000000E-01 2.161417858E-02
 -5.000000000E-01 9.000000000E-01 3.269497210E-02
 -5.000000000E-01 8.500000000E-01 4.130943461E-02
 -5.000000000E-01 8.000000000E-01 4.885789895E-02
 -5.000000000E-01 7.500000000E-01 5.611546570E-02
 -5.000000000E-01 7.000000000E-01 6.331851171E-02
 -5.000000000E-01 6.500000000E-01 7.067729455E-02
 -5.000000000E-01 6.000000000E-01 7.822726741E-02
 -5.000000000E-01 5.500000000E-01 8.593412662E-02
 -5.000000000E-01 5.000000000E-01 9.394487094E-02
 -5.000000000E-01 4.500000000E-01 1.018447462E-01
 -5.000000000E-01 4.000000000E-01 1.099881681E-01
 -5.000000000E-01 3.500000000E-01 1.178890513E-01
 -5.000000000E-01 3.000000000E-01 1.253738584E-01
 -5.000000000E-01 2.500000000E-01 1.323926976E-01
 -5.000000000E-01 2.000000000E-01 1.384628931E-01
 -5.000000000E-01 1.500000000E-01 1.435130048E-01
 -5.000000000E-01 1.000000000E-01 1.472298834E-01
 -5.000000000E-01 5.000000000E-02 1.493834292E-01
 -5.000000000E-01 2.752242878E-12 1.501365007E-01
 -5.000000000E-01 -5.000000000E-02 1.492037097E-01
 -5.000000000E-01 -1.000000000E-01 1.467608711E-01
 -5.000000000E-01 -1.500000000E-01 1.429730482E-01
 -5.000000000E-01 -2.000000000E-01 1.378956205E-01
 -5.000000000E-01 -2.500000000E-01 1.320892850E-01
 -5.000000000E-01 -3.000000000E-01 1.254341083E-01
 -5.000000000E-01 -3.500000000E-01 1.182341403E-01
 -5.000000000E-01 -4.000000000E-01 1.109023526E-01
 -5.000000000E-01 -4.500000000E-01 1.033750007E-01
 -5.000000000E-01 -5.000000000E-01 9.586347527E-02
 -5.000000000E-01 -5.500000000E-01 8.841468499E-02
 -5.000000000E-01 -6.000000000E-01 8.119012743E-02
 -5.000000000E-01 -6.500000000E-01 7.395825716E-02
 -5.000000000E-01 -7.000000000E-01 6.684477315E-02
 -5.000000000E-01 -7.500000000E-01 5.961104717E-02
 -5.000000000E-01 -8.000000000E-01 5.235935309E-02
 -5.000000000E-01 -8.500000000E-01 4.446526117E-02
 -5.000000000E-01 -9.000000000E-01 3.558728781E-02
 -5.000000000E-01 -9.500000000E-01 2.353442489E-02
 -4.500000000E-01 -1.000000000E+00 1.945610461E-02
 -4.000000000E-01 -1.000000000E+00 2.905417846E-02
 -3.500000000E-01 -1.000000000E+00 3.519689710E-02
 -3.000000000E-01 -1.000000000E+00 3.925519444E-02
 -2.500000000E-01 -1.000000000E+00 4.199626087E-02
 -2.000000000E-01 -1.000000000E+00 4.343452377E-02
 -1.500000000E-01 -1.000000000E+00 4.368770693E-02
 -1.000000000E-01 -1.000000000E+00 4.260239927E-02
 -5.000000000E-02 -1.000000000E+00 4.048387839E-02
 -9.424683256E-13 -1.000000000E+00 3.725198684E-02
 5.000000000E-02 -1.000000000E+00 3.306616200E-02
 1.000000000E-01 -1.000000000E+00 2.834696398E-02
 1.500000000E-01 -1.000000000E+00 2.301986407E-02
 2.000000000E-01 -1.000000000E+00 1.758610710E-02
 2.500000000E-01 -1.000000000E+00 1.217427232E-02
 3.000000000E-01 -1.000000000E+00 7.283540809E-03
 3.500000000E-01 -1.000000000E+00 3.116003244E-03
 4.000000000E-01 -1.000000000E+00 -3.573277120E-05
 4.500000000E-01 -1.000000000E+00 -1.959022041E-03
 5.000000000E-01 -1.000000000E+00 -2.533677505E-03
 5.500000000E-01 -1.000000000E+00 -1.750830208E-03
 6.000000000E-01 -1.000000000E+00 2.892933152E-04
 6.500000000E-01 -1.000000000E+00 3.453961459E-03
 7.000000000E-01 -1.000000000E+00 7.520344843E-03
 7.500000000E-01 -1.000000000E+00 1.223695228E-02
 8.000000000E-01 -1.000000000E+00 1.733813861E-02
 8.500000000E-01 -1.000000000E+00 2.264177638E-02
 9.000000000E-01 -1.000000000E+00 2.793619140E-02
 9.500000000E-01 -1.000000000E+00 3.294208582E-02
 1.000000000E+00 -1.000000000E+00 3.747800784E-02
 1.050000000E+00 -1.000000000E+00 4.146255531E-02
 1.100000000E+00 -1.000000000E+00 4.490037744E-02
 1.150000000E+00 -1.000000000E+00 4.769975803E-02
 1.200000000E+00 -1.000000000E+00 4.991732676E-02
 1.250000000E+00 -1.000000000E+00 5.147799746E-02
 1.300000000E+00 -1.000000000E+00 5.251507118E-02
 1.350000000E+00 -1.000000000E+00 5.305210194E-02
 1.400000000E+00 -1.000000000E+00 5.315533079E-02
 1.450000000E+00 -1.000000000E+00 5.287039309E-02
 1.500000000E+00 -1.000000000E+00 5.229675168E-02
 1.550000000E+00 -1.000000000E+00 5.144944818E-02
 1.600000000E+00 -1.000000000E+00 5.040289468E-02
 1.650000000E+00 -1.000000000E+00 4.920462481E-02
 1.700000000E+00 -1.000000000E+00 4.786048533E-02
 1.750000000E+00 -1.000000000E+00 4.644785531E-02
 1.800000000E+00 -1.000000000E+00 4.496736075E-02
 1.850000000E+00 -1.000000000E+00 4.346822412E-02
 1.900000000E+00 -1.000000000E+00 4.194923388E-02
 1.950000000E+00 -1.000000000E+00 4.043314296E-02
 2.000000000E+00 -1.000000000E+00 3.891699671E-02
 2.050000000E+00 -1.000000000E+00 3.745499734E-02
 2.100000000E+00 -1.000000000E+00 3.603867297E-02
 2.150000000E+00 -1.000000000E+00 3.463535874E-02
 2.200000000E+00 -1.000000000E+00 3.328820398E-02
 2.250000000E+00 -1.000000000E+00 3.199448079E-02
 2.300000000E+00 -1.000000000E+00 3.075206845E-02
 2.350000000E+00 -1.000000000E+00 2.957512459E-02
 2.400000000E+00 -1.000000000E+00 2.844175553E-02
 2.450000000E+00 -1.000000000E+00 2.739124805E-02
 2.500000000E+00 -1.000000000E+00 2.636139223E-02
 2.550000000E+00 -1.000000000E+00 2.546164200E-02
 2.600000000E+00 -1.000000000E+00 2.455576031E-02
 2.650000000E+00 -1.000000000E+00 2.373758192E-02
 2.700000000E+00 -1.000000000E+00 2.301728924E-02
 2.750000000E+00 -1.000000000E+00 2.225875139E-02
 2.800000000E+00 -1.000000000E+00 2.157704587E-02
 2.850000000E+00 -1.000000000E+00 2.099795297E-02
 2.900000000E+00 -1.000000000E+00 2.040801261E-02
 2.950000000E+00 -1.000000000E+00 1.991387690E-02
 3.000000000E+00 -1.000000000E+00 1.941498771E-02
 3.050000000E+00 -1.000000000E+00 1.894294470E-02
 3.100000000E+00 -1.000000000E+00 1.849529763E-02
 3.150000000E+00 -1.000000000E+00 1.801779890E-02
 3.200000000E+00 -1.000000000E+00 1.756270473E-02
 3.250000000E+00 -1.000000000E+00 1.699674500E-02
 3.300000000E+00 -1.000000000E+00 1.635679066E-02
 3.350000000E+00 -1.000000000E+00 1.547130066E-02
 3.400000000E+00 -1.000000000E+00 1.409072733E-02
 3.450000000E+00 -1.000000000E+00 1.149065271E-02
 3.500000000E+00 -9.500000000E-01 6.221352968E-03
 3.500000000E+00 -9.000000000E-01 7.173304269E-03
 3.500000000E+00 -8.500000000E-01 8.261152923E-03
 3.500000000E+00 -8.000000000E-01 9.461807074E-03
 3.500000000E+00 -7.500000000E-01 1.063914060E-02
 3.500000000E+00 -7.000000000E-01 1.186525977E-02
 3.500000000E+00 -6.500000000E-01 1.307997678E-02
 3.500000000E+00 -6.000000000E-01 1.429952228E-02
 3.500000000E+00 -5.500000000E-01 1.556548642E-02
 3.500000000E+00 -5.000000000E-01 1.682280275E-02
 3.500000000E+00 -4.500000000E-01 1.813510827E-02
 3.500000000E+00 -4.000000000E-01 1.941187901E-02
 3.500000000E+00 -3.500000000E-01 2.071659356E-02
 3.500000000E+00 -3.000000000E-01 2.195309453E-02
 3.500000000E+00 -2.500000000E-01 2.285391393E-02
 3.500000000E+00 -2.000000000E-01 2.305292330E-02
 3.500000000E+00 -1.500000000E-01 2.265838639E-02
 3.500000000E+00 -1.000000000E-01 2.213247342E-02
 3.500000000E+00 -5.000000000E-02 2.185527076E-02
 3.500000000E+00 -2.752242878E-12 2.203776714E-02
 3.500000000E+00 5.000000000E-02 2.245535398E-02
 3.500000000E+00 1.000000000E-01 2.265952677E-02
 3.500000000E+00 1.500000000E-01 2.247545425E-02
 3.500000000E+00 2.000000000E-01 2.156660925E-02
 3.500000000E+00 2.500000000E-01 2.028974002E-02
 3.500000000E+00 3.000000000E-01 1.886971367E-02
 3.500000000E+00 3.500000000E-01 1.744331361E-02
 3.500000000E+00 4.000000000E-01 1.601847007E-02
 3.500000000E+00 4.500000000E-01 1.451920919E-02
 3.500000000E+00 5.000000000E-01 1.305635470E-02
 3.500000000E+00 5.500000000E-01 1.189580323E-02
 3.500000000E+00 6.000000000E-01 1.136729059E-02
 3.500000000E+00 6.500000000E-01 1.129769200E-02
 3.500000000E+00 7.000000000E-01 1.121998326E-02
 3.500000000E+00 7.500000000E-01 7.724126816E-03
 3.500000000E+00 8.000000000E-01 3.664100962E-06
 3.500000000E+00 8.500000000E-01 -1.173225239E-02
 3.500000000E+00 9.000000000E-01 -2.732021103E-02
 3.500000000E+00 9.500000000E-01 -4.147612045E-02
 3.450000000E+00 1.000000000E+00 -1.955226916E-02
 3.400000000E+00 1.000000000E+00 -9.261455745E-03
 3.350000000E+00 1.000000000E+00 -5.384088495E-03
 3.300000000E+00 1.000000000E+00 -4.573833026E-03
 3.250000000E+00 1.000000000E+00 -4.329987646E-03
 3.200000000E+00 1.000000000E+00 -4.906911423E-03
 3.150000000E+00 1.000000000E+00 -5.353510130E-03
 3.100000000E+00 1.000000000E+00 -6.402036102E-03
 3.050000000E+00 1.000000000E+00 -7.211615919E-03
 3.000000000E+00 1.000000000E+00 -8.176899829E-03
 2.950000000E+00 1.000000000E+00 -9.365369457E-03
 2.900000000E+00 1.000000000E+00 -1.034478508E-02
 2.850000000E+00 1.000000000E+00 -1.169949354E-02
 2.800000000E+00 1.000000000E+00 -1.280379099E-02
 2.750000000E+00 1.000000000E+00 -1.405852285E-02
 2.700000000E+00 1.000000000E+00 -1.541465663E-02
 2.650000000E+00 1.000000000E+00 -1.675789817E-02
 2.600000000E+00 1.000000000E+00 -1.826429425E-02
 2.550000000E+00 1.000000000E+00 -1.961974721E-02
 2.500000000E+00 1.000000000E+00 -2.143130286E-02
 2.450000000E+00 1.000000000E+00 -2.301063632E-02
 2.400000000E+00 1.000000000E+00 -2.498740753E-02
 2.350000000E+00 1.000000000E+00 -2.677274834E-02
 2.300000000E+00 1.000000000E+00 -2.847534379E-02
 2.250000000E+00 1.000000000E+00 -3.063343974E-02
 2.200000000E+00 1.000000000E+00 -3.266954453E-02
 2.150000000E+00 1.000000000E+00 -3.513606086E-02
 2.100000000E+00 1.000000000E+00 -3.771141884E-02
 2.050000000E+00 1.000000000E+00 -4.028268878E-02
 2.000000000E+00 1.000000000E+00 -4.311880985E-02
 1.950000000E+00 1.000000000E+00 -4.653701271E-02
 1.900000000E+00 1.000000000E+00 -4.913518416E-02
 1.850000000E+00 1.000000000E+00 -5.266962552E-02
 1.800000000E+00 1.000000000E+00 -5.677074156E-02
 1.750000000E+00 1.000000000E+00 -6.082976999E-02
 1.700000000E+00 1.000000000E+00 -6.534014923E-02
 1.650000000E+00 1.000000000E+00 -6.988853955E-02
 1.600000000E+00 1.000000000E+00 -7.538161751E-02
 1.550000000E+00 1.000000000E+00 -8.115968261E-02
 1.500000000E+00 1.000000000E+00 -8.643758073E-02
 1.450000000E+00 1.000000000E+00 -9.391716370E-02
 1.400000000E+00 1.000000000E+00 -1.003461092E-01
 1.350000000E+00 1.000000000E+00 -1.079062690E-01
 1.300000000E+00 1.000000000E+00 -1.159167041E-01
 1.250000000E+00 1.000000000E+00 -1.241450593E-01
 1.200000000E+00 1.000000000E+00 -1.328395017E-01
 1.150000000E+00 1.000000000E+00 -1.409946556E-01
 1.100000000E+00 1.000000000E+00 -1.498582908E-01
 1.050000000E+00 1.000000000E+00 -1.578413528E-01
 1.000000000E+00 1.000000000E+00 -1.656635480E-01
 9.500000000E-01 1.000000000E+00 -1.707278669E-01
 9.000000000E-01 1.000000000E+00 -1.754081343E-01
 8.500000000E-01 1.000000000E+00 -1.775720037E-01
 8.000000000E-01 1.000000000E+00 -1.784371242E-01
 7.500000000E-01 1.000000000E+00 -1.749754809E-01
 7.000000000E-01 1.000000000E+00 -1.709812319E-01
 6.500000000E-01 1.000000000E+00 -1.623462759E-01
 6.000000000E-01 1.000000000E+00 -1.522683555E-01
 5.500000000E-01 1.000000000E+00 -1.397983162E-01
 5.000000000E-01 1.000000000E+00 -1.248746196E-01
 4.500000000E-01 1.000000000E+00 -1.099039712E-01
 4.000000000E-01 1.000000000E+00 -9.302963539E-02
 3.500000000E-01 1.000000000E+00 -7.654861825E-02
 3.000000000E-01 1.000000000E+00 -5.970341393E-02
 2.500000000E-01 1.000000000E+00 -4.360059002E-02
 2.000000000E-01 1.000000000E+00 -2.870731099E-02
 1.500000000E-01 1.000000000E+00 -1.456115011E-02
 1.000000000E-01 1.000000000E+00 -2.169902358E-03
 5.000000000E-02 1.000000000E+00 8.801103645E-03
 1.733724275E-12 1.000000000E+00 1.796593112E-02
 -5.000000000E-02 1.000000000E+00 2.528326016E-02
 -1.000000000E-01 1.000000000E+00 3.070743450E-02
 -1.500000000E-01 1.000000000E+00 3.432321445E-02
 -2.000000000E-01 1.000000000E+00 3.614448982E-02
 -2.500000000E-01 1.000000000E+00 3.627991206E-02
 -3.000000000E-01 1.000000000E+00 3.481008523E-02
 -3.500000000E-01 1.000000000E+00 3.172265877E-02
 -4.000000000E-01 1.000000000E+00 2.642314296E-02
 -4.500000000E-01 1.000000000E+00 1.784943655E-02
 9.842175474E-01 -3.855163015E-03 3.485058961E-01
 8.881542923E-01 -3.052058349E-03 3.531605798E-01
 8.070634852E-01 -7.485055456E-03 2.844049356E-01
 7.336398139E-01 -1.515075692E-02 1.972887300E-01
 6.623644738E-01 -2.400070557E-02 1.058909115E-01
 5.922179125E-01 -3.058597712E-02 -6.470911672E-03
 5.301128561E-01 -3.836620714E-02 -1.381279016E-01
 4.680555550E-01 -4.422478043E-02 -3.033096939E-01
 4.095650527E-01 -4.838186996E-02 -4.244156146E-01
 3.541876055E-01 -4.927204468E-02 -4.571826715E-01