TITLE     = "Visualization of the solution"
VARIABLES = "x"
"y"
"Pressure_Coefficient"
ZONE T="Zone"
 STRANDID=0, SOLUTIONTIME=0
 Nodes=11959, Elements=23336, ZONETYPE=FEQuadrilateral
 DATAPACKING=POINT
 DT=(DOUBLE DOUBLE DOUBLE )
 1.000326514E+00 5.129827186E-04 3.810996691E-01
 9.847820997E-01 3.619539086E-03 2.533601972E-01
 9.717701674E-01 6.256722845E-03 1.782357488E-01
 9.559597969E-01 9.385571815E-03 1.286476010E-01
 9.419466257E-01 1.220489200E-02 7.104936359E-02
 9.296070337E-01 1.461466681E-02 3.831908738E-02
 9.182994962E-01 1.680118591E-02 1.492070255E-02
 9.069288969E-01 1.904743351E-02 -3.947658466E-02
 8.949811459E-01 2.127584442E-02 -5.368014361E-02
 8.828635812E-01 2.357403189E-02 -1.028116965E-01
 8.707300425E-01 2.575211599E-02 -1.189575865E-01
 8.587371111E-01 2.790581994E-02 -1.576010764E-01
 8.466300368E-01 2.997861989E-02 -1.742892272E-01
 8.352735639E-01 3.189785033E-02 -2.008537885E-01
 8.235386610E-01 3.379933909E-02 -2.086506793E-01
 8.112226129E-01 3.578654304E-02 -2.328888837E-01
 7.989274859E-01 3.774549812E-02 -2.672724628E-01
 7.871370316E-01 3.952978551E-02 -2.737398656E-01
 7.749934196E-01 4.135538638E-02 -2.980717751E-01
 7.634420395E-01 4.303560778E-02 -3.096678094E-01
 7.508175969E-01 4.484494030E-02 -3.302093400E-01
 7.376934886E-01 4.669972882E-02 -3.627600344E-01
 7.268282771E-01 4.817303270E-02 -3.766340199E-01
 7.155365944E-01 4.968609661E-02 -4.062059036E-01
 7.037618756E-01 5.119724944E-02 -4.209813534E-01
 6.907241940E-01 5.280746892E-02 -4.326174182E-01
 6.780484915E-01 5.434817076E-02 -4.662030299E-01
 6.667939425E-01 5.566680804E-02 -4.896211335E-01
 6.549642682E-01 5.698199570E-02 -5.038908083E-01
 6.440110207E-01 5.817528814E-02 -5.369098022E-01
 6.318324208E-01 5.942757428E-02 -5.537785103E-01
 6.201171875E-01 6.055617705E-02 -5.655063351E-01
 6.094874740E-01 6.155415624E-02 -5.826540954E-01
 5.975636840E-01 6.260997057E-02 -5.492747947E-01
 5.855049491E-01 6.358928233E-02 -5.545588802E-01
 5.717728734E-01 6.464451551E-02 -7.993916565E-01
 5.583696365E-01 6.557010114E-02 -8.764831702E-01
 5.451626182E-01 6.639744341E-02 -8.491328669E-01
 5.335658193E-01 6.703929603E-02 -8.371001913E-01
 5.211794972E-01 6.766536832E-02 -8.376437783E-01
 5.084850192E-01 6.822344661E-02 -8.176230761E-01
 4.974973798E-01 6.860756129E-02 -8.023420035E-01
 4.844156802E-01 6.903339922E-02 -8.032692239E-01
 4.715757072E-01 6.933883578E-02 -7.800050499E-01
 4.578287601E-01 6.959122419E-02 -7.740762251E-01
 4.439240098E-01 6.976380199E-02 -7.573528195E-01
 4.309532046E-01 6.981447339E-02 -7.368377317E-01
 4.177461267E-01 6.979978085E-02 -7.352490008E-01
 4.050010145E-01 6.971155852E-02 -7.197759996E-01
 3.915579915E-01 6.952571869E-02 -7.043616937E-01
 3.795212507E-01 6.930082291E-02 -6.859138213E-01
 3.677913547E-01 6.899093091E-02 -6.509105070E-01
 3.542657495E-01 6.856928021E-02 -6.500003217E-01
 3.415677547E-01 6.812064350E-02 -6.476529004E-01
 3.288669288E-01 6.756106764E-02 -6.284666883E-01
 3.185034096E-01 6.706740707E-02 -6.256468102E-01
 3.064391613E-01 6.641559303E-02 -6.042085615E-01
 2.941625416E-01 6.566333026E-02 -5.763331776E-01
 2.806652188E-01 6.477657706E-02 -5.724054136E-01
 2.684417367E-01 6.388936192E-02 -5.595981256E-01
 2.565873563E-01 6.294519454E-02 -5.399177979E-01
 2.442348003E-01 6.189135090E-02 -5.244410801E-01
 2.316502333E-01 6.072328985E-02 -5.055439250E-01
 2.196686268E-01 5.954406410E-02 -4.953514834E-01
 2.078578621E-01 5.829048157E-02 -4.780973409E-01
 1.961196810E-01 5.696447194E-02 -4.616830061E-01
 1.839268357E-01 5.549164489E-02 -4.450712407E-01
 1.722179055E-01 5.398553610E-02 -4.271788033E-01
 1.604889780E-01 5.237382278E-02 -4.060214464E-01
 1.489314586E-01 5.069702491E-02 -3.913525720E-01
 1.378588676E-01 4.897804186E-02 -3.683937880E-01
 1.267001331E-01 4.715117067E-02 -3.507970651E-01
 1.157266349E-01 4.523587972E-02 -3.307011418E-01
 1.051534489E-01 4.327826202E-02 -3.059371406E-01
 9.526696056E-02 4.133016616E-02 -2.891609847E-01
 8.473713696E-02 3.911542147E-02 -2.630259484E-01
 7.382890582E-02 3.665618971E-02 -2.338327911E-01
 6.410893798E-02 3.428838402E-02 -2.050342981E-01
 5.477709696E-02 3.183330595E-02 -1.754808030E-01
 4.598289356E-02 2.932298370E-02 -1.410213377E-01
 3.811473399E-02 2.686374821E-02 -1.046320994E-01
 3.122263774E-02 2.450153977E-02 -6.701204259E-02
 2.541222610E-02 2.232225053E-02 -3.351104540E-02
 2.108727209E-02 2.053902298E-02 9.588571709E-03
 1.693384163E-02 1.867456175E-02 4.722194674E-02
 1.381839532E-02 1.713216677E-02 9.529365500E-02
 1.111047436E-02 1.566408388E-02 1.350159950E-01
 9.134471416E-03 1.449513715E-02 1.797771655E-01
 7.278238423E-03 1.329245325E-02 2.220842270E-01
 5.566810258E-03 1.207393315E-02 2.987588802E-01
 3.409452736E-03 1.030164398E-02 4.063170268E-01
 1.664255979E-03 8.577126078E-03 5.161905054E-01
 2.521817223E-04 6.815125700E-03 7.228856035E-01
 -1.116825268E-03 4.368358757E-03 9.455581576E-01
 -1.717231935E-03 2.456533490E-03 1.081615914E+00
 -1.924386597E-03 8.980988059E-04 1.166741862E+00
 -1.861749566E-03 -9.775480721E-04 1.207438260E+00
 -1.390220597E-03 -3.139413660E-03 1.171818930E+00
 -3.473916149E-04 -5.656446330E-03 1.068988640E+00
 1.300380449E-03 -8.337824605E-03 9.189558057E-01
 3.478217637E-03 -1.102234703E-02 7.678188385E-01
 5.454001948E-03 -1.304706652E-02 6.408099889E-01
 7.786420174E-03 -1.513430290E-02 5.481895765E-01
 9.555272758E-03 -1.655898802E-02 4.569645648E-01
 1.168695930E-02 -1.814438403E-02 3.978985038E-01
 1.415119506E-02 -1.981807128E-02 3.243472182E-01
 1.734223776E-02 -2.181114629E-02 2.507499198E-01
 2.055100352E-02 -2.364370972E-02 1.721516204E-01
 2.461241558E-02 -2.577057481E-02 1.089343412E-01
 2.991015464E-02 -2.829113975E-02 3.871160936E-02
 3.544239700E-02 -3.067733720E-02 -3.470807718E-02
 4.212206975E-02 -3.328745067E-02 -8.835516492E-02
 4.943288863E-02 -3.588018566E-02 -1.422531597E-01
 5.817009881E-02 -3.868853301E-02 -1.871694326E-01
 6.669867039E-02 -4.118546844E-02 -2.316394471E-01
 7.691366225E-02 -4.392856359E-02 -2.717833779E-01
 8.652936667E-02 -4.629481584E-02 -2.972488146E-01
 9.725534171E-02 -4.872509837E-02 -3.293631336E-01
 1.083796099E-01 -5.106909946E-02 -3.598756271E-01
 1.201169118E-01 -5.334612355E-02 -3.837832483E-01
 1.316810101E-01 -5.542851612E-02 -4.077655926E-01
 1.421339959E-01 -5.718951672E-02 -4.332151397E-01
 1.536032408E-01 -5.899556726E-02 -4.526750687E-01
 1.653789729E-01 -6.072288007E-02 -4.744170370E-01
 1.768633425E-01 -6.229956821E-02 -4.994261382E-01
 1.885167509E-01 -6.378725916E-02 -5.226863614E-01
 1.990179718E-01 -6.503463537E-02 -5.475608332E-01
 2.102567106E-01 -6.626949459E-02 -5.605020813E-01
 2.224962264E-01 -6.752621382E-02 -5.904064627E-01
 2.343094796E-01 -6.862021983E-02 -6.168367890E-01
 2.460310310E-01 -6.961151212E-02 -6.388878763E-01
 2.579700649E-01 -7.051853836E-02 -6.680602111E-01
 2.691745758E-01 -7.127293199E-02 -6.996180995E-01
 2.817068696E-01 -7.199692726E-02 -7.136359010E-01
 2.936671972E-01 -7.259155810E-02 -7.350003848E-01
 3.066330552E-01 -7.312005013E-02 -7.749482418E-01
 3.184315562E-01 -7.345569879E-02 -8.058378965E-01
 3.309698105E-01 -7.371693850E-02 -8.363099108E-01
 3.413553834E-01 -7.381156087E-02 -8.706357914E-01
 3.530119956E-01 -7.382430881E-02 -8.927517184E-01
 3.642900288E-01 -7.372476161E-02 -9.180290204E-01
 3.753932714E-01 -7.352866977E-02 -9.515230937E-01
 3.875345886E-01 -7.316426188E-02 -9.751780545E-01
 4.004858732E-01 -7.265857607E-02 -9.961422318E-01
 4.128419459E-01 -7.201885432E-02 -1.020705787E+00
 4.256457388E-01 -7.120388746E-02 -1.053895047E+00
 4.381205440E-01 -7.031095773E-02 -1.043007044E+00
 4.512143433E-01 -6.920036674E-02 -4.576943057E-01
 4.638122916E-01 -6.799646467E-02 -3.878640980E-01
 4.762125909E-01 -6.672859192E-02 -4.581795080E-01
 4.886386395E-01 -6.534440815E-02 -4.320381461E-01
 5.008196831E-01 -6.389172375E-02 -4.048461821E-01
 5.141723156E-01 -6.218087673E-02 -3.596961591E-01
 5.272203684E-01 -6.046041474E-02 -3.381115235E-01
 5.392827392E-01 -5.874079093E-02 -2.876514437E-01
 5.527726412E-01 -5.679101869E-02 -2.532750281E-01
 5.659239292E-01 -5.482576787E-02 -2.191263923E-01
 5.789933205E-01 -5.281588063E-02 -1.816212639E-01
 5.924233794E-01 -5.073930323E-02 -1.599298492E-01
 6.054630280E-01 -4.863281175E-02 -1.170636966E-01
 6.182894707E-01 -4.655928165E-02 -8.886209751E-02
 6.319581270E-01 -4.434984177E-02 -6.774858750E-02
 6.453295350E-01 -4.212993756E-02 -3.485587895E-02
 6.581072807E-01 -3.999314085E-02 -5.150557712E-03
 6.715270877E-01 -3.775639459E-02 2.097530809E-02
 6.841470003E-01 -3.567960858E-02 3.594246867E-02
 6.962732077E-01 -3.363956138E-02 6.405093836E-02
 7.111226320E-01 -3.116968460E-02 8.531185376E-02
 7.240317464E-01 -2.898844145E-02 1.159987625E-01
 7.352383137E-01 -2.710750140E-02 1.416556706E-01
 7.486374378E-01 -2.493861690E-02 1.529186703E-01
 7.618595958E-01 -2.278845757E-02 1.744426387E-01
 7.751325369E-01 -2.060259506E-02 2.076171129E-01
 7.876032591E-01 -1.861955039E-02 2.269241149E-01
 8.006861806E-01 -1.661171392E-02 2.396251035E-01
 8.116341233E-01 -1.491391379E-02 2.641631062E-01
 8.227012157E-01 -1.324900705E-02 2.813829093E-01
 8.343464732E-01 -1.149451546E-02 3.140771289E-01
 8.469254375E-01 -9.763376787E-03 3.231999357E-01
 8.589632511E-01 -8.138279431E-03 3.477457034E-01
 8.694857955E-01 -6.800607778E-03 3.661672248E-01
 8.805793524E-01 -5.503105000E-03 3.781874673E-01
 8.928077221E-01 -4.165273160E-03 3.976463536E-01
 9.030394554E-01 -3.177791601E-03 4.077765573E-01
 9.137132168E-01 -2.250188962E-03 4.199587042E-01
 9.240245223E-01 -1.483876491E-03 4.283769620E-01
 9.343117476E-01 -8.624624461E-04 4.316735069E-01
 9.470819235E-01 -2.567847550E-04 4.338618728E-01
 9.614696503E-01 2.155962575E-04 4.364551995E-01
 9.758843184E-01 4.792586551E-04 4.439608478E-01
 9.890269041E-01 5.410407903E-04 4.595965185E-01
 -5.000000000E-01 -1.000000000E+00 1.801381256E-02
 3.500000000E+00 -1.000000000E+00 5.170701555E-03
 3.500000000E+00 1.000000000E+00 -2.697519084E-02
 -5.000000000E-01 1.000000000E+00 1.709965727E-02
 9.925543070E-01 2.066260902E-03 3.358530297E-01
 9.782761335E-01 4.938130965E-03 2.116216328E-01
 9.638649821E-01 7.821147330E-03 1.537268840E-01
 9.489532113E-01 1.079523191E-02 9.632285850E-02
 9.357768297E-01 1.340977941E-02 5.349104811E-02
 9.239532650E-01 1.570792636E-02 3.054725152E-02
 9.126141965E-01 1.792430971E-02 -1.925351881E-02
 9.009550214E-01 2.016163897E-02 -4.120400418E-02
 8.889223635E-01 2.242493816E-02 -8.354198134E-02
 8.767968118E-01 2.466307394E-02 -1.071614979E-01
 8.647335768E-01 2.682896797E-02 -1.419695607E-01
 8.526835740E-01 2.894221991E-02 -1.637362820E-01
 8.409518003E-01 3.093823511E-02 -1.909134187E-01
 8.294061124E-01 3.284859471E-02 -2.025221314E-01
 8.173806369E-01 3.479294106E-02 -2.185135298E-01
 8.050750494E-01 3.676602058E-02 -2.549578026E-01
 7.930322587E-01 3.863764182E-02 -2.673824298E-01
 7.810652256E-01 4.044258595E-02 -2.873127101E-01
 7.692177296E-01 4.219549708E-02 -3.035949564E-01
 7.571298182E-01 4.394027404E-02 -3.175200172E-01
 7.442555428E-01 4.577233456E-02 -3.491861955E-01
 7.322608829E-01 4.743638076E-02 -3.672369354E-01
 7.211824358E-01 4.892956465E-02 -3.930009170E-01
 7.096492350E-01 5.044167303E-02 -4.157016057E-01
 6.972430348E-01 5.200235918E-02 -4.237938140E-01
 6.843863428E-01 5.357781984E-02 -4.484405736E-01
 6.724212170E-01 5.500748940E-02 -4.819831991E-01
 6.608791053E-01 5.632440187E-02 -4.926334446E-01
 6.494876444E-01 5.757864192E-02 -5.222674823E-01
 6.379217207E-01 5.880143121E-02 -5.484407187E-01
 6.259748042E-01 5.999187566E-02 -5.551257705E-01
 6.148023307E-01 6.105516665E-02 -5.789857754E-01
 6.035255790E-01 6.208206341E-02 -5.747233201E-01
 5.915343165E-01 6.309962645E-02 -5.259699387E-01
 5.786389112E-01 6.411689892E-02 -6.675487403E-01
 5.650712550E-01 6.510730833E-02 -8.667226039E-01
 5.517661273E-01 6.598377228E-02 -8.639039835E-01
 5.393642187E-01 6.671836972E-02 -8.382582888E-01
 5.273726583E-01 6.735233217E-02 -8.396658403E-01
 5.148322582E-01 6.794440746E-02 -8.312645726E-01
 5.029911995E-01 6.841550395E-02 -8.015611757E-01
 4.909565300E-01 6.882048026E-02 -8.100418655E-01
 4.779956937E-01 6.918611750E-02 -7.886706208E-01
 4.647022337E-01 6.946502998E-02 -7.769389969E-01
 4.508763850E-01 6.967751309E-02 -7.691941987E-01
 4.374386072E-01 6.978913769E-02 -7.425563493E-01
 4.243496656E-01 6.980712712E-02 -7.363026936E-01
 4.113735706E-01 6.975566968E-02 -7.304310913E-01
 3.982795030E-01 6.961863860E-02 -7.088850006E-01
 3.855396211E-01 6.941327080E-02 -6.998285472E-01
 3.736563027E-01 6.914587691E-02 -6.657410295E-01
 3.610285521E-01 6.878010556E-02 -6.456642368E-01
 3.479167521E-01 6.834496185E-02 -6.557182428E-01
 3.352173418E-01 6.784085557E-02 -6.323773747E-01
 3.236851692E-01 6.731423736E-02 -6.297642835E-01
 3.124712855E-01 6.674150005E-02 -6.183153505E-01
 3.003008515E-01 6.603946164E-02 -5.867994057E-01
 2.874138802E-01 6.521995366E-02 -5.741659064E-01
 2.745534778E-01 6.433296949E-02 -5.677094306E-01
 2.625145465E-01 6.341727823E-02 -5.486339518E-01
 2.504110783E-01 6.241827272E-02 -5.339343328E-01
 2.379425168E-01 6.130732037E-02 -5.126921044E-01
 2.256594300E-01 6.013367698E-02 -5.017598952E-01
 2.137632445E-01 5.891727284E-02 -4.862323392E-01
 2.019887716E-01 5.762747675E-02 -4.708504284E-01
 1.900232583E-01 5.622805841E-02 -4.527795001E-01
 1.780723706E-01 5.473859049E-02 -4.373048077E-01
 1.663534418E-01 5.317967944E-02 -4.150214631E-01
 1.547102183E-01 5.153542385E-02 -4.003795750E-01
 1.433951631E-01 4.983753338E-02 -3.787601360E-01
 1.322795004E-01 4.806460626E-02 -3.608207096E-01
 1.212133840E-01 4.619352520E-02 -3.397990944E-01
 1.104400419E-01 4.425707087E-02 -3.225640384E-01
 9.000204876E-02 4.022279382E-02 -2.766617102E-01
 7.928302139E-02 3.788580559E-02 -2.533264096E-01
 7.180616632E-02 -4.255701602E-02 -2.563182815E-01
 9.189235419E-02 -4.750995710E-02 -3.189320935E-01
 1.028174758E-01 -4.989709891E-02 -3.426508354E-01
 1.142482609E-01 -5.220761150E-02 -3.738266001E-01
 1.258989610E-01 -5.438731983E-02 -3.961981099E-01
 1.369075030E-01 -5.630901642E-02 -4.221949146E-01
 1.478686184E-01 -5.809254199E-02 -4.419739708E-01
 1.594911069E-01 -5.985922366E-02 -4.643709361E-01
 1.711211577E-01 -6.151122414E-02 -4.864857058E-01
 1.826900467E-01 -6.304341368E-02 -5.110423459E-01
 1.937673613E-01 -6.441094726E-02 -5.368886851E-01
 2.046373412E-01 -6.565206498E-02 -5.543487066E-01
 2.163764685E-01 -6.689785421E-02 -5.714758651E-01
 2.284028530E-01 -6.807321683E-02 -6.070518273E-01
 2.401702553E-01 -6.911586598E-02 -6.265533544E-01
 2.520005479E-01 -7.006502524E-02 -6.526243534E-01
 2.635723203E-01 -7.089573517E-02 -6.847566394E-01
 2.754407227E-01 -7.163492963E-02 -7.082239505E-01
 2.876870334E-01 -7.229424268E-02 -7.219522893E-01
 3.001501262E-01 -7.285580412E-02 -7.510337413E-01
 3.125323057E-01 -7.328787446E-02 -7.966931123E-01
 3.247006834E-01 -7.358631864E-02 -8.155215176E-01
 3.361625969E-01 -7.376424968E-02 -8.596904154E-01
 3.471836895E-01 -7.381793484E-02 -8.789159331E-01
 3.586510122E-01 -7.377453521E-02 -9.070537141E-01
 3.698416501E-01 -7.362671569E-02 -9.313920800E-01
 3.814639300E-01 -7.334646583E-02 -9.671430729E-01
 3.940102309E-01 -7.291141897E-02 -9.817402300E-01
 4.066639096E-01 -7.233871520E-02 -1.010929047E+00
 4.192438424E-01 -7.161137089E-02 -1.031375133E+00
 4.318831414E-01 -7.075742260E-02 -1.083640870E+00
 4.446674436E-01 -6.975566223E-02 -7.931848751E-01
 4.575133175E-01 -6.859841570E-02 -3.562337633E-01
 4.700124413E-01 -6.736252829E-02 -4.392704387E-01
 4.824256152E-01 -6.603650004E-02 -4.490540275E-01
 4.947291613E-01 -6.461806595E-02 -4.186226530E-01
 5.074959993E-01 -6.303630024E-02 -3.845571526E-01
 5.206963420E-01 -6.132064573E-02 -3.450634211E-01
 5.332515538E-01 -5.960060284E-02 -3.194622884E-01
 5.460276902E-01 -5.776590481E-02 -2.660841849E-01
 5.593482852E-01 -5.580839328E-02 -2.376225153E-01
 5.724586248E-01 -5.382082425E-02 -2.004421611E-01
 5.857083499E-01 -5.177759193E-02 -1.687078758E-01
 5.989432037E-01 -4.968605749E-02 -1.420378586E-01
 6.118762493E-01 -4.759604670E-02 -1.009460026E-01
 6.251237988E-01 -4.545456171E-02 -7.716067324E-02
 6.386438310E-01 -4.323988967E-02 -5.316476856E-02
 6.517184079E-01 -4.106153920E-02 -2.008400833E-02
 6.648171842E-01 -3.887476772E-02 8.448246675E-03
 6.778370440E-01 -3.671800159E-02 3.009888602E-02
 6.902101040E-01 -3.465958498E-02 4.785476009E-02
 7.036979198E-01 -3.240462299E-02 7.583105643E-02
 7.175771892E-01 -3.007906303E-02 9.904056276E-02
 7.296350300E-01 -2.804797143E-02 1.292275781E-01
 7.419378757E-01 -2.602305915E-02 1.489891187E-01
 7.552485168E-01 -2.386353724E-02 1.627166105E-01
 7.684960663E-01 -2.169552632E-02 1.888080961E-01
 7.813678980E-01 -1.961107273E-02 2.185437543E-01
 7.941447198E-01 -1.761563215E-02 2.345794671E-01
 8.061601520E-01 -1.576281385E-02 2.502141658E-01
 8.171676695E-01 -1.408146042E-02 2.732806230E-01
 8.285238445E-01 -1.237176126E-02 2.947535534E-01
 8.406359553E-01 -1.062894613E-02 3.209615632E-01
 8.529443443E-01 -8.950828109E-03 3.339238482E-01
 8.642245233E-01 -7.469443604E-03 3.576679907E-01
 8.750325739E-01 -6.151856389E-03 3.723439145E-01
 8.866935372E-01 -4.834189080E-03 3.863086866E-01
 8.979235888E-01 -3.671532380E-03 4.047190918E-01
 9.083763361E-01 -2.713990281E-03 4.130882759E-01
 9.188688695E-01 -1.867032726E-03 4.247176934E-01
 9.291681349E-01 -1.173169469E-03 4.306785381E-01
 9.406968355E-01 -5.596236006E-04 4.308221296E-01
 9.542757869E-01 -2.059424878E-05 4.339201748E-01
 9.686769843E-01 3.474274563E-04 4.391329192E-01
 9.824556112E-01 5.101497227E-04 4.528801636E-01
 9.946767092E-01 5.270117545E-04 5.293448484E-01
 -5.000000000E-01 9.500000000E-01 2.788262590E-02
 -5.000000000E-01 9.000000000E-01 4.197448833E-02
 -5.000000000E-01 8.500000000E-01 5.288239642E-02
 -5.000000000E-01 8.000000000E-01 6.254571685E-02
 -5.000000000E-01 7.500000000E-01 7.151125812E-02
 -5.000000000E-01 7.000000000E-01 8.027320614E-02
 -5.000000000E-01 6.500000000E-01 8.976745885E-02
 -5.000000000E-01 6.000000000E-01 9.897442097E-02
 -5.000000000E-01 5.500000000E-01 1.086487157E-01
 -5.000000000E-01 5.000000000E-01 1.184815100E-01
 -5.000000000E-01 4.500000000E-01 1.284753342E-01
 -5.000000000E-01 4.000000000E-01 1.386771109E-01
 -5.000000000E-01 3.500000000E-01 1.486834597E-01
 -5.000000000E-01 3.000000000E-01 1.582392941E-01
 -5.000000000E-01 2.500000000E-01 1.674000935E-01
 -5.000000000E-01 2.000000000E-01 1.753418710E-01
 -5.000000000E-01 1.500000000E-01 1.822618760E-01
 -5.000000000E-01 1.000000000E-01 1.874990847E-01
 -5.000000000E-01 5.000000000E-02 1.909395726E-01
 -5.000000000E-01 2.752242878E-12 1.924476870E-01
 -5.000000000E-01 -5.000000000E-02 1.917045759E-01
 -5.000000000E-01 -1.000000000E-01 1.888778506E-01
 -5.000000000E-01 -1.500000000E-01 1.844492649E-01
 -5.000000000E-01 -2.000000000E-01 1.781835900E-01
 -5.000000000E-01 -2.500000000E-01 1.705974269E-01
 -5.000000000E-01 -3.000000000E-01 1.620521345E-01
 -5.000000000E-01 -3.500000000E-01 1.525433836E-01
 -5.000000000E-01 -4.000000000E-01 1.428445461E-01
 -5.000000000E-01 -4.500000000E-01 1.328019982E-01
 -5.000000000E-01 -5.000000000E-01 1.227441574E-01
 -5.000000000E-01 -5.500000000E-01 1.128524834E-01
 -5.000000000E-01 -6.000000000E-01 1.031749158E-01
 -5.000000000E-01 -6.500000000E-01 9.362007443E-02
 -5.000000000E-01 -7.000000000E-01 8.424462225E-02
 -5.000000000E-01 -7.500000000E-01 7.501281572E-02
 -5.000000000E-01 -8.000000000E-01 6.566017397E-02
 -5.000000000E-01 -8.500000000E-01 5.560496546E-02
 -5.000000000E-01 -9.000000000E-01 4.428649467E-02
 -5.000000000E-01 -9.500000000E-01 2.938206738E-02
 -4.500000000E-01 -1.000000000E+00 2.430413850E-02
 -4.000000000E-01 -1.000000000E+00 3.603576965E-02
 -3.500000000E-01 -1.000000000E+00 4.331442141E-02
 -3.000000000E-01 -1.000000000E+00 4.792687370E-02
 -2.500000000E-01 -1.000000000E+00 5.056743148E-02
 -2.000000000E-01 -1.000000000E+00 5.132195181E-02
 -1.500000000E-01 -1.000000000E+00 5.017899066E-02
 -1.000000000E-01 -1.000000000E+00 4.717506137E-02
 -5.000000000E-02 -1.000000000E+00 4.220363154E-02
 -9.424683256E-13 -1.000000000E+00 3.541310408E-02
 5.000000000E-02 -1.000000000E+00 2.680902922E-02
 1.000000000E-01 -1.000000000E+00 1.671566736E-02
 1.500000000E-01 -1.000000000E+00 5.368635197E-03
 2.000000000E-01 -1.000000000E+00 -6.694154518E-03
 2.500000000E-01 -1.000000000E+00 -1.893462300E-02
 3.000000000E-01 -1.000000000E+00 -3.097054276E-02
 3.500000000E-01 -1.000000000E+00 -4.225014569E-02
 4.000000000E-01 -1.000000000E+00 -5.196272880E-02
 4.500000000E-01 -1.000000000E+00 -5.965874804E-02
 5.000000000E-01 -1.000000000E+00 -6.536768947E-02
 5.500000000E-01 -1.000000000E+00 -6.773856779E-02
 6.000000000E-01 -1.000000000E+00 -6.855307343E-02
 6.500000000E-01 -1.000000000E+00 -6.629875674E-02
 7.000000000E-01 -1.000000000E+00 -6.233473609E-02
 7.500000000E-01 -1.000000000E+00 -5.661389713E-02
 8.000000000E-01 -1.000000000E+00 -4.924310089E-02
 8.500000000E-01 -1.000000000E+00 -4.125621335E-02
 9.000000000E-01 -1.000000000E+00 -3.269611250E-02
 9.500000000E-01 -1.000000000E+00 -2.407067878E-02
 1.000000000E+00 -1.000000000E+00 -1.584816510E-02
 1.050000000E+00 -1.000000000E+00 -8.008677730E-03
 1.100000000E+00 -1.000000000E+00 -9.653126757E-04
 1.150000000E+00 -1.000000000E+00 5.313427160E-03
 1.200000000E+00 -1.000000000E+00 1.080202099E-02
 1.250000000E+00 -1.000000000E+00 1.529490426E-02
 1.300000000E+00 -1.000000000E+00 1.916702511E-02
 1.350000000E+00 -1.000000000E+00 2.222754051E-02
 1.400000000E+00 -1.000000000E+00 2.460761296E-02
 1.450000000E+00 -1.000000000E+00 2.645836566E-02
 1.500000000E+00 -1.000000000E+00 2.776377466E-02
 1.550000000E+00 -1.000000000E+00 2.866600826E-02
 1.600000000E+00 -1.000000000E+00 2.917624746E-02
 1.650000000E+00 -1.000000000E+00 2.943379329E-02
 1.700000000E+00 -1.000000000E+00 2.941873957E-02
 1.750000000E+00 -1.000000000E+00 2.922609305E-02
 1.800000000E+00 -1.000000000E+00 2.889341680E-02
 1.850000000E+00 -1.000000000E+00 2.840680202E-02
 1.900000000E+00 -1.000000000E+00 2.784954523E-02
 1.950000000E+00 -1.000000000E+00 2.727543413E-02
 2.000000000E+00 -1.000000000E+00 2.647829451E-02
 2.050000000E+00 -1.000000000E+00 2.589467332E-02
 2.100000000E+00 -1.000000000E+00 2.513214176E-02
 2.150000000E+00 -1.000000000E+00 2.444541742E-02
 2.200000000E+00 -1.000000000E+00 2.378004906E-02
 2.250000000E+00 -1.000000000E+00 2.309247816E-02
 2.300000000E+00 -1.000000000E+00 2.241982049E-02
 2.350000000E+00 -1.000000000E+00 2.176104923E-02
 2.400000000E+00 -1.000000000E+00 2.132945899E-02
 2.450000000E+00 -1.000000000E+00 2.050619753E-02
 2.500000000E+00 -1.000000000E+00 2.018676073E-02
 2.550000000E+00 -1.000000000E+00 1.966326076E-02
 2.600000000E+00 -1.000000000E+00 1.912974248E-02
 2.650000000E+00 -1.000000000E+00 1.882488265E-02
 2.700000000E+00 -1.000000000E+00 1.846169636E-02
 2.750000000E+00 -1.000000000E+00 1.813228411E-02
 2.800000000E+00 -1.000000000E+00 1.787077353E-02
 2.850000000E+00 -1.000000000E+00 1.764325529E-02
 2.900000000E+00 -1.000000000E+00 1.740096717E-02
 2.950000000E+00 -1.000000000E+00 1.726758263E-02
 3.000000000E+00 -1.000000000E+00 1.716326579E-02
 3.050000000E+00 -1.000000000E+00 1.700400786E-02
 3.100000000E+00 -1.000000000E+00 1.693188134E-02
 3.150000000E+00 -1.000000000E+00 1.679683544E-02
 3.200000000E+00 -1.000000000E+00 1.656143591E-02
 3.250000000E+00 -1.000000000E+00 1.638814775E-02
 3.300000000E+00 -1.000000000E+00 1.591514858E-02
 3.350000000E+00 -1.000000000E+00 1.529572365E-02
 3.400000000E+00 -1.000000000E+00 1.381642672E-02
 3.450000000E+00 -1.000000000E+00 1.024989927E-02
 3.500000000E+00 -9.500000000E-01 3.260841068E-03
 3.500000000E+00 -9.000000000E-01 6.505942459E-03
 3.500000000E+00 -8.500000000E-01 9.115053680E-03
 3.500000000E+00 -8.000000000E-01 1.132602944E-02
 3.500000000E+00 -7.500000000E-01 1.306102954E-02
 3.500000000E+00 -7.000000000E-01 1.439573675E-02
 3.500000000E+00 -6.500000000E-01 1.590061681E-02
 3.500000000E+00 -6.000000000E-01 1.745517026E-02
 3.500000000E+00 -5.500000000E-01 1.917227016E-02
 3.500000000E+00 -5.000000000E-01 2.091086900E-02
 3.500000000E+00 -4.500000000E-01 2.268341387E-02
 3.500000000E+00 -4.000000000E-01 2.450949801E-02
 3.500000000E+00 -3.500000000E-01 2.634395072E-02
 3.500000000E+00 -3.000000000E-01 2.800226339E-02
 3.500000000E+00 -2.500000000E-01 2.927629084E-02
 3.500000000E+00 -2.000000000E-01 2.960993921E-02
 3.500000000E+00 -1.500000000E-01 2.893336629E-02
 3.500000000E+00 -1.000000000E-01 2.816450986E-02
 3.500000000E+00 -5.000000000E-02 2.776833249E-02
 3.500000000E+00 -2.752242878E-12 2.813963186E-02
 3.500000000E+00 5.000000000E-02 2.901226586E-02
 3.500000000E+00 1.000000000E-01 2.965334337E-02
 3.500000000E+00 1.500000000E-01 2.940131152E-02
 3.500000000E+00 2.000000000E-01 2.814842592E-02
 3.500000000E+00 2.500000000E-01 2.648132193E-02
 3.500000000E+00 3.000000000E-01 2.471311646E-02
 3.500000000E+00 3.500000000E-01 2.299186605E-02
 3.500000000E+00 4.000000000E-01 2.115829860E-02
 3.500000000E+00 4.500000000E-01 1.929708573E-02
 3.500000000E+00 5.000000000E-01 1.741405187E-02
 3.500000000E+00 5.500000000E-01 1.583076299E-02
 3.500000000E+00 6.000000000E-01 1.472444581E-02
 3.500000000E+00 6.500000000E-01 1.418037020E-02
 3.500000000E+00 7.000000000E-01 1.339680522E-02
 3.500000000E+00 7.500000000E-01 1.073251000E-02
 3.500000000E+00 8.000000000E-01 5.120317332E-03
 3.500000000E+00 8.500000000E-01 -4.685008399E-03
 3.500000000E+00 9.000000000E-01 -1.675812620E-02
 3.500000000E+00 9.500000000E-01 -3.039853426E-02
 3.450000000E+00 1.000000000E+00 -1.263594401E-02
 3.400000000E+00 1.000000000E+00 -2.784102650E-03
 3.350000000E+00 1.000000000E+00 5.809954429E-04
 3.300000000E+00 1.000000000E+00 1.279023234E-03
 3.250000000E+00 1.000000000E+00 1.394630592E-03
 3.200000000E+00 1.000000000E+00 7.445138734E-04
 3.150000000E+00 1.000000000E+00 2.779716520E-04
 3.100000000E+00 1.000000000E+00 -6.179981215E-04
 3.050000000E+00 1.000000000E+00 -1.381637147E-03
 3.000000000E+00 1.000000000E+00 -2.349653822E-03
 2.950000000E+00 1.000000000E+00 -3.148015848E-03
 2.900000000E+00 1.000000000E+00 -4.123529513E-03
 2.850000000E+00 1.000000000E+00 -5.141345438E-03
 2.800000000E+00 1.000000000E+00 -6.149551177E-03
 2.750000000E+00 1.000000000E+00 -7.184447844E-03
 2.700000000E+00 1.000000000E+00 -8.454774072E-03
 2.650000000E+00 1.000000000E+00 -9.240423662E-03
 2.600000000E+00 1.000000000E+00 -1.077296673E-02
 2.550000000E+00 1.000000000E+00 -1.206743964E-02
 2.500000000E+00 1.000000000E+00 -1.330091335E-02
 2.450000000E+00 1.000000000E+00 -1.454822953E-02
 2.400000000E+00 1.000000000E+00 -1.603632399E-02
 2.350000000E+00 1.000000000E+00 -1.731884402E-02
 2.300000000E+00 1.000000000E+00 -1.889578178E-02
 2.250000000E+00 1.000000000E+00 -2.069367915E-02
 2.200000000E+00 1.000000000E+00 -2.199197501E-02
 2.150000000E+00 1.000000000E+00 -2.424324991E-02
 2.100000000E+00 1.000000000E+00 -2.600426315E-02
 2.050000000E+00 1.000000000E+00 -2.824767475E-02
 2.000000000E+00 1.000000000E+00 -3.042763310E-02
 1.950000000E+00 1.000000000E+00 -3.289794947E-02
 1.900000000E+00 1.000000000E+00 -3.558828427E-02
 1.850000000E+00 1.000000000E+00 -3.859678289E-02
 1.800000000E+00 1.000000000E+00 -4.186142264E-02
 1.750000000E+00 1.000000000E+00 -4.552612254E-02
 1.700000000E+00 1.000000000E+00 -4.910936972E-02
 1.650000000E+00 1.000000000E+00 -5.320701461E-02
 1.600000000E+00 1.000000000E+00 -5.775014340E-02
 1.550000000E+00 1.000000000E+00 -6.261892606E-02
 1.500000000E+00 1.000000000E+00 -6.803543282E-02
 1.450000000E+00 1.000000000E+00 -7.421101818E-02
 1.400000000E+00 1.000000000E+00 -8.063243344E-02
 1.350000000E+00 1.000000000E+00 -8.808461002E-02
 1.300000000E+00 1.000000000E+00 -9.485468632E-02
 1.250000000E+00 1.000000000E+00 -1.036207134E-01
 1.200000000E+00 1.000000000E+00 -1.117279558E-01
 1.150000000E+00 1.000000000E+00 -1.197489336E-01
 1.100000000E+00 1.000000000E+00 -1.285818291E-01
 1.050000000E+00 1.000000000E+00 -1.366361409E-01
 1.000000000E+00 1.000000000E+00 -1.441820556E-01
 9.500000000E-01 1.000000000E+00 -1.506622538E-01
 9.000000000E-01 1.000000000E+00 -1.549130273E-01
 8.500000000E-01 1.000000000E+00 -1.589688514E-01
 8.000000000E-01 1.000000000E+00 -1.587312678E-01
 7.500000000E-01 1.000000000E+00 -1.580226913E-01
 7.000000000E-01 1.000000000E+00 -1.543252796E-01
 6.500000000E-01 1.000000000E+00 -1.466969259E-01
 6.000000000E-01 1.000000000E+00 -1.384928675E-01
 5.500000000E-01 1.000000000E+00 -1.267175154E-01
 5.000000000E-01 1.000000000E+00 -1.124187733E-01
 4.500000000E-01 1.000000000E+00 -9.836347265E-02
 4.000000000E-01 1.000000000E+00 -8.272319164E-02
 3.500000000E-01 1.000000000E+00 -6.560421819E-02
 3.000000000E-01 1.000000000E+00 -4.968978479E-02
 2.500000000E-01 1.000000000E+00 -3.342512778E-02
 2.000000000E-01 1.000000000E+00 -1.789252587E-02
 1.500000000E-01 1.000000000E+00 -3.602751842E-03
 1.000000000E-01 1.000000000E+00 9.028157344E-03
 5.000000000E-02 1.000000000E+00 2.025591457E-02
 1.733724275E-12 1.000000000E+00 2.981848982E-02
 -5.000000000E-02 1.000000000E+00 3.721362227E-02
 -1.000000000E-01 1.000000000E+00 4.269719244E-02
 -1.500000000E-01 1.000000000E+00 4.625172036E-02
 -2.000000000E-01 1.000000000E+00 4.776254763E-02
 -2.500000000E-01 1.000000000E+00 4.737324665E-02
 -3.000000000E-01 1.000000000E+00 4.503224331E-02
 -3.500000000E-01 1.000000000E+00 4.089934011E-02
 -4.000000000E-01 1.000000000E+00 3.403438903E-02
 -4.500000000E-01 1.000000000E+00 2.299079809E-02
 8.959454567E-01 -8.441321096E-03 3.944437699E-01
 8.206834799E-01 -1.842759051E-02 2.750006039E-01
 9.857661343E-01 -4.766275896E-03 4.554158466E-01
 7.536884103E-01 -2.992673221E-02 1.595650745E-01
 6.823065693E-01 -4.210183129E-02 3.402560345E-02
 6.157146786E-01 -5.249952852E-02 -9.510070987E-02
 5.498555221E-01 -6.260468053E-02 -2.564691836E-01
 4.860922456E-01 -7.074615581E-02 -4.320765057E-01
 4.288441278E-01 -7.627508514E-02 -1.059552320E+00
 3.724637823E-01 -7.819303792E-02 -9.260995373E-01
 3.217012949E-01 -7.912947735E-02 -8.001519121E-01