TITLE     = "Visualization of the solution"
VARIABLES = "x"
"y"
"Pressure_Coefficient"
ZONE T="Zone"
 STRANDID=0, SOLUTIONTIME=0
 Nodes=12295, Elements=24007, ZONETYPE=FEQuadrilateral
 DATAPACKING=POINT
 DT=(DOUBLE DOUBLE DOUBLE )
 1.000244856E+00 5.082659773E-04 3.385832613E-01
 9.880891442E-01 2.890066942E-03 2.584131713E-01
 9.754641056E-01 5.378051661E-03 1.799017818E-01
 9.593486786E-01 8.537415415E-03 1.144752694E-01
 9.442684650E-01 1.144261099E-02 7.921308625E-02
 9.298543930E-01 1.431836933E-02 1.388162948E-02
 9.177590609E-01 1.659779064E-02 1.769229606E-03
 9.059748054E-01 1.891709678E-02 -5.517975879E-02
 8.940956593E-01 2.114715800E-02 -8.418902486E-02
 8.820459843E-01 2.334826812E-02 -1.056174529E-01
 8.698046207E-01 2.556757256E-02 -1.358281368E-01
 8.576934338E-01 2.773805521E-02 -1.769616374E-01
 8.450246453E-01 2.987576835E-02 -1.833042766E-01
 8.341680765E-01 3.172213584E-02 -2.150748022E-01
 8.225504756E-01 3.362736851E-02 -2.323900129E-01
 8.099749684E-01 3.565588221E-02 -2.583872616E-01
 7.972666025E-01 3.764757141E-02 -2.824740381E-01
 7.846693993E-01 3.953591734E-02 -2.834744355E-01
 7.725683451E-01 4.138141498E-02 -3.237193325E-01
 7.608427405E-01 4.308807850E-02 -3.386700199E-01
 7.477291226E-01 4.494939744E-02 -3.568470058E-01
 7.341735363E-01 4.683868960E-02 -3.901032109E-01
 7.234721780E-01 4.827271029E-02 -4.030887466E-01
 7.123560905E-01 4.971092567E-02 -4.100920887E-01
 7.009174228E-01 5.120334774E-02 -4.523738753E-01
 6.876415014E-01 5.284115300E-02 -4.718658154E-01
 6.745895743E-01 5.437600613E-02 -4.954718956E-01
 6.645389199E-01 5.553736538E-02 -5.207466930E-01
 6.528776288E-01 5.679014325E-02 -5.234710986E-01
 6.412616968E-01 5.802954361E-02 -5.619066096E-01
 6.294865012E-01 5.920332298E-02 -5.770039519E-01
 6.180623770E-01 6.027895212E-02 -5.880736757E-01
 6.075153351E-01 6.124783680E-02 -5.652873887E-01
 5.949527621E-01 6.228663027E-02 -5.669009224E-01
 5.833852291E-01 6.318657100E-02 -7.788304567E-01
 5.701637268E-01 6.416452676E-02 -8.862819720E-01
 5.578395724E-01 6.496939063E-02 -8.463170570E-01
 5.456053615E-01 6.568366289E-02 -8.383936137E-01
 5.347255468E-01 6.627427042E-02 -8.345305397E-01
 5.231916308E-01 6.681546569E-02 -8.110356194E-01
 5.107971430E-01 6.730420887E-02 -8.000399445E-01
 4.997062683E-01 6.769742817E-02 -7.936802188E-01
 4.866146147E-01 6.807688624E-02 -7.747806950E-01
 4.732662141E-01 6.837057322E-02 -7.555146426E-01
 4.593394995E-01 6.858734787E-02 -7.378626512E-01
 4.458967149E-01 6.869791448E-02 -7.252741571E-01
 4.332127273E-01 6.874710321E-02 -7.162389270E-01
 4.204437435E-01 6.870625913E-02 -6.897268211E-01
 4.079359472E-01 6.859058887E-02 -6.743373563E-01
 3.957476318E-01 6.842490286E-02 -6.705036527E-01
 3.835473657E-01 6.819202751E-02 -6.525187670E-01
 3.718194067E-01 6.788863242E-02 -6.266689120E-01
 3.587773442E-01 6.750293076E-02 -6.267510835E-01
 3.463173509E-01 6.706762314E-02 -6.115552670E-01
 3.332124352E-01 6.651186198E-02 -5.973779301E-01
 3.221758306E-01 6.601151824E-02 -5.879475839E-01
 3.093687892E-01 6.532160938E-02 -5.603402536E-01
 2.962593436E-01 6.457692385E-02 -5.539506920E-01
 2.822309732E-01 6.366953254E-02 -5.376350979E-01
 2.700296342E-01 6.281627715E-02 -5.273034329E-01
 2.580751479E-01 6.189808249E-02 -5.078349571E-01
 2.456427217E-01 6.087658182E-02 -4.933734165E-01
 2.332565337E-01 5.977764726E-02 -4.776067894E-01
 2.211039662E-01 5.863220990E-02 -4.693182605E-01
 2.093539983E-01 5.743891373E-02 -4.533146480E-01
 1.978444457E-01 5.618326738E-02 -4.315565477E-01
 1.855430901E-01 5.477133021E-02 -4.208044242E-01
 1.736225486E-01 5.330152065E-02 -4.033830093E-01
 1.622676700E-01 5.180911720E-02 -3.823474685E-01
 1.503990591E-01 5.015641451E-02 -3.665965267E-01
 1.397558004E-01 4.858119041E-02 -3.464239247E-01
 1.280931532E-01 4.675061628E-02 -3.263028219E-01
 1.166758016E-01 4.483629763E-02 -3.061960671E-01
 1.061398014E-01 4.295773059E-02 -2.813657619E-01
 9.630344063E-02 4.108913615E-02 -2.621459958E-01
 8.512201905E-02 3.881725669E-02 -2.301004251E-01
 7.335118204E-02 3.623274341E-02 -1.998397444E-01
 6.331318617E-02 3.383895010E-02 -1.669848886E-01
 5.333653837E-02 3.125448525E-02 -1.236269068E-01
 4.463463277E-02 2.879066020E-02 -8.355420404E-02
 3.711212799E-02 2.645800635E-02 -4.044874544E-02
 3.045046516E-02 2.420581318E-02 5.443893109E-03
 2.474894933E-02 2.208876982E-02 4.820011923E-02
 2.061723918E-02 2.040900663E-02 9.929776573E-02
 1.674162969E-02 1.869196258E-02 1.455492350E-01
 1.373311784E-02 1.724475808E-02 1.981353200E-01
 1.094818953E-02 1.577671058E-02 2.479089626E-01
 8.922321722E-03 1.461486891E-02 2.994910125E-01
 7.141992450E-03 1.349395234E-02 3.517292787E-01
 5.491984542E-03 1.236622222E-02 4.320103740E-01
 3.335752990E-03 1.069631055E-02 5.347064287E-01
 1.498285215E-03 8.983633481E-03 6.511730134E-01
 -1.184701796E-05 7.214436773E-03 8.564291452E-01
 -1.425733441E-03 4.778300412E-03 1.064459818E+00
 -1.990242163E-03 2.923354506E-03 1.165839207E+00
 -2.123614075E-03 1.440892229E-03 1.185048273E+00
 -1.961675938E-03 -1.366418292E-04 1.130895042E+00
 -1.486243564E-03 -1.722721034E-03 1.011543433E+00
 -5.077964743E-04 -3.615536960E-03 8.478768745E-01
 9.450243087E-04 -5.541782826E-03 6.364831271E-01
 2.928001573E-03 -7.529169787E-03 4.740608765E-01
 4.723523743E-03 -8.998868987E-03 3.347307235E-01
 6.778650917E-03 -1.045385562E-02 2.493809743E-01
 8.421087638E-03 -1.149097644E-02 1.713773806E-01
 1.049174089E-02 -1.268243417E-02 1.194427384E-01
 1.283925958E-02 -1.390917879E-02 6.366219303E-02
 1.608996838E-02 -1.544171851E-02 1.167726141E-02
 1.900328323E-02 -1.668729447E-02 -4.408560868E-02
 2.280060388E-02 -1.817145012E-02 -7.765744435E-02
 2.814379521E-02 -2.004422992E-02 -1.103004476E-01
 3.386916965E-02 -2.185238525E-02 -1.493129628E-01
 4.091577232E-02 -2.384433709E-02 -1.735039509E-01
 4.846233502E-02 -2.577800490E-02 -1.952800014E-01
 5.741352215E-02 -2.785721421E-02 -2.124114495E-01
 6.613898277E-02 -2.970967628E-02 -2.315337983E-01
 7.626595348E-02 -3.168474138E-02 -2.446540635E-01
 8.629289269E-02 -3.349601477E-02 -2.584379560E-01
 9.652334452E-02 -3.521647304E-02 -2.709455212E-01
 1.075605452E-01 -3.694883734E-02 -2.810041943E-01
 1.188014075E-01 -3.860576823E-02 -2.948035184E-01
 1.305657476E-01 -4.023330286E-02 -3.088549382E-01
 1.413171738E-01 -4.162890092E-02 -3.206194046E-01
 1.525808871E-01 -4.301793501E-02 -3.349728797E-01
 1.649014354E-01 -4.444205388E-02 -3.472877759E-01
 1.767092347E-01 -4.573214799E-02 -3.633234416E-01
 1.888451576E-01 -4.698190466E-02 -3.820283785E-01
 1.996727288E-01 -4.802146181E-02 -3.956309348E-01
 2.112236023E-01 -4.906865582E-02 -4.114852381E-01
 2.236278951E-01 -5.011445284E-02 -4.288256716E-01
 2.363306284E-01 -5.110352114E-02 -4.487479390E-01
 2.488542050E-01 -5.199075863E-02 -4.666830532E-01
 2.614871860E-01 -5.280613154E-02 -4.880255169E-01
 2.727358937E-01 -5.345506966E-02 -5.096224053E-01
 2.856595516E-01 -5.411075428E-02 -5.293433648E-01
 2.982415855E-01 -5.464027449E-02 -5.423938186E-01
 3.110658824E-01 -5.509622395E-02 -5.634914615E-01
 3.229854405E-01 -5.542636663E-02 -5.926990207E-01
 3.356175423E-01 -5.565054715E-02 -5.982470544E-01
 3.465282321E-01 -5.576666817E-02 -6.111810150E-01
 3.579768538E-01 -5.579296127E-02 -6.209778260E-01
 3.689780533E-01 -5.573176965E-02 -6.351811318E-01
 3.797803223E-01 -5.556565523E-02 -6.325455698E-01
 3.913212121E-01 -5.528742447E-02 -6.174669950E-01
 4.045129120E-01 -5.484053865E-02 -6.025698530E-01
 4.167530835E-01 -5.427858979E-02 -5.767275668E-01
 4.295824468E-01 -5.356039107E-02 -5.378582525E-01
 4.421652257E-01 -5.273573846E-02 -5.115897871E-01
 4.540038407E-01 -5.182991922E-02 -4.717580918E-01
 4.657686651E-01 -5.082986131E-02 -4.296754906E-01
 4.780990183E-01 -4.970741272E-02 -4.062834105E-01
 4.893615842E-01 -4.855562001E-02 -3.611383979E-01
 5.019027591E-01 -4.720143229E-02 -3.175554263E-01
 5.156761408E-01 -4.563049600E-02 -2.793741870E-01
 5.289887786E-01 -4.402831197E-02 -2.419334190E-01
 5.421341062E-01 -4.235978425E-02 -1.984993717E-01
 5.547152758E-01 -4.073101282E-02 -1.670630414E-01
 5.680375695E-01 -3.895130381E-02 -1.304206193E-01
 5.809293985E-01 -3.721323609E-02 -1.053737656E-01
 5.927270651E-01 -3.555966541E-02 -6.622040979E-02
 6.053605080E-01 -3.381950036E-02 -4.572481189E-02
 6.193612218E-01 -3.185244650E-02 -1.243272141E-02
 6.338068247E-01 -2.984596230E-02 9.369761383E-03
 6.483724713E-01 -2.780211903E-02 3.659171175E-02
 6.612242460E-01 -2.599331178E-02 6.159372477E-02
 6.743137240E-01 -2.415565960E-02 8.701705190E-02
 6.868078113E-01 -2.244673111E-02 1.003759338E-01
 6.988406777E-01 -2.077469416E-02 1.270634964E-01
 7.130588293E-01 -1.883409545E-02 1.514509294E-01
 7.264288068E-01 -1.710367016E-02 1.576882486E-01
 7.380528450E-01 -1.554477960E-02 1.871575054E-01
 7.511262298E-01 -1.387112867E-02 2.018899233E-01
 7.634499073E-01 -1.234208327E-02 2.148037832E-01
 7.764039040E-01 -1.073373668E-02 2.381388389E-01
 7.879642844E-01 -9.347065352E-03 2.563807983E-01
 8.008109331E-01 -7.884815335E-03 2.698049037E-01
 8.118013144E-01 -6.675916258E-03 2.850544755E-01
 8.231482506E-01 -5.465472583E-03 3.045231832E-01
 8.361557722E-01 -4.193137400E-03 3.153832832E-01
 8.486788869E-01 -3.043534700E-03 3.308803788E-01
 8.607919812E-01 -2.020489424E-03 3.454329878E-01
 8.724402785E-01 -1.139674452E-03 3.570762647E-01
 8.842108846E-01 -3.579842160E-04 3.673165466E-01
 8.973140717E-01 3.717274813E-04 3.763015230E-01
 9.076461792E-01 8.256009314E-04 3.810994693E-01
 9.183512330E-01 1.189538743E-03 3.829517688E-01
 9.276093245E-01 1.423795475E-03 3.851690849E-01
 9.366745353E-01 1.566381659E-03 3.870485486E-01
 9.486005306E-01 1.640818547E-03 3.841416670E-01
 9.613872766E-01 1.582220779E-03 3.830436373E-01
 9.755679369E-01 1.349995378E-03 3.836905200E-01
 9.885489345E-01 9.877359262E-04 3.934125660E-01
 -5.000000000E-01 -1.000000000E+00 1.523238149E-02
 3.500000000E+00 -1.000000000E+00 7.570183414E-03
 3.500000000E+00 1.000000000E+00 -3.057838943E-02
 -5.000000000E-01 1.000000000E+00 1.395933914E-02
 9.941670001E-01 1.699166460E-03 3.316610891E-01
 9.817766249E-01 4.134059302E-03 2.132158905E-01
 9.674063921E-01 6.957733538E-03 1.427965922E-01
 9.518085718E-01 9.990013205E-03 1.002054163E-01
 9.370614290E-01 1.288049016E-02 3.943261784E-02
 9.238067269E-01 1.545807999E-02 1.382027067E-02
 9.118669331E-01 1.775744371E-02 -3.064929625E-02
 9.000352323E-01 2.003212739E-02 -7.091142981E-02
 8.880708218E-01 2.224771306E-02 -9.365038832E-02
 8.759253025E-01 2.445792034E-02 -1.181942108E-01
 8.637490273E-01 2.665281389E-02 -1.630074444E-01
 8.513590395E-01 2.880691178E-02 -1.754780851E-01
 8.395963609E-01 3.079895210E-02 -2.020561971E-01
 8.283592761E-01 3.267475218E-02 -2.230375575E-01
 8.162627220E-01 3.464162536E-02 -2.447446583E-01
 8.036207855E-01 3.665172681E-02 -2.741197344E-01
 7.909680009E-01 3.859174438E-02 -2.766641577E-01
 7.786188722E-01 4.045866616E-02 -3.073500973E-01
 7.667055428E-01 4.223474674E-02 -3.320506982E-01
 7.542859316E-01 4.401873797E-02 -3.456266575E-01
 7.409513295E-01 4.589404352E-02 -3.738667417E-01
 7.288228571E-01 4.755569994E-02 -4.003053758E-01
 7.179141343E-01 4.899181798E-02 -3.997930018E-01
 7.066367567E-01 5.045713671E-02 -4.346846087E-01
 6.942794621E-01 5.202225037E-02 -4.645608551E-01
 6.811155379E-01 5.360857956E-02 -4.778308535E-01
 6.695642471E-01 5.495668575E-02 -5.171207377E-01
 6.587082744E-01 5.616375431E-02 -5.147753005E-01
 6.470696628E-01 5.740984343E-02 -5.457721601E-01
 6.353740990E-01 5.861643329E-02 -5.713179487E-01
 6.237744391E-01 5.974113755E-02 -5.800285571E-01
 6.127888560E-01 6.076339446E-02 -5.897383169E-01
 6.012340486E-01 6.176723354E-02 -5.434876611E-01
 5.891689956E-01 6.273660064E-02 -6.519621246E-01
 5.767744780E-01 6.367554888E-02 -8.688023599E-01
 5.640016496E-01 6.456695870E-02 -8.666219081E-01
 5.517224669E-01 6.532652676E-02 -8.363248610E-01
 5.401654541E-01 6.597896665E-02 -8.409734797E-01
 5.289585888E-01 6.654486805E-02 -8.240440598E-01
 5.169943869E-01 6.705983728E-02 -8.001378948E-01
 5.052517056E-01 6.750081852E-02 -8.009125738E-01
 4.931604415E-01 6.788715720E-02 -7.851579543E-01
 4.799404144E-01 6.822372973E-02 -7.643054411E-01
 4.663028568E-01 6.847896054E-02 -7.478898156E-01
 4.526181072E-01 6.864263117E-02 -7.274818071E-01
 4.395547211E-01 6.872250885E-02 -7.247164714E-01
 4.268282354E-01 6.872668117E-02 -7.028708346E-01
 4.141898453E-01 6.864842400E-02 -6.786725166E-01
 4.018417895E-01 6.850774586E-02 -6.732294981E-01
 3.896474987E-01 6.830846518E-02 -6.649275735E-01
 3.776833862E-01 6.804032996E-02 -6.358583338E-01
 3.652983755E-01 6.769578159E-02 -6.259725054E-01
 3.525473475E-01 6.728527695E-02 -6.239342602E-01
 3.397648931E-01 6.678974256E-02 -5.975493846E-01
 3.276941329E-01 6.626169011E-02 -6.009825171E-01
 3.157723099E-01 6.566656381E-02 -5.681900047E-01
 3.028140664E-01 6.494926661E-02 -5.612249410E-01
 2.892451584E-01 6.412322819E-02 -5.427964040E-01
 2.761303037E-01 6.324290484E-02 -5.343111474E-01
 2.640523911E-01 6.235717982E-02 -5.166310651E-01
 2.518589348E-01 6.138733216E-02 -5.014937285E-01
 2.394496277E-01 6.032711454E-02 -4.839971397E-01
 2.271802500E-01 5.920492858E-02 -4.741547431E-01
 2.152289823E-01 5.803556181E-02 -4.627706677E-01
 2.035992220E-01 5.681109056E-02 -4.409840219E-01
 1.916937679E-01 5.547729880E-02 -4.272696556E-01
 1.795828193E-01 5.403642543E-02 -4.120952427E-01
 1.679451093E-01 5.255531892E-02 -3.931016506E-01
 1.563333645E-01 5.098276585E-02 -3.737409507E-01
 1.450774297E-01 4.936880246E-02 -3.571671996E-01
 1.339244768E-01 4.766590334E-02 -3.374870807E-01
 1.223844774E-01 4.579345696E-02 -3.147071855E-01
 1.114078015E-01 4.389701411E-02 -2.971709125E-01
 9.071272984E-02 3.995319642E-02 -2.485659289E-01
 7.923660055E-02 3.752500005E-02 -2.134713242E-01
 6.833218411E-02 3.503584675E-02 -1.838033942E-01
 5.832486227E-02 3.254671767E-02 -1.531605510E-01
 7.120246813E-02 -3.069720883E-02 -2.412429021E-01
 8.127942309E-02 -3.259037808E-02 -2.519896146E-01
 9.140811861E-02 -3.435624391E-02 -2.651631667E-01
 1.020419449E-01 -3.608265519E-02 -2.756898867E-01
 1.131809764E-01 -3.777730279E-02 -2.879890628E-01
 1.246835776E-01 -3.941953555E-02 -3.015465459E-01
 1.359414607E-01 -4.093110189E-02 -3.164908382E-01
 1.469490305E-01 -4.232341796E-02 -3.264110583E-01
 1.587411612E-01 -4.372999445E-02 -3.415185398E-01
 1.708053350E-01 -4.508710094E-02 -3.550407498E-01
 1.827771962E-01 -4.635702632E-02 -3.721216707E-01
 1.942589432E-01 -4.750168324E-02 -3.908673579E-01
 2.054481655E-01 -4.854505882E-02 -4.018753216E-01
 2.174257487E-01 -4.959155433E-02 -4.200390661E-01
 2.299792618E-01 -5.060898699E-02 -4.382443258E-01
 2.425924167E-01 -5.154713988E-02 -4.582751649E-01
 2.551706955E-01 -5.239844508E-02 -4.763655095E-01
 2.671115398E-01 -5.313060060E-02 -4.999973679E-01
 2.791977227E-01 -5.378291197E-02 -5.178895138E-01
 2.919505686E-01 -5.437551439E-02 -5.380239142E-01
 3.046537340E-01 -5.486824922E-02 -5.500143266E-01
 3.170256615E-01 -5.526129529E-02 -5.795099496E-01
 3.293014914E-01 -5.553845689E-02 -5.979445241E-01
 3.410728872E-01 -5.570860766E-02 -6.035286642E-01
 3.522525430E-01 -5.577981472E-02 -6.164373889E-01
 3.634774536E-01 -5.576236546E-02 -6.272625944E-01
 3.743791878E-01 -5.564871244E-02 -6.376472172E-01
 3.855507672E-01 -5.542653985E-02 -6.246625286E-01
 3.979170620E-01 -5.506398156E-02 -6.078748205E-01
 4.106329978E-01 -5.455956422E-02 -5.943125419E-01
 4.231677651E-01 -5.391949043E-02 -5.557976357E-01
 4.358738363E-01 -5.314806476E-02 -5.242814533E-01
 4.480845332E-01 -5.228282884E-02 -4.951240465E-01
 4.598862529E-01 -5.132989027E-02 -4.497605516E-01
 4.719338417E-01 -5.026863702E-02 -4.150546731E-01
 4.837303013E-01 -4.913151637E-02 -3.896546171E-01
 4.956321716E-01 -4.787852615E-02 -3.365082368E-01
 5.087894499E-01 -4.641596414E-02 -2.982530080E-01
 5.223324597E-01 -4.482940398E-02 -2.610724639E-01
 5.355614424E-01 -4.319404811E-02 -2.215390291E-01
 5.484246910E-01 -4.154539853E-02 -1.815478078E-01
 5.613764226E-01 -3.984115832E-02 -1.493186664E-01
 5.744834840E-01 -3.808226995E-02 -1.164464112E-01
 5.868282318E-01 -3.638645075E-02 -8.865754249E-02
 5.990437865E-01 -3.468958288E-02 -5.342332764E-02
 6.123608649E-01 -3.283597343E-02 -3.109363535E-02
 6.265840232E-01 -3.084920440E-02 -1.984826566E-04
 6.410896480E-01 -2.882404067E-02 2.225104702E-02
 6.547983587E-01 -2.689771540E-02 4.918574737E-02
 6.677689850E-01 -2.507448569E-02 7.392652842E-02
 6.805607677E-01 -2.330119535E-02 9.566219784E-02
 6.928242445E-01 -2.161071263E-02 1.114834482E-01
 7.059497535E-01 -1.980439480E-02 1.388544973E-01
 7.197438180E-01 -1.796888281E-02 1.579649494E-01
 7.322408259E-01 -1.632422488E-02 1.682153959E-01
 7.445895374E-01 -1.470795413E-02 1.961510648E-01
 7.572880685E-01 -1.310660597E-02 2.093224021E-01
 7.699269056E-01 -1.153790997E-02 2.244610385E-01
 7.821840942E-01 -1.004040102E-02 2.479059375E-01
 7.943876088E-01 -8.615940344E-03 2.632711337E-01
 8.063061237E-01 -7.280365797E-03 2.776913605E-01
 8.174747825E-01 -6.070694420E-03 2.933998015E-01
 8.296520114E-01 -4.829304991E-03 3.100050559E-01
 8.424173295E-01 -3.618336050E-03 3.228435905E-01
 8.547354341E-01 -2.532012062E-03 3.380972169E-01
 8.666161299E-01 -1.580081938E-03 3.515208469E-01
 8.783255816E-01 -7.488293340E-04 3.621038865E-01
 8.907624781E-01 6.871632650E-06 3.712164107E-01
 9.024801254E-01 5.986642063E-04 3.812412845E-01
 9.129987061E-01 1.007569837E-03 3.823992296E-01
 9.426375329E-01 1.603600103E-03 3.842343398E-01
 9.549939036E-01 1.611519663E-03 3.831836683E-01
 9.684776068E-01 1.466108079E-03 3.819216344E-01
 9.820584357E-01 1.168865652E-03 3.874754731E-01
 9.943968952E-01 7.480009517E-04 4.385512704E-01
 -5.000000000E-01 9.500000000E-01 2.296800931E-02
 -5.000000000E-01 9.000000000E-01 3.493656967E-02
 -5.000000000E-01 8.500000000E-01 4.389221117E-02
 -5.000000000E-01 8.000000000E-01 5.189740070E-02
 -5.000000000E-01 7.500000000E-01 5.963209642E-02
 -5.000000000E-01 7.000000000E-01 6.699411199E-02
 -5.000000000E-01 6.500000000E-01 7.495892959E-02
 -5.000000000E-01 6.000000000E-01 8.281898376E-02
 -5.000000000E-01 5.500000000E-01 9.096535705E-02
 -5.000000000E-01 5.000000000E-01 9.929259866E-02
 -5.000000000E-01 4.500000000E-01 1.078558589E-01
 -5.000000000E-01 4.000000000E-01 1.163458085E-01
 -5.000000000E-01 3.500000000E-01 1.247932421E-01
 -5.000000000E-01 3.000000000E-01 1.328291430E-01
 -5.000000000E-01 2.500000000E-01 1.403010869E-01
 -5.000000000E-01 2.000000000E-01 1.468862647E-01
 -5.000000000E-01 1.500000000E-01 1.524529894E-01
 -5.000000000E-01 1.000000000E-01 1.566430240E-01
 -5.000000000E-01 5.000000000E-02 1.592351687E-01
 -5.000000000E-01 2.752242878E-12 1.602672615E-01
 -5.000000000E-01 -5.000000000E-02 1.595148824E-01
 -5.000000000E-01 -1.000000000E-01 1.570261026E-01
 -5.000000000E-01 -1.500000000E-01 1.531735515E-01
 -5.000000000E-01 -2.000000000E-01 1.478607752E-01
 -5.000000000E-01 -2.500000000E-01 1.414816994E-01
 -5.000000000E-01 -3.000000000E-01 1.344081545E-01
 -5.000000000E-01 -3.500000000E-01 1.267209227E-01
 -5.000000000E-01 -4.000000000E-01 1.187241137E-01
 -5.000000000E-01 -4.500000000E-01 1.105400790E-01
 -5.000000000E-01 -5.000000000E-01 1.023129960E-01
 -5.000000000E-01 -5.500000000E-01 9.436144755E-02
 -5.000000000E-01 -6.000000000E-01 8.638450827E-02
 -5.000000000E-01 -6.500000000E-01 7.850712520E-02
 -5.000000000E-01 -7.000000000E-01 7.089289530E-02
 -5.000000000E-01 -7.500000000E-01 6.319162616E-02
 -5.000000000E-01 -8.000000000E-01 5.526349208E-02
 -5.000000000E-01 -8.500000000E-01 4.701864599E-02
 -5.000000000E-01 -9.000000000E-01 3.740999635E-02
 -5.000000000E-01 -9.500000000E-01 2.480038800E-02
 -4.500000000E-01 -1.000000000E+00 2.054548301E-02
 -4.000000000E-01 -1.000000000E+00 3.050894243E-02
 -3.500000000E-01 -1.000000000E+00 3.690761006E-02
 -3.000000000E-01 -1.000000000E+00 4.098638295E-02
 -2.500000000E-01 -1.000000000E+00 4.360881216E-02
 -2.000000000E-01 -1.000000000E+00 4.477282727E-02
 -1.500000000E-01 -1.000000000E+00 4.442269352E-02
 -1.000000000E-01 -1.000000000E+00 4.272875885E-02
 -5.000000000E-02 -1.000000000E+00 3.954054909E-02
 -9.424683256E-13 -1.000000000E+00 3.511334073E-02
 5.000000000E-02 -1.000000000E+00 2.947765483E-02
 1.000000000E-01 -1.000000000E+00 2.283341129E-02
 1.500000000E-01 -1.000000000E+00 1.547060249E-02
 2.000000000E-01 -1.000000000E+00 7.746651405E-03
 2.500000000E-01 -1.000000000E+00 -7.813075493E-05
 3.000000000E-01 -1.000000000E+00 -7.404409226E-03
 3.500000000E-01 -1.000000000E+00 -1.388772717E-02
 4.000000000E-01 -1.000000000E+00 -1.930654427E-02
 4.500000000E-01 -1.000000000E+00 -2.313177268E-02
 5.000000000E-01 -1.000000000E+00 -2.546408660E-02
 5.500000000E-01 -1.000000000E+00 -2.612887711E-02
 6.000000000E-01 -1.000000000E+00 -2.507603590E-02
 6.500000000E-01 -1.000000000E+00 -2.237366107E-02
 7.000000000E-01 -1.000000000E+00 -1.837671864E-02
 7.500000000E-01 -1.000000000E+00 -1.327818782E-02
 8.000000000E-01 -1.000000000E+00 -7.430189376E-03
 8.500000000E-01 -1.000000000E+00 -1.201508107E-03
 9.000000000E-01 -1.000000000E+00 5.070649859E-03
 9.500000000E-01 -1.000000000E+00 1.112466014E-02
 1.000000000E+00 -1.000000000E+00 1.698790673E-02
 1.050000000E+00 -1.000000000E+00 2.229194364E-02
 1.100000000E+00 -1.000000000E+00 2.688145313E-02
 1.150000000E+00 -1.000000000E+00 3.084247493E-02
 1.200000000E+00 -1.000000000E+00 3.421648783E-02
 1.250000000E+00 -1.000000000E+00 3.690518984E-02
 1.300000000E+00 -1.000000000E+00 3.894417154E-02
 1.350000000E+00 -1.000000000E+00 4.038554033E-02
 1.400000000E+00 -1.000000000E+00 4.133889509E-02
 1.450000000E+00 -1.000000000E+00 4.182971583E-02
 1.500000000E+00 -1.000000000E+00 4.197291025E-02
 1.550000000E+00 -1.000000000E+00 4.178736098E-02
 1.600000000E+00 -1.000000000E+00 4.133712244E-02
 1.650000000E+00 -1.000000000E+00 4.070213452E-02
 1.700000000E+00 -1.000000000E+00 3.987127001E-02
 1.750000000E+00 -1.000000000E+00 3.896304802E-02
 1.800000000E+00 -1.000000000E+00 3.791181058E-02
 1.850000000E+00 -1.000000000E+00 3.682046223E-02
 1.900000000E+00 -1.000000000E+00 3.567435421E-02
 1.950000000E+00 -1.000000000E+00 3.453497431E-02
 2.000000000E+00 -1.000000000E+00 3.334170360E-02
 2.050000000E+00 -1.000000000E+00 3.220708112E-02
 2.100000000E+00 -1.000000000E+00 3.110284583E-02
 2.150000000E+00 -1.000000000E+00 2.997347933E-02
 2.200000000E+00 -1.000000000E+00 2.893828912E-02
 2.250000000E+00 -1.000000000E+00 2.786171860E-02
 2.300000000E+00 -1.000000000E+00 2.686062657E-02
 2.350000000E+00 -1.000000000E+00 2.593373297E-02
 2.400000000E+00 -1.000000000E+00 2.505183885E-02
 2.450000000E+00 -1.000000000E+00 2.417303705E-02
 2.500000000E+00 -1.000000000E+00 2.338017005E-02
 2.550000000E+00 -1.000000000E+00 2.264930490E-02
 2.600000000E+00 -1.000000000E+00 2.191057425E-02
 2.650000000E+00 -1.000000000E+00 2.129300568E-02
 2.700000000E+00 -1.000000000E+00 2.067929390E-02
 2.750000000E+00 -1.000000000E+00 2.013562873E-02
 2.800000000E+00 -1.000000000E+00 1.964776816E-02
 2.850000000E+00 -1.000000000E+00 1.919014365E-02
 2.900000000E+00 -1.000000000E+00 1.877269812E-02
 2.950000000E+00 -1.000000000E+00 1.839683797E-02
 3.000000000E+00 -1.000000000E+00 1.804192805E-02
 3.050000000E+00 -1.000000000E+00 1.772390109E-02
 3.100000000E+00 -1.000000000E+00 1.741084250E-02
 3.150000000E+00 -1.000000000E+00 1.708886729E-02
 3.200000000E+00 -1.000000000E+00 1.672423117E-02
 3.250000000E+00 -1.000000000E+00 1.631977467E-02
 3.300000000E+00 -1.000000000E+00 1.576140534E-02
 3.350000000E+00 -1.000000000E+00 1.500212208E-02
 3.400000000E+00 -1.000000000E+00 1.372661015E-02
 3.450000000E+00 -1.000000000E+00 1.112764319E-02
 3.500000000E+00 -9.500000000E-01 5.702445748E-03
 3.500000000E+00 -9.000000000E-01 6.970506658E-03
 3.500000000E+00 -8.500000000E-01 8.253494151E-03
 3.500000000E+00 -8.000000000E-01 9.623468707E-03
 3.500000000E+00 -7.500000000E-01 1.096553087E-02
 3.500000000E+00 -7.000000000E-01 1.234636863E-02
 3.500000000E+00 -6.500000000E-01 1.360905227E-02
 3.500000000E+00 -6.000000000E-01 1.495201226E-02
 3.500000000E+00 -5.500000000E-01 1.628412207E-02
 3.500000000E+00 -5.000000000E-01 1.770444693E-02
 3.500000000E+00 -4.500000000E-01 1.914607880E-02
 3.500000000E+00 -4.000000000E-01 2.062755250E-02
 3.500000000E+00 -3.500000000E-01 2.203644116E-02
 3.500000000E+00 -3.000000000E-01 2.335241353E-02
 3.500000000E+00 -2.500000000E-01 2.435345453E-02
 3.500000000E+00 -2.000000000E-01 2.469980778E-02
 3.500000000E+00 -1.500000000E-01 2.451302553E-02
 3.500000000E+00 -1.000000000E-01 2.406025559E-02
 3.500000000E+00 -5.000000000E-02 2.378904737E-02
 3.500000000E+00 -2.752242878E-12 2.391645321E-02
 3.500000000E+00 5.000000000E-02 2.433314373E-02
 3.500000000E+00 1.000000000E-01 2.455525014E-02
 3.500000000E+00 1.500000000E-01 2.426889363E-02
 3.500000000E+00 2.000000000E-01 2.309418958E-02
 3.500000000E+00 2.500000000E-01 2.168848891E-02
 3.500000000E+00 3.000000000E-01 2.025274049E-02
 3.500000000E+00 3.500000000E-01 1.879188230E-02
 3.500000000E+00 4.000000000E-01 1.723452032E-02
 3.500000000E+00 4.500000000E-01 1.565730196E-02
 3.500000000E+00 5.000000000E-01 1.416126419E-02
 3.500000000E+00 5.500000000E-01 1.292433083E-02
 3.500000000E+00 6.000000000E-01 1.221185964E-02
 3.500000000E+00 6.500000000E-01 1.201163681E-02
 3.500000000E+00 7.000000000E-01 1.136636822E-02
 3.500000000E+00 7.500000000E-01 8.634009213E-03
 3.500000000E+00 8.000000000E-01 1.801899392E-03
 3.500000000E+00 8.500000000E-01 -8.637563335E-03
 3.500000000E+00 9.000000000E-01 -2.113558507E-02
 3.500000000E+00 9.500000000E-01 -3.455313074E-02
 3.450000000E+00 1.000000000E+00 -1.599300310E-02
 3.400000000E+00 1.000000000E+00 -6.308901059E-03
 3.350000000E+00 1.000000000E+00 -2.833358939E-03
 3.300000000E+00 1.000000000E+00 -2.125815903E-03
 3.250000000E+00 1.000000000E+00 -2.060865235E-03
 3.200000000E+00 1.000000000E+00 -2.301146637E-03
 3.150000000E+00 1.000000000E+00 -3.198581240E-03
 3.100000000E+00 1.000000000E+00 -3.755630016E-03
 3.050000000E+00 1.000000000E+00 -4.906730730E-03
 3.000000000E+00 1.000000000E+00 -5.766940114E-03
 2.950000000E+00 1.000000000E+00 -6.742497062E-03
 2.900000000E+00 1.000000000E+00 -7.856549601E-03
 2.850000000E+00 1.000000000E+00 -8.836847333E-03
 2.800000000E+00 1.000000000E+00 -1.005176759E-02
 2.750000000E+00 1.000000000E+00 -1.104399365E-02
 2.700000000E+00 1.000000000E+00 -1.251164866E-02
 2.650000000E+00 1.000000000E+00 -1.334499604E-02
 2.600000000E+00 1.000000000E+00 -1.530541762E-02
 2.550000000E+00 1.000000000E+00 -1.619043259E-02
 2.500000000E+00 1.000000000E+00 -1.798486210E-02
 2.450000000E+00 1.000000000E+00 -1.936617691E-02
 2.400000000E+00 1.000000000E+00 -2.080347967E-02
 2.350000000E+00 1.000000000E+00 -2.242748800E-02
 2.300000000E+00 1.000000000E+00 -2.419097566E-02
 2.250000000E+00 1.000000000E+00 -2.606948352E-02
 2.200000000E+00 1.000000000E+00 -2.802879192E-02
 2.150000000E+00 1.000000000E+00 -3.014961126E-02
 2.100000000E+00 1.000000000E+00 -3.234239458E-02
 2.050000000E+00 1.000000000E+00 -3.475078578E-02
 2.000000000E+00 1.000000000E+00 -3.719913766E-02
 1.950000000E+00 1.000000000E+00 -3.997994966E-02
 1.900000000E+00 1.000000000E+00 -4.306993414E-02
 1.850000000E+00 1.000000000E+00 -4.593888739E-02
 1.800000000E+00 1.000000000E+00 -4.975908897E-02
 1.750000000E+00 1.000000000E+00 -5.330639344E-02
 1.700000000E+00 1.000000000E+00 -5.744672115E-02
 1.650000000E+00 1.000000000E+00 -6.171348185E-02
 1.600000000E+00 1.000000000E+00 -6.662763734E-02
 1.550000000E+00 1.000000000E+00 -7.190091489E-02
 1.500000000E+00 1.000000000E+00 -7.754791025E-02
 1.450000000E+00 1.000000000E+00 -8.359317031E-02
 1.400000000E+00 1.000000000E+00 -9.027716212E-02
 1.350000000E+00 1.000000000E+00 -9.730158106E-02
 1.300000000E+00 1.000000000E+00 -1.048445596E-01
 1.250000000E+00 1.000000000E+00 -1.127746164E-01
 1.200000000E+00 1.000000000E+00 -1.210043751E-01
 1.150000000E+00 1.000000000E+00 -1.293007352E-01
 1.100000000E+00 1.000000000E+00 -1.374635190E-01
 1.050000000E+00 1.000000000E+00 -1.453063233E-01
 1.000000000E+00 1.000000000E+00 -1.517883051E-01
 9.500000000E-01 1.000000000E+00 -1.576595044E-01
 9.000000000E-01 1.000000000E+00 -1.611390034E-01
 8.500000000E-01 1.000000000E+00 -1.651438653E-01
 8.000000000E-01 1.000000000E+00 -1.643325834E-01
 7.500000000E-01 1.000000000E+00 -1.634572563E-01
 7.000000000E-01 1.000000000E+00 -1.578655427E-01
 6.500000000E-01 1.000000000E+00 -1.512700602E-01
 6.000000000E-01 1.000000000E+00 -1.414948776E-01
 5.500000000E-01 1.000000000E+00 -1.298516863E-01
 5.000000000E-01 1.000000000E+00 -1.163978239E-01
 4.500000000E-01 1.000000000E+00 -1.016115508E-01
 4.000000000E-01 1.000000000E+00 -8.580503518E-02
 3.500000000E-01 1.000000000E+00 -7.018189616E-02
 3.000000000E-01 1.000000000E+00 -5.416554251E-02
 2.500000000E-01 1.000000000E+00 -3.891662970E-02
 2.000000000E-01 1.000000000E+00 -2.406109230E-02
 1.500000000E-01 1.000000000E+00 -1.036315807E-02
 1.000000000E-01 1.000000000E+00 1.603699525E-03
 5.000000000E-02 1.000000000E+00 1.234579916E-02
 1.733724275E-12 1.000000000E+00 2.131147411E-02
 -5.000000000E-02 1.000000000E+00 2.839231186E-02
 -1.000000000E-01 1.000000000E+00 3.370034460E-02
 -1.500000000E-01 1.000000000E+00 3.720656258E-02
 -2.000000000E-01 1.000000000E+00 3.889367991E-02
 -2.500000000E-01 1.000000000E+00 3.887944007E-02
 -3.000000000E-01 1.000000000E+00 3.714662470E-02
 -3.500000000E-01 1.000000000E+00 3.370686636E-02
 -4.000000000E-01 1.000000000E+00 2.813374483E-02
 -4.500000000E-01 1.000000000E+00 1.890630061E-02
 9.007315995E-01 -4.135236779E-03 3.721110722E-01
 8.207183852E-01 -1.031918624E-02 2.948780669E-01
 9.842410640E-01 -4.374452028E-03 3.848021608E-01
 7.485948545E-01 -1.985397733E-02 1.958612578E-01
 6.783575798E-01 -2.868804283E-02 9.040522257E-02
 6.100609995E-01 -3.846397286E-02 -3.678849662E-02
 5.397525296E-01 -4.778426423E-02 -2.056582448E-01
 4.803542237E-01 -5.391137141E-02 -3.912937198E-01
 4.260907176E-01 -5.918264797E-02 -5.364624667E-01
 3.717505502E-01 -6.036776072E-02 -6.256838353E-01