TITLE     = "Visualization of the solution"
VARIABLES = "x"
"y"
"Pressure_Coefficient"
ZONE T="Zone"
 STRANDID=0, SOLUTIONTIME=0
 Nodes=11791, Elements=23002, ZONETYPE=FEQuadrilateral
 DATAPACKING=POINT
 DT=(DOUBLE DOUBLE DOUBLE )
 9.999213815E-01 5.016346695E-04 3.547224394E-01
 9.846413136E-01 3.369093873E-03 3.202502957E-01
 9.710334539E-01 5.999405403E-03 2.304900143E-01
 9.543266296E-01 9.207692929E-03 1.634249611E-01
 9.395289421E-01 1.204903983E-02 1.076477050E-01
 9.258581996E-01 1.460254192E-02 7.806645614E-02
 9.140967131E-01 1.683293469E-02 3.602749745E-02
 9.017052054E-01 1.910782978E-02 1.569698450E-02
 8.897552490E-01 2.133112401E-02 -1.857407807E-02
 8.777791858E-01 2.355729043E-02 -6.515315414E-02
 8.656480908E-01 2.570929565E-02 -8.879033641E-02
 8.531991243E-01 2.785083465E-02 -1.023128694E-01
 8.412904739E-01 2.991666272E-02 -1.411029944E-01
 8.297954202E-01 3.180597350E-02 -1.443271918E-01
 8.185213208E-01 3.370231017E-02 -1.845160085E-01
 8.063783646E-01 3.564928472E-02 -2.004459814E-01
 7.937449217E-01 3.761872277E-02 -2.096253708E-01
 7.820866704E-01 3.945398703E-02 -2.436843311E-01
 7.700326443E-01 4.128589481E-02 -2.646790925E-01
 7.586526871E-01 4.299088940E-02 -2.920836732E-01
 7.458089590E-01 4.481881857E-02 -2.963728081E-01
 7.327107787E-01 4.668071121E-02 -3.221899371E-01
 7.222207189E-01 4.815552011E-02 -3.546885829E-01
 7.112938166E-01 4.963263124E-02 -3.718887866E-01
 6.998699307E-01 5.113457143E-02 -3.909585805E-01
 6.871753335E-01 5.276770517E-02 -4.214970967E-01
 6.747798920E-01 5.429260805E-02 -4.481141135E-01
 6.643226743E-01 5.553597957E-02 -4.682768850E-01
 6.528903246E-01 5.682302639E-02 -4.737270625E-01
 6.420391202E-01 5.803117156E-02 -5.025618125E-01
 6.304900646E-01 5.926555768E-02 -5.328154598E-01
 6.192932725E-01 6.040230021E-02 -5.707172799E-01
 6.090994477E-01 6.138957664E-02 -5.929376071E-01
 5.972349048E-01 6.243602559E-02 -5.988544883E-01
 5.858256817E-01 6.341715157E-02 -5.989132814E-01
 5.724682212E-01 6.445433199E-02 -5.875571033E-01
 5.598854423E-01 6.537116319E-02 -6.945205135E-01
 5.473406911E-01 6.619068980E-02 -8.134064853E-01
 5.360514522E-01 6.685689092E-02 -8.187108267E-01
 5.241080523E-01 6.748425961E-02 -8.052277933E-01
 5.115194321E-01 6.807830930E-02 -8.009813672E-01
 5.004478693E-01 6.851609796E-02 -7.843851991E-01
 4.872466922E-01 6.896518171E-02 -7.742972748E-01
 4.740931988E-01 6.930359453E-02 -7.668186297E-01
 4.602481723E-01 6.961077452E-02 -7.623185223E-01
 4.465631545E-01 6.979409605E-02 -7.361196467E-01
 4.336032867E-01 6.988602877E-02 -7.198194028E-01
 4.204451144E-01 6.989599019E-02 -7.158622476E-01
 4.079502523E-01 6.985405833E-02 -7.010223525E-01
 3.949041069E-01 6.968836486E-02 -6.770633396E-01
 3.828490078E-01 6.950537860E-02 -6.824609850E-01
 3.710997403E-01 6.924314797E-02 -6.571483128E-01
 3.576747477E-01 6.886048615E-02 -6.431156389E-01
 3.450766504E-01 6.844288111E-02 -6.328917455E-01
 3.323138952E-01 6.792324036E-02 -6.191715544E-01
 3.217604756E-01 6.745503843E-02 -6.125234632E-01
 3.092828095E-01 6.681463867E-02 -5.904312287E-01
 2.965021729E-01 6.608504057E-02 -5.773589659E-01
 2.827762067E-01 6.522501260E-02 -5.693398598E-01
 2.703288496E-01 6.434176117E-02 -5.476046503E-01
 2.585016787E-01 6.344503909E-02 -5.358684159E-01
 2.459143996E-01 6.240471080E-02 -5.217122104E-01
 2.332735956E-01 6.127613783E-02 -5.084485790E-01
 2.209440917E-01 6.008156389E-02 -4.908823447E-01
 2.090546489E-01 5.884482712E-02 -4.723498180E-01
 1.971779615E-01 5.752570555E-02 -4.556931238E-01
 1.848125756E-01 5.607004836E-02 -4.457048246E-01
 1.730837226E-01 5.457442254E-02 -4.224470680E-01
 1.614182144E-01 5.300071463E-02 -4.075068394E-01
 1.499160230E-01 5.133990198E-02 -3.871725908E-01
 1.389087141E-01 4.965126514E-02 -3.675614105E-01
 1.277140975E-01 4.782276973E-02 -3.460026328E-01
 1.166397408E-01 4.589506611E-02 -3.243390978E-01
 1.060456857E-01 4.393054545E-02 -2.965276669E-01
 9.620954841E-02 4.199793562E-02 -2.820639064E-01
 8.558440953E-02 3.975618631E-02 -2.504799863E-01
 7.434065640E-02 3.720184043E-02 -2.163857585E-01
 6.457062811E-02 3.479993343E-02 -1.841721890E-01
 5.499127507E-02 3.224678710E-02 -1.464939088E-01
 4.602859542E-02 2.964311279E-02 -1.096572318E-01
 3.832110390E-02 2.720123529E-02 -6.527504989E-02
 3.148816898E-02 2.481860667E-02 -2.011210901E-02
 2.571682073E-02 2.262178436E-02 1.927341061E-02
 2.148788236E-02 2.085511945E-02 6.939551835E-02
 1.736915857E-02 1.899084449E-02 1.147454198E-01
 1.422749273E-02 1.742242835E-02 1.664949107E-01
 1.147551183E-02 1.593302935E-02 2.092214823E-01
 9.421792813E-03 1.471401285E-02 2.634392550E-01
 7.570481393E-03 1.351703051E-02 3.078735335E-01
 5.881607533E-03 1.232539024E-02 3.900388645E-01
 3.685709322E-03 1.055270899E-02 4.912672368E-01
 1.888691913E-03 8.812489919E-03 5.937069480E-01
 4.044341622E-04 7.019419689E-03 7.955581899E-01
 -1.026779180E-03 4.524140619E-03 1.001318130E+00
 -1.639353693E-03 2.613181947E-03 1.126813674E+00
 -1.840801327E-03 1.072211657E-03 1.190509029E+00
 -1.753364224E-03 -7.209173054E-04 1.198598618E+00
 -1.271975460E-03 -2.714608097E-03 1.109994868E+00
 -2.243165945E-04 -5.037839524E-03 9.780242825E-01
 1.374605694E-03 -7.430401165E-03 7.949875006E-01
 3.562822472E-03 -9.897083975E-03 6.307695153E-01
 5.536392331E-03 -1.172924973E-02 4.897135573E-01
 7.817868143E-03 -1.356787235E-02 3.994177828E-01
 9.570266120E-03 -1.484077796E-02 3.093204952E-01
 1.174470130E-02 -1.628354378E-02 2.527018942E-01
 1.422784850E-02 -1.779354922E-02 1.852089595E-01
 1.753759943E-02 -1.962059736E-02 1.189031897E-01
 2.067688107E-02 -2.120360173E-02 5.118930186E-02
 2.471260913E-02 -2.307300828E-02 -2.686841605E-03
 3.007426299E-02 -2.531378530E-02 -5.764800052E-02
 3.583365306E-02 -2.748688869E-02 -1.132514435E-01
 4.269447178E-02 -2.983806469E-02 -1.605971715E-01
 5.022395775E-02 -3.217264637E-02 -2.040338117E-01
 5.899151787E-02 -3.463227674E-02 -2.373827357E-01
 6.774774194E-02 -3.687419742E-02 -2.696457371E-01
 7.801360637E-02 -3.928339481E-02 -2.995011516E-01
 8.779513091E-02 -4.139368236E-02 -3.187854755E-01
 9.831326455E-02 -4.348143190E-02 -3.433484239E-01
 1.095182225E-01 -4.555646703E-02 -3.633989779E-01
 1.209952906E-01 -4.753154144E-02 -3.895840804E-01
 1.326680034E-01 -4.938391969E-02 -4.043861476E-01
 1.431773752E-01 -5.095494539E-02 -4.282693709E-01
 1.545663029E-01 -5.254039541E-02 -4.444024704E-01
 1.663957238E-01 -5.407723412E-02 -4.620251130E-01
 1.779771000E-01 -5.548308790E-02 -4.838917499E-01
 1.897774190E-01 -5.681628361E-02 -5.062277642E-01
 2.003250867E-01 -5.792478845E-02 -5.299945700E-01
 2.116709799E-01 -5.902064964E-02 -5.419742249E-01
 2.237548679E-01 -6.010084599E-02 -5.611373687E-01
 2.360219359E-01 -6.110573933E-02 -5.917836903E-01
 2.478771359E-01 -6.197397411E-02 -6.186973859E-01
 2.599244416E-01 -6.275326759E-02 -6.370774045E-01
 2.708301544E-01 -6.337851286E-02 -6.627712609E-01
 2.830729783E-01 -6.397917122E-02 -6.890736294E-01
 2.948941886E-01 -6.445330381E-02 -7.159635309E-01
 3.076778948E-01 -6.485094875E-02 -7.382945099E-01
 3.191794157E-01 -6.510540843E-02 -7.664903326E-01
 3.316356242E-01 -6.526254863E-02 -7.861564315E-01
 3.421444893E-01 -6.530199200E-02 -8.152040779E-01
 3.536401689E-01 -6.523673236E-02 -8.315944701E-01
 3.645822108E-01 -6.508228928E-02 -8.588082394E-01
 3.753226399E-01 -6.480871141E-02 -8.737500473E-01
 3.870986998E-01 -6.442328542E-02 -9.081117591E-01
 3.999100626E-01 -6.385367364E-02 -8.977625773E-01
 4.121641219E-01 -6.318763644E-02 -6.419354228E-01
 4.248707294E-01 -6.237561256E-02 -5.356217154E-01
 4.370744526E-01 -6.145612150E-02 -5.653108100E-01
 4.495627582E-01 -6.038370356E-02 -5.289152443E-01
 4.617459476E-01 -5.926049128E-02 -4.946822849E-01
 4.740559459E-01 -5.800021067E-02 -4.522340536E-01
 4.860127568E-01 -5.669330060E-02 -4.103069688E-01
 4.986434579E-01 -5.524846539E-02 -3.834277857E-01
 5.120313168E-01 -5.357335135E-02 -3.254520751E-01
 5.253952742E-01 -5.185770616E-02 -2.871757121E-01
 5.381911397E-01 -5.015508085E-02 -2.523959213E-01
 5.515357256E-01 -4.833925888E-02 -2.240845835E-01
 5.647857785E-01 -4.644516855E-02 -1.784334718E-01
 5.779371858E-01 -4.455425590E-02 -1.469128185E-01
 5.908519030E-01 -4.269009084E-02 -1.234316862E-01
 6.039317846E-01 -4.076485708E-02 -9.491225293E-02
 6.175878048E-01 -3.872414306E-02 -6.363245903E-02
 6.317837238E-01 -3.659201041E-02 -3.399322555E-02
 6.459678411E-01 -3.446687385E-02 -8.590912286E-03
 6.591016650E-01 -3.248973191E-02 1.841937692E-02
 6.727952361E-01 -3.046037443E-02 3.642540986E-02
 6.854102015E-01 -2.858882956E-02 5.702488107E-02
 6.978064179E-01 -2.675502375E-02 7.710986035E-02
 7.127816677E-01 -2.455058135E-02 1.009034647E-01
 7.260321379E-01 -2.262075618E-02 1.210875706E-01
 7.376212478E-01 -2.094996721E-02 1.394926297E-01
 7.510468960E-01 -1.904423535E-02 1.574973093E-01
 7.637508512E-01 -1.726063527E-02 1.774594467E-01
 7.771207690E-01 -1.541392505E-02 1.984185752E-01
 7.895867229E-01 -1.375180949E-02 2.120784367E-01
 8.023857474E-01 -1.206536405E-02 2.317898810E-01
 8.134029508E-01 -1.063436549E-02 2.542179267E-01
 8.249804378E-01 -9.221699089E-03 2.643132731E-01
 8.373963237E-01 -7.732328027E-03 2.870550620E-01
 8.502550721E-01 -6.314029451E-03 2.966523982E-01
 8.623757362E-01 -5.012558773E-03 3.189827925E-01
 8.736171722E-01 -3.924733028E-03 3.277671825E-01
 8.848777413E-01 -2.895893995E-03 3.446241490E-01
 8.977482915E-01 -1.868614811E-03 3.534261369E-01
 9.079216123E-01 -1.149719348E-03 3.653006820E-01
 9.188292623E-01 -5.094475346E-04 3.683983584E-01
 9.290704131E-01 -1.323207380E-05 3.711030320E-01
 9.384401441E-01 3.533843847E-04 3.742481958E-01
 9.507299066E-01 6.853555678E-04 3.724021312E-01
 9.640316367E-01 8.759498014E-04 3.690130609E-01
 9.777997136E-01 8.923079586E-04 3.649095518E-01
 9.898303747E-01 7.469759439E-04 3.843523686E-01
 -5.000000000E-01 -1.000000000E+00 1.598772188E-02
 3.500000000E+00 -1.000000000E+00 5.066159381E-03
 3.500000000E+00 1.000000000E+00 -2.351498357E-02
 -5.000000000E-01 1.000000000E+00 1.590373487E-02
 9.922813475E-01 1.935364271E-03 4.009717702E-01
 9.778373837E-01 4.684249638E-03 2.685773289E-01
 9.626800418E-01 7.603549166E-03 1.944164922E-01
 9.469277859E-01 1.062836638E-02 1.320824997E-01
 9.326935709E-01 1.332579087E-02 9.401826821E-02
 9.199774563E-01 1.571773831E-02 5.371766264E-02
 9.079009593E-01 1.797038224E-02 2.792111568E-02
 8.957302272E-01 2.021947689E-02 -1.160431073E-04
 8.837672174E-01 2.244420722E-02 -4.549349006E-02
 8.717136383E-01 2.463329304E-02 -7.887165889E-02
 8.594236076E-01 2.678006515E-02 -9.126872562E-02
 8.472447991E-01 2.888374869E-02 -1.273746087E-01
 8.355429471E-01 3.086131811E-02 -1.368993026E-01
 8.241583705E-01 3.275414184E-02 -1.680458564E-01
 8.124498427E-01 3.467579745E-02 -1.942872982E-01
 8.000616431E-01 3.663400374E-02 -2.005459576E-01
 7.879157960E-01 3.853635490E-02 -2.298436104E-01
 7.760596573E-01 4.036994092E-02 -2.517838272E-01
 7.643426657E-01 4.213839211E-02 -2.835669964E-01
 7.522308230E-01 4.390485398E-02 -2.912044902E-01
 7.392598689E-01 4.574976489E-02 -3.071888308E-01
 7.274657488E-01 4.741811566E-02 -3.410904760E-01
 7.167572677E-01 4.889407568E-02 -3.637426453E-01
 7.055818737E-01 5.038360134E-02 -3.797178326E-01
 6.935226321E-01 5.195113830E-02 -4.073640130E-01
 6.809776127E-01 5.353015661E-02 -4.334707003E-01
 6.695512831E-01 5.491429381E-02 -4.627499529E-01
 6.586064994E-01 5.617950298E-02 -4.664399872E-01
 6.474647224E-01 5.742709897E-02 -4.887132956E-01
 6.362645924E-01 5.864836462E-02 -5.176528143E-01
 6.248916686E-01 5.983392894E-02 -5.493014516E-01
 6.141963601E-01 6.089593843E-02 -5.901107304E-01
 6.031671762E-01 6.191280112E-02 -5.897910368E-01
 5.915302932E-01 6.292658858E-02 -6.093859486E-01
 5.791469514E-01 6.393574178E-02 -5.830839740E-01
 5.661768317E-01 6.491274759E-02 -6.259840256E-01
 5.536130667E-01 6.578092650E-02 -7.669546001E-01
 5.416960716E-01 6.652379036E-02 -8.253411734E-01
 5.300797522E-01 6.717057526E-02 -8.092048318E-01
 5.178137422E-01 6.778128445E-02 -8.053335984E-01
 5.059836507E-01 6.829720363E-02 -7.908509563E-01
 4.938472807E-01 6.874063984E-02 -7.823029516E-01
 4.806699455E-01 6.913438812E-02 -7.649194737E-01
 4.671706855E-01 6.945718452E-02 -7.713648285E-01
 4.534056634E-01 6.970243528E-02 -7.473563877E-01
 4.400832206E-01 6.984006241E-02 -7.269971923E-01
 4.270242006E-01 6.989100948E-02 -7.145237092E-01
 4.141976833E-01 6.987502426E-02 -7.161878814E-01
 4.014271796E-01 6.977121159E-02 -6.805332159E-01
 3.888765574E-01 6.959687173E-02 -6.839376383E-01
 3.769743741E-01 6.937426329E-02 -6.718530536E-01
 3.643872440E-01 6.905181706E-02 -6.462460577E-01
 3.513756990E-01 6.865168363E-02 -6.420567034E-01
 3.386952728E-01 6.818306074E-02 -6.208016732E-01
 3.270371854E-01 6.768913940E-02 -6.203524869E-01
 3.155216426E-01 6.713483855E-02 -6.013418975E-01
 3.028924912E-01 6.644983962E-02 -5.819748816E-01
 2.896391898E-01 6.565502658E-02 -5.762782496E-01
 2.765525281E-01 6.478338689E-02 -5.557093843E-01
 2.644152641E-01 6.389340013E-02 -5.429656770E-01
 2.522080392E-01 6.292487495E-02 -5.284028301E-01
 2.395939976E-01 6.184042431E-02 -5.159914074E-01
 2.271088436E-01 6.067885086E-02 -4.994689941E-01
 2.149993703E-01 5.946319550E-02 -4.818229999E-01
 2.031163052E-01 5.818526633E-02 -4.625685045E-01
 1.909952685E-01 5.679787695E-02 -4.530024442E-01
 1.789481491E-01 5.532223545E-02 -4.325788540E-01
 1.672509685E-01 5.378756858E-02 -4.163972938E-01
 1.556671187E-01 5.217030831E-02 -3.966338218E-01
 1.444123685E-01 5.049558356E-02 -3.783200157E-01
 1.333114058E-01 4.873701744E-02 -3.571355351E-01
 1.221769191E-01 4.685891792E-02 -3.348706070E-01
 1.113427132E-01 4.491280578E-02 -3.125582963E-01
 9.089697897E-02 4.087706096E-02 -2.677150211E-01
 7.996253297E-02 3.847901337E-02 -2.374190962E-01
 7.288067415E-02 -3.807879612E-02 -2.890968670E-01
 9.305419773E-02 -4.243755713E-02 -3.381350843E-01
 1.039157435E-01 -4.451894946E-02 -3.504864369E-01
 1.152567565E-01 -4.654400423E-02 -3.772697180E-01
 1.268316470E-01 -4.845773056E-02 -3.988915736E-01
 1.379226893E-01 -5.016943254E-02 -4.157207523E-01
 1.488718390E-01 -5.174767040E-02 -4.369248046E-01
 1.604810134E-01 -5.330881476E-02 -4.527711947E-01
 1.721864119E-01 -5.478016101E-02 -4.729282776E-01
 1.838772595E-01 -5.614968576E-02 -4.947029074E-01
 1.950512528E-01 -5.737053603E-02 -5.191901362E-01
 2.059980333E-01 -5.847271904E-02 -5.367347087E-01
 2.177129239E-01 -5.956074782E-02 -5.494624136E-01
 2.298884019E-01 -6.060329266E-02 -5.754574085E-01
 2.419495359E-01 -6.153985672E-02 -6.067565933E-01
 2.539007887E-01 -6.236362085E-02 -6.284157594E-01
 2.653772980E-01 -6.306589022E-02 -6.491613363E-01
 2.769515663E-01 -6.367884204E-02 -6.749379389E-01
 2.889835835E-01 -6.421623752E-02 -7.034174952E-01
 3.012860417E-01 -6.465212628E-02 -7.264654426E-01
 3.134286553E-01 -6.497817859E-02 -7.525409306E-01
 3.254075199E-01 -6.518397853E-02 -7.765429673E-01
 3.368900567E-01 -6.528227031E-02 -8.011754870E-01
 3.478923291E-01 -6.526936218E-02 -8.244000777E-01
 3.591111898E-01 -6.515951082E-02 -8.424503721E-01
 3.699524254E-01 -6.494550034E-02 -8.711433709E-01
 3.812106699E-01 -6.461599842E-02 -8.822456651E-01
 3.935043812E-01 -6.413847953E-02 -9.254846059E-01
 4.060370922E-01 -6.352065504E-02 -7.939401418E-01
 4.185174257E-01 -6.278162450E-02 -5.487127663E-01
 4.309725910E-01 -6.191586703E-02 -5.546097220E-01
 4.433186054E-01 -6.091991253E-02 -5.548249024E-01
 4.556543529E-01 -5.982209742E-02 -5.075262292E-01
 4.679009467E-01 -5.863035098E-02 -4.772875373E-01
 4.800343513E-01 -5.734675564E-02 -4.296155090E-01
 4.923281074E-01 -5.597088300E-02 -3.956161570E-01
 5.053373873E-01 -5.441090837E-02 -3.591711887E-01
 5.187132955E-01 -5.271552876E-02 -3.027365669E-01
 5.317932069E-01 -5.100639351E-02 -2.705476105E-01
 5.448634326E-01 -4.924716987E-02 -2.368940703E-01
 5.581607521E-01 -4.739221372E-02 -2.040239293E-01
 5.713614821E-01 -4.549971223E-02 -1.608459597E-01
 5.843945444E-01 -4.362217337E-02 -1.342686771E-01
 5.973918438E-01 -4.172747396E-02 -1.098153222E-01
 6.107597947E-01 -3.974450007E-02 -7.990157004E-02
 6.246857643E-01 -3.765807673E-02 -4.872060566E-02
 6.388757825E-01 -3.552944213E-02 -2.082460367E-02
 6.525347531E-01 -3.347830288E-02 4.110681857E-03
 6.659484506E-01 -3.147505317E-02 2.857958208E-02
 6.791027188E-01 -2.952460200E-02 4.630502075E-02
 6.916083097E-01 -2.767192665E-02 6.679054847E-02
 7.052940428E-01 -2.565280255E-02 8.840727843E-02
 7.194069028E-01 -2.358566877E-02 1.117086389E-01
 7.318266928E-01 -2.178536169E-02 1.303435017E-01
 7.443340719E-01 -1.999710128E-02 1.482685621E-01
 7.573988736E-01 -1.815243531E-02 1.672800211E-01
 7.704358101E-01 -1.633728016E-02 1.874316949E-01
 7.833537459E-01 -1.458286727E-02 2.064877334E-01
 7.959862351E-01 -1.290858677E-02 2.208899550E-01
 8.078943491E-01 -1.134986477E-02 2.425161891E-01
 8.191916943E-01 -9.928032290E-03 2.604749069E-01
 8.311883807E-01 -8.477013558E-03 2.737482850E-01
 8.438256979E-01 -7.023178739E-03 2.931812897E-01
 8.563154042E-01 -5.663294112E-03 3.061010145E-01
 8.679964542E-01 -4.468645900E-03 3.253189744E-01
 8.792474568E-01 -3.410313511E-03 3.347842044E-01
 8.913130164E-01 -2.382254403E-03 3.487486260E-01
 9.028349519E-01 -1.509167079E-03 3.605695926E-01
 9.133754373E-01 -8.295834414E-04 3.669639856E-01
 9.239498377E-01 -2.613398042E-04 3.709203748E-01
 9.445850253E-01 5.193699762E-04 3.737686200E-01
 9.573807716E-01 7.806526846E-04 3.701981920E-01
 9.709156752E-01 8.841288800E-04 3.668830406E-01
 9.838150442E-01 8.196419512E-04 3.615794754E-01
 -5.000000000E-01 9.500000000E-01 2.624236823E-02
 -5.000000000E-01 9.000000000E-01 3.916521187E-02
 -5.000000000E-01 8.500000000E-01 4.956625633E-02
 -5.000000000E-01 8.000000000E-01 5.826963384E-02
 -5.000000000E-01 7.500000000E-01 6.700705454E-02
 -5.000000000E-01 7.000000000E-01 7.526585342E-02
 -5.000000000E-01 6.500000000E-01 8.394378327E-02
 -5.000000000E-01 6.000000000E-01 9.272133526E-02
 -5.000000000E-01 5.500000000E-01 1.016836058E-01
 -5.000000000E-01 5.000000000E-01 1.107572527E-01
 -5.000000000E-01 4.500000000E-01 1.202578740E-01
 -5.000000000E-01 4.000000000E-01 1.294987731E-01
 -5.000000000E-01 3.500000000E-01 1.387505465E-01
 -5.000000000E-01 3.000000000E-01 1.475059262E-01
 -5.000000000E-01 2.500000000E-01 1.557659490E-01
 -5.000000000E-01 2.000000000E-01 1.629423616E-01
 -5.000000000E-01 1.500000000E-01 1.690470164E-01
 -5.000000000E-01 1.000000000E-01 1.735936304E-01
 -5.000000000E-01 5.000000000E-02 1.763687938E-01
 -5.000000000E-01 2.752242878E-12 1.773458569E-01
 -5.000000000E-01 -5.000000000E-02 1.763067245E-01
 -5.000000000E-01 -1.000000000E-01 1.734539495E-01
 -5.000000000E-01 -1.500000000E-01 1.688463255E-01
 -5.000000000E-01 -2.000000000E-01 1.626855374E-01
 -5.000000000E-01 -2.500000000E-01 1.554023872E-01
 -5.000000000E-01 -3.000000000E-01 1.472325007E-01
 -5.000000000E-01 -3.500000000E-01 1.382885084E-01
 -5.000000000E-01 -4.000000000E-01 1.292803104E-01
 -5.000000000E-01 -4.500000000E-01 1.198247142E-01
 -5.000000000E-01 -5.000000000E-01 1.106576815E-01
 -5.000000000E-01 -5.500000000E-01 1.014862490E-01
 -5.000000000E-01 -6.000000000E-01 9.255123137E-02
 -5.000000000E-01 -6.500000000E-01 8.393983676E-02
 -5.000000000E-01 -7.000000000E-01 7.539418021E-02
 -5.000000000E-01 -7.500000000E-01 6.699966346E-02
 -5.000000000E-01 -8.000000000E-01 5.844659339E-02
 -5.000000000E-01 -8.500000000E-01 4.961705107E-02
 -5.000000000E-01 -9.000000000E-01 3.938953778E-02
 -5.000000000E-01 -9.500000000E-01 2.605781409E-02
 -4.500000000E-01 -1.000000000E+00 2.159743828E-02
 -4.000000000E-01 -1.000000000E+00 3.192934962E-02
 -3.500000000E-01 -1.000000000E+00 3.835396081E-02
 -3.000000000E-01 -1.000000000E+00 4.240762616E-02
 -2.500000000E-01 -1.000000000E+00 4.461827646E-02
 -2.000000000E-01 -1.000000000E+00 4.532837847E-02
 -1.500000000E-01 -1.000000000E+00 4.412602669E-02
 -1.000000000E-01 -1.000000000E+00 4.118880411E-02
 -5.000000000E-02 -1.000000000E+00 3.650476693E-02
 -9.424683256E-13 -1.000000000E+00 3.029551913E-02
 5.000000000E-02 -1.000000000E+00 2.248445821E-02
 1.000000000E-01 -1.000000000E+00 1.334412884E-02
 1.500000000E-01 -1.000000000E+00 3.163653297E-03
 2.000000000E-01 -1.000000000E+00 -7.509483854E-03
 2.500000000E-01 -1.000000000E+00 -1.825170975E-02
 3.000000000E-01 -1.000000000E+00 -2.841381034E-02
 3.500000000E-01 -1.000000000E+00 -3.792821100E-02
 4.000000000E-01 -1.000000000E+00 -4.588916994E-02
 4.500000000E-01 -1.000000000E+00 -5.230580721E-02
 5.000000000E-01 -1.000000000E+00 -5.645689247E-02
 5.500000000E-01 -1.000000000E+00 -5.878429114E-02
 6.000000000E-01 -1.000000000E+00 -5.877569442E-02
 6.500000000E-01 -1.000000000E+00 -5.680824969E-02
 7.000000000E-01 -1.000000000E+00 -5.304465962E-02
 7.500000000E-01 -1.000000000E+00 -4.799587592E-02
 8.000000000E-01 -1.000000000E+00 -4.143622041E-02
 8.500000000E-01 -1.000000000E+00 -3.467556864E-02
 9.000000000E-01 -1.000000000E+00 -2.708113073E-02
 9.500000000E-01 -1.000000000E+00 -1.978198088E-02
 1.000000000E+00 -1.000000000E+00 -1.264653865E-02
 1.050000000E+00 -1.000000000E+00 -5.926508682E-03
 1.100000000E+00 -1.000000000E+00 7.308738277E-05
 1.150000000E+00 -1.000000000E+00 5.698457220E-03
 1.200000000E+00 -1.000000000E+00 1.000572521E-02
 1.250000000E+00 -1.000000000E+00 1.417226576E-02
 1.300000000E+00 -1.000000000E+00 1.756775900E-02
 1.350000000E+00 -1.000000000E+00 2.009802081E-02
 1.400000000E+00 -1.000000000E+00 2.217057149E-02
 1.450000000E+00 -1.000000000E+00 2.369880138E-02
 1.500000000E+00 -1.000000000E+00 2.487517875E-02
 1.550000000E+00 -1.000000000E+00 2.565845162E-02
 1.600000000E+00 -1.000000000E+00 2.612591155E-02
 1.650000000E+00 -1.000000000E+00 2.633307512E-02
 1.700000000E+00 -1.000000000E+00 2.633556437E-02
 1.750000000E+00 -1.000000000E+00 2.610838022E-02
 1.800000000E+00 -1.000000000E+00 2.597849887E-02
 1.850000000E+00 -1.000000000E+00 2.526951298E-02
 1.900000000E+00 -1.000000000E+00 2.498836617E-02
 1.950000000E+00 -1.000000000E+00 2.438979413E-02
 2.000000000E+00 -1.000000000E+00 2.373772377E-02
 2.050000000E+00 -1.000000000E+00 2.315895186E-02
 2.100000000E+00 -1.000000000E+00 2.256599678E-02
 2.150000000E+00 -1.000000000E+00 2.190159258E-02
 2.200000000E+00 -1.000000000E+00 2.126815528E-02
 2.250000000E+00 -1.000000000E+00 2.076676917E-02
 2.300000000E+00 -1.000000000E+00 2.004331296E-02
 2.350000000E+00 -1.000000000E+00 1.953379024E-02
 2.400000000E+00 -1.000000000E+00 1.902012884E-02
 2.450000000E+00 -1.000000000E+00 1.851454297E-02
 2.500000000E+00 -1.000000000E+00 1.806362986E-02
 2.550000000E+00 -1.000000000E+00 1.769815854E-02
 2.600000000E+00 -1.000000000E+00 1.721996269E-02
 2.650000000E+00 -1.000000000E+00 1.690634483E-02
 2.700000000E+00 -1.000000000E+00 1.658264883E-02
 2.750000000E+00 -1.000000000E+00 1.634239746E-02
 2.800000000E+00 -1.000000000E+00 1.608217789E-02
 2.850000000E+00 -1.000000000E+00 1.598502117E-02
 2.900000000E+00 -1.000000000E+00 1.566497302E-02
 2.950000000E+00 -1.000000000E+00 1.564889197E-02
 3.000000000E+00 -1.000000000E+00 1.546265825E-02
 3.050000000E+00 -1.000000000E+00 1.540835815E-02
 3.100000000E+00 -1.000000000E+00 1.530623926E-02
 3.150000000E+00 -1.000000000E+00 1.521287629E-02
 3.200000000E+00 -1.000000000E+00 1.505400412E-02
 3.250000000E+00 -1.000000000E+00 1.482900284E-02
 3.300000000E+00 -1.000000000E+00 1.443624253E-02
 3.350000000E+00 -1.000000000E+00 1.384841097E-02
 3.400000000E+00 -1.000000000E+00 1.249784796E-02
 3.450000000E+00 -1.000000000E+00 9.437805667E-03
 3.500000000E+00 -9.500000000E-01 3.325524963E-03
 3.500000000E+00 -9.000000000E-01 5.881372560E-03
 3.500000000E+00 -8.500000000E-01 8.010971442E-03
 3.500000000E+00 -8.000000000E-01 1.001949733E-02
 3.500000000E+00 -7.500000000E-01 1.154377606E-02
 3.500000000E+00 -7.000000000E-01 1.281107145E-02
 3.500000000E+00 -6.500000000E-01 1.414082138E-02
 3.500000000E+00 -6.000000000E-01 1.557148445E-02
 3.500000000E+00 -5.500000000E-01 1.713470678E-02
 3.500000000E+00 -5.000000000E-01 1.869605227E-02
 3.500000000E+00 -4.500000000E-01 2.035066263E-02
 3.500000000E+00 -4.000000000E-01 2.198893169E-02
 3.500000000E+00 -3.500000000E-01 2.364282354E-02
 3.500000000E+00 -3.000000000E-01 2.521216721E-02
 3.500000000E+00 -2.500000000E-01 2.649269229E-02
 3.500000000E+00 -2.000000000E-01 2.721056554E-02
 3.500000000E+00 -1.500000000E-01 2.731701763E-02
 3.500000000E+00 -1.000000000E-01 2.687665337E-02
 3.500000000E+00 -5.000000000E-02 2.654195994E-02
 3.500000000E+00 -2.752242878E-12 2.672112683E-02
 3.500000000E+00 5.000000000E-02 2.713182117E-02
 3.500000000E+00 1.000000000E-01 2.744241153E-02
 3.500000000E+00 1.500000000E-01 2.717798327E-02
 3.500000000E+00 2.000000000E-01 2.617555191E-02
 3.500000000E+00 2.500000000E-01 2.467840062E-02
 3.500000000E+00 3.000000000E-01 2.305600560E-02
 3.500000000E+00 3.500000000E-01 2.149719226E-02
 3.500000000E+00 4.000000000E-01 1.993442687E-02
 3.500000000E+00 4.500000000E-01 1.817295427E-02
 3.500000000E+00 5.000000000E-01 1.646184791E-02
 3.500000000E+00 5.500000000E-01 1.499163263E-02
 3.500000000E+00 6.000000000E-01 1.393115669E-02
 3.500000000E+00 6.500000000E-01 1.326717834E-02
 3.500000000E+00 7.000000000E-01 1.223480666E-02
 3.500000000E+00 7.500000000E-01 1.037337901E-02
 3.500000000E+00 8.000000000E-01 5.493895920E-03
 3.500000000E+00 8.500000000E-01 -3.002398779E-03
 3.500000000E+00 9.000000000E-01 -1.398788961E-02
 3.500000000E+00 9.500000000E-01 -2.663742098E-02
 3.450000000E+00 1.000000000E+00 -1.039346962E-02
 3.400000000E+00 1.000000000E+00 -1.705534659E-03
 3.350000000E+00 1.000000000E+00 1.218571668E-03
 3.300000000E+00 1.000000000E+00 1.708572839E-03
 3.250000000E+00 1.000000000E+00 1.598392946E-03
 3.200000000E+00 1.000000000E+00 1.268252456E-03
 3.150000000E+00 1.000000000E+00 7.735402350E-04
 3.100000000E+00 1.000000000E+00 -1.731009368E-04
 3.050000000E+00 1.000000000E+00 -7.140125760E-04
 3.000000000E+00 1.000000000E+00 -1.664004112E-03
 2.950000000E+00 1.000000000E+00 -2.497467161E-03
 2.900000000E+00 1.000000000E+00 -3.495235707E-03
 2.850000000E+00 1.000000000E+00 -4.393615666E-03
 2.800000000E+00 1.000000000E+00 -5.116765408E-03
 2.750000000E+00 1.000000000E+00 -6.408505061E-03
 2.700000000E+00 1.000000000E+00 -6.874450244E-03
 2.650000000E+00 1.000000000E+00 -8.357766742E-03
 2.600000000E+00 1.000000000E+00 -9.228489966E-03
 2.550000000E+00 1.000000000E+00 -1.040805721E-02
 2.500000000E+00 1.000000000E+00 -1.135413631E-02
 2.450000000E+00 1.000000000E+00 -1.277169567E-02
 2.400000000E+00 1.000000000E+00 -1.383735324E-02
 2.350000000E+00 1.000000000E+00 -1.539845026E-02
 2.300000000E+00 1.000000000E+00 -1.667809132E-02
 2.250000000E+00 1.000000000E+00 -1.825733453E-02
 2.200000000E+00 1.000000000E+00 -1.978562192E-02
 2.150000000E+00 1.000000000E+00 -2.129555840E-02
 2.100000000E+00 1.000000000E+00 -2.318188656E-02
 2.050000000E+00 1.000000000E+00 -2.491822106E-02
 2.000000000E+00 1.000000000E+00 -2.701126502E-02
 1.950000000E+00 1.000000000E+00 -2.898692574E-02
 1.900000000E+00 1.000000000E+00 -3.173916163E-02
 1.850000000E+00 1.000000000E+00 -3.422271092E-02
 1.800000000E+00 1.000000000E+00 -3.725406364E-02
 1.750000000E+00 1.000000000E+00 -4.035673799E-02
 1.700000000E+00 1.000000000E+00 -4.367622406E-02
 1.650000000E+00 1.000000000E+00 -4.744085858E-02
 1.600000000E+00 1.000000000E+00 -5.164192702E-02
 1.550000000E+00 1.000000000E+00 -5.605843975E-02
 1.500000000E+00 1.000000000E+00 -6.132560599E-02
 1.450000000E+00 1.000000000E+00 -6.630727762E-02
 1.400000000E+00 1.000000000E+00 -7.262857543E-02
 1.350000000E+00 1.000000000E+00 -7.900168437E-02
 1.300000000E+00 1.000000000E+00 -8.584312510E-02
 1.250000000E+00 1.000000000E+00 -9.329640767E-02
 1.200000000E+00 1.000000000E+00 -1.011893907E-01
 1.150000000E+00 1.000000000E+00 -1.093885713E-01
 1.100000000E+00 1.000000000E+00 -1.171269837E-01
 1.050000000E+00 1.000000000E+00 -1.252202941E-01
 1.000000000E+00 1.000000000E+00 -1.322422265E-01
 9.500000000E-01 1.000000000E+00 -1.386759381E-01
 9.000000000E-01 1.000000000E+00 -1.441302013E-01
 8.500000000E-01 1.000000000E+00 -1.472316228E-01
 8.000000000E-01 1.000000000E+00 -1.493203913E-01
 7.500000000E-01 1.000000000E+00 -1.483933126E-01
 7.000000000E-01 1.000000000E+00 -1.451339497E-01
 6.500000000E-01 1.000000000E+00 -1.396033523E-01
 6.000000000E-01 1.000000000E+00 -1.312766323E-01
 5.500000000E-01 1.000000000E+00 -1.206680544E-01
 5.000000000E-01 1.000000000E+00 -1.083635394E-01
 4.500000000E-01 1.000000000E+00 -9.478382382E-02
 4.000000000E-01 1.000000000E+00 -8.021630896E-02
 3.500000000E-01 1.000000000E+00 -6.434518951E-02
 3.000000000E-01 1.000000000E+00 -4.866120055E-02
 2.500000000E-01 1.000000000E+00 -3.306389469E-02
 2.000000000E-01 1.000000000E+00 -1.864773859E-02
 1.500000000E-01 1.000000000E+00 -5.086180089E-03
 1.000000000E-01 1.000000000E+00 7.296304604E-03
 5.000000000E-02 1.000000000E+00 1.819069121E-02
 1.733724275E-12 1.000000000E+00 2.727379607E-02
 -5.000000000E-02 1.000000000E+00 3.446347592E-02
 -1.000000000E-01 1.000000000E+00 3.973659061E-02
 -1.500000000E-01 1.000000000E+00 4.315002003E-02
 -2.000000000E-01 1.000000000E+00 4.464195631E-02
 -2.500000000E-01 1.000000000E+00 4.435398790E-02
 -3.000000000E-01 1.000000000E+00 4.215306194E-02
 -3.500000000E-01 1.000000000E+00 3.826440771E-02
 -4.000000000E-01 1.000000000E+00 3.187995043E-02
 -4.500000000E-01 1.000000000E+00 2.143756206E-02
 9.056103429E-01 -5.456189435E-03 3.564149193E-01
 8.286771767E-01 -1.374101165E-02 2.663914856E-01
 9.869615109E-01 -5.111569378E-03 3.442417199E-01
 7.549609745E-01 -2.403490831E-02 1.608466485E-01
 6.830431536E-01 -3.436713145E-02 5.160538035E-02
 6.150574548E-01 -4.514755175E-02 -7.105654775E-02
 5.486962448E-01 -5.341990158E-02 -2.270657675E-01
 4.835894627E-01 -6.219747914E-02 -4.119645204E-01
 4.288687435E-01 -6.740920164E-02 -5.329088277E-01
 3.721190357E-01 -6.962364552E-02 -8.594579677E-01
 3.221467212E-01 -7.035178099E-02 -7.597770300E-01
 2.623801306E-01 -6.763189109E-02 -6.333831388E-01
 2.084193911E-01 -6.348250088E-02 -5.310079141E-01