TITLE     = "Visualization of the solution"
VARIABLES = "x"
"y"
"Pressure_Coefficient"
ZONE T="Zone"
 STRANDID=0, SOLUTIONTIME=0
 Nodes=11951, Elements=23318, ZONETYPE=FEQuadrilateral
 DATAPACKING=POINT
 DT=(DOUBLE DOUBLE DOUBLE )
 1.000093937E+00 5.083169090E-04 3.621771159E-01
 9.862654805E-01 3.245814703E-03 2.554877806E-01
 9.730240703E-01 5.936270114E-03 1.700281186E-01
 9.558836818E-01 9.297305718E-03 1.267978332E-01
 9.413900375E-01 1.225253567E-02 5.951194773E-02
 9.272564054E-01 1.498660073E-02 3.877251425E-02
 9.155950546E-01 1.729640737E-02 -9.226190817E-04
 9.038705826E-01 1.958885044E-02 -3.150283526E-02
 8.922174573E-01 2.186405286E-02 -7.271716709E-02
 8.804821372E-01 2.408042923E-02 -9.524526715E-02
 8.688240051E-01 2.628709562E-02 -1.381573971E-01
 8.566061258E-01 2.848139033E-02 -1.500535576E-01
 8.450330496E-01 3.056739457E-02 -1.851149864E-01
 8.340963125E-01 3.247724473E-02 -2.077115054E-01
 8.226423264E-01 3.441765904E-02 -2.219272870E-01
 8.105778694E-01 3.645217419E-02 -2.542575173E-01
 7.980101705E-01 3.847658262E-02 -2.641533183E-01
 7.857688069E-01 4.045069218E-02 -2.968957239E-01
 7.732540369E-01 4.239185899E-02 -3.165479825E-01
 7.616171837E-01 4.417165369E-02 -3.441266365E-01
 7.482725978E-01 4.611921683E-02 -3.542490067E-01
 7.350645661E-01 4.802303389E-02 -3.823857318E-01
 7.242312431E-01 4.954796657E-02 -4.077640756E-01
 7.127696872E-01 5.110265687E-02 -4.241991781E-01
 7.009463310E-01 5.267162621E-02 -4.509263925E-01
 6.879872084E-01 5.432260409E-02 -4.690013455E-01
 6.750596166E-01 5.590004474E-02 -4.897549399E-01
 6.643522382E-01 5.719070509E-02 -5.190149216E-01
 6.524792910E-01 5.852272362E-02 -5.330984229E-01
 6.410459876E-01 5.979192257E-02 -5.659143758E-01
 6.292209029E-01 6.098252907E-02 -5.351741685E-01
 6.174950004E-01 6.213557720E-02 -4.818306753E-01
 6.069815755E-01 6.311155856E-02 -5.954912509E-01
 5.951559544E-01 6.414116174E-02 -9.172258823E-01
 5.838258862E-01 6.507518142E-02 -9.149984462E-01
 5.704997182E-01 6.604846567E-02 -8.831597160E-01
 5.582476258E-01 6.688760966E-02 -8.881454543E-01
 5.461118817E-01 6.764564663E-02 -8.701223619E-01
 5.347373486E-01 6.825899333E-02 -8.511494594E-01
 5.230132937E-01 6.883428991E-02 -8.432131259E-01
 5.108448267E-01 6.934920698E-02 -8.298714800E-01
 4.998724759E-01 6.975562871E-02 -8.218240314E-01
 4.870764017E-01 7.016636431E-02 -7.996205070E-01
 4.738803804E-01 7.045390457E-02 -7.773156242E-01
 4.606913626E-01 7.068654895E-02 -7.808563296E-01
 4.475783408E-01 7.084412873E-02 -7.675315453E-01
 4.351668656E-01 7.090956718E-02 -7.476154144E-01
 4.225821197E-01 7.091191411E-02 -7.319543269E-01
 4.102357030E-01 7.082734257E-02 -7.081869808E-01
 3.976785839E-01 7.067463547E-02 -6.953107422E-01
 3.855561316E-01 7.045922428E-02 -6.789495005E-01
 3.734282851E-01 7.017263770E-02 -6.633585348E-01
 3.604097366E-01 6.980567425E-02 -6.514649583E-01
 3.477013111E-01 6.935419887E-02 -6.351035735E-01
 3.349219561E-01 6.884942949E-02 -6.368549306E-01
 3.240187168E-01 6.834849715E-02 -6.159250748E-01
 3.114161491E-01 6.768791378E-02 -5.936717495E-01
 2.985157967E-01 6.695260853E-02 -5.841591785E-01
 2.847905457E-01 6.607896835E-02 -5.716044545E-01
 2.725287974E-01 6.521178782E-02 -5.529380104E-01
 2.606944442E-01 6.431362033E-02 -5.435588857E-01
 2.481756657E-01 6.328665465E-02 -5.296813857E-01
 2.357029468E-01 6.216201931E-02 -5.095074634E-01
 2.234212607E-01 6.099531427E-02 -5.038664224E-01
 2.114108354E-01 5.974328145E-02 -4.800067006E-01
 1.992849708E-01 5.840568617E-02 -4.656409926E-01
 1.868740916E-01 5.693240464E-02 -4.472697696E-01
 1.749948859E-01 5.543155968E-02 -4.317246319E-01
 1.632004231E-01 5.383569375E-02 -4.102508979E-01
 1.512937397E-01 5.211797729E-02 -3.899920075E-01
 1.402886063E-01 5.044218525E-02 -3.753491007E-01
 1.285671741E-01 4.852602258E-02 -3.521176386E-01
 1.173088998E-01 4.656080902E-02 -3.277837173E-01
 1.064220443E-01 4.453864694E-02 -3.074834186E-01
 9.632028639E-02 4.253496975E-02 -2.821253183E-01
 8.537223935E-02 4.020587355E-02 -2.489396354E-01
 7.414108515E-02 3.763691336E-02 -2.245557470E-01
 6.429202110E-02 3.518934920E-02 -1.823247419E-01
 5.468410626E-02 3.260290623E-02 -1.472720739E-01
 4.603569582E-02 3.007641062E-02 -1.087795975E-01
 3.848329931E-02 2.766029350E-02 -6.576125713E-02
 3.178784251E-02 2.532860637E-02 -2.332545576E-02
 2.606042288E-02 2.314575389E-02 1.671047796E-02
 2.182416990E-02 2.138280123E-02 6.466602522E-02
 1.782412454E-02 1.957143098E-02 1.112975065E-01
 1.456249505E-02 1.796188578E-02 1.601998121E-01
 1.162439212E-02 1.637760177E-02 2.118230444E-01
 9.488033131E-03 1.510715578E-02 2.620294999E-01
 7.595185656E-03 1.389159169E-02 3.055000659E-01
 5.823248997E-03 1.263453066E-02 3.939377447E-01
 3.537513781E-03 1.077433489E-02 5.050678471E-01
 1.680305926E-03 8.950915188E-03 6.127700683E-01
 2.149008797E-04 7.121775299E-03 8.312395649E-01
 -1.174972975E-03 4.557536449E-03 1.030968351E+00
 -1.733480836E-03 2.587836003E-03 1.155237044E+00
 -1.873418805E-03 9.433956002E-04 1.199427662E+00
 -1.697154483E-03 -8.468623273E-04 1.184859538E+00
 -1.171546872E-03 -2.707183361E-03 1.095517174E+00
 -1.011302302E-04 -4.922472872E-03 9.597458994E-01
 1.441633329E-03 -7.166266441E-03 7.883715087E-01
 3.499967745E-03 -9.472468868E-03 6.327217908E-01
 5.405621137E-03 -1.124628354E-02 5.004524228E-01
 7.592360023E-03 -1.302290522E-02 4.111003424E-01
 9.413240477E-03 -1.434552018E-02 3.269647243E-01
 1.161536016E-02 -1.581081748E-02 2.667217431E-01
 1.405702624E-02 -1.729888842E-02 1.970259742E-01
 1.739436761E-02 -1.914691739E-02 1.289549836E-01
 2.050294355E-02 -2.071290463E-02 5.912333310E-02
 2.438747138E-02 -2.251831442E-02 8.640794845E-03
 2.964108437E-02 -2.471955307E-02 -4.323732875E-02
 3.529238701E-02 -2.687460557E-02 -1.017172332E-01
 4.200155288E-02 -2.917917259E-02 -1.492078371E-01
 4.957623780E-02 -3.154088557E-02 -1.885079896E-01
 5.840317905E-02 -3.402264789E-02 -2.214911166E-01
 6.723863631E-02 -3.629680350E-02 -2.563532691E-01
 7.734945416E-02 -3.867047653E-02 -2.870044635E-01
 8.727661520E-02 -4.081111774E-02 -3.097184078E-01
 9.764028341E-02 -4.288362339E-02 -3.330641848E-01
 1.088807210E-01 -4.495482519E-02 -3.502846756E-01
 1.202770174E-01 -4.690738395E-02 -3.694227401E-01
 1.322573572E-01 -4.882260039E-02 -3.926241761E-01
 1.431491077E-01 -5.043673888E-02 -4.105518513E-01
 1.546273828E-01 -5.203694850E-02 -4.305915207E-01
 1.668847352E-01 -5.362061411E-02 -4.483104898E-01
 1.787307113E-01 -5.504538119E-02 -4.681272997E-01
 1.907821000E-01 -5.639550835E-02 -4.896083285E-01
 2.017870247E-01 -5.753494054E-02 -5.095666150E-01
 2.134029269E-01 -5.864715576E-02 -5.248793834E-01
 2.257509530E-01 -5.974093080E-02 -5.501407498E-01
 2.381378561E-01 -6.073013321E-02 -5.740989941E-01
 2.501843274E-01 -6.159155071E-02 -5.945148850E-01
 2.625142038E-01 -6.237543002E-02 -6.156814422E-01
 2.738148272E-01 -6.300803274E-02 -6.484514827E-01
 2.861124277E-01 -6.358088553E-02 -6.706721861E-01
 2.982607186E-01 -6.404075027E-02 -6.850188286E-01
 3.109767437E-01 -6.441352516E-02 -7.007520475E-01
 3.228161633E-01 -6.466032565E-02 -7.379715968E-01
 3.354586065E-01 -6.478075683E-02 -7.647977187E-01
 3.462444544E-01 -6.479356438E-02 -7.876525462E-01
 3.577106893E-01 -6.469541043E-02 -7.918800758E-01
 3.687529564E-01 -6.452175975E-02 -8.046990739E-01
 3.799186051E-01 -6.423104554E-02 -8.067515155E-01
 3.916142583E-01 -6.378813088E-02 -7.164232247E-01
 4.047129452E-01 -6.318549812E-02 -6.261782840E-01
 4.169551134E-01 -6.245910004E-02 -5.955113106E-01
 4.294116199E-01 -6.163505465E-02 -5.873667336E-01
 4.416100979E-01 -6.067858636E-02 -5.444793651E-01
 4.535303116E-01 -5.964760482E-02 -5.029179591E-01
 4.652908146E-01 -5.851038918E-02 -4.555831276E-01
 4.777241051E-01 -5.723177269E-02 -4.180706153E-01
 4.896388054E-01 -5.591993406E-02 -3.865181224E-01
 5.020072460E-01 -5.443644524E-02 -3.288760072E-01
 5.155363083E-01 -5.278514698E-02 -2.997974919E-01
 5.284256339E-01 -5.111454427E-02 -2.595306202E-01
 5.410836339E-01 -4.941207170E-02 -2.211124179E-01
 5.537155271E-01 -4.768614098E-02 -1.955579933E-01
 5.669605732E-01 -4.578453675E-02 -1.508552895E-01
 5.797026753E-01 -4.393705726E-02 -1.181442929E-01
 5.924895406E-01 -4.207159951E-02 -9.090168961E-02
 6.056853533E-01 -4.012094811E-02 -6.023776376E-02
 6.197469831E-01 -3.804349154E-02 -3.544857325E-02
 6.339052916E-01 -3.594142199E-02 -1.215180407E-02
 6.479809284E-01 -3.379123285E-02 2.664762493E-02
 6.609591246E-01 -3.186783567E-02 4.232723150E-02
 6.742724776E-01 -2.988100424E-02 6.573925545E-02
 6.866816282E-01 -2.803549543E-02 8.687172960E-02
 6.990451217E-01 -2.621299773E-02 1.054534783E-01
 7.135384679E-01 -2.408783324E-02 1.266292428E-01
 7.263396382E-01 -2.218697034E-02 1.584185475E-01
 7.384147644E-01 -2.050276287E-02 1.617696281E-01
 7.520065308E-01 -1.856361702E-02 1.883531762E-01
 7.644680738E-01 -1.683610305E-02 2.027676667E-01
 7.778574228E-01 -1.496852376E-02 2.311975814E-01
 7.900055647E-01 -1.335957740E-02 2.437792358E-01
 8.027822375E-01 -1.170156151E-02 2.612397910E-01
 8.136807084E-01 -1.030679792E-02 2.822779176E-01
 8.250624537E-01 -8.913200349E-03 2.986061115E-01
 8.382179737E-01 -7.403225638E-03 3.098397762E-01
 8.505924940E-01 -6.018674001E-03 3.306330730E-01
 8.628948331E-01 -4.733507056E-03 3.470245050E-01
 8.737130165E-01 -3.670509439E-03 3.660529501E-01
 8.850480914E-01 -2.685698448E-03 3.747529949E-01
 8.979181051E-01 -1.685037278E-03 3.868604906E-01
 9.081269503E-01 -9.910301305E-04 3.983739070E-01
 9.192674160E-01 -3.625305835E-04 4.039305771E-01
 9.298198819E-01 1.126259958E-04 4.072376767E-01
 9.396008253E-01 4.589928431E-04 4.110754084E-01
 9.515410066E-01 7.518211496E-04 4.146722991E-01
 9.645136595E-01 9.090346866E-04 4.176144106E-01
 9.774578214E-01 9.058721480E-04 4.256307352E-01
 9.892897010E-01 7.593150949E-04 4.454526695E-01
 -5.000000000E-01 -1.000000000E+00 1.671639849E-02
 3.500000000E+00 -1.000000000E+00 7.289836262E-03
 3.500000000E+00 1.000000000E+00 -3.132336385E-02
 -5.000000000E-01 1.000000000E+00 1.593892436E-02
 9.931797087E-01 1.877065806E-03 3.213278479E-01
 9.796447754E-01 4.591042409E-03 2.033828374E-01
 9.644538760E-01 7.616787916E-03 1.494948787E-01
 9.486368597E-01 1.077492069E-02 8.567950385E-02
 9.343232214E-01 1.361956820E-02 5.135707959E-02
 9.214257300E-01 1.614150405E-02 1.748223305E-02
 9.097328186E-01 1.844262891E-02 -1.513596985E-02
 8.980440199E-01 2.072645165E-02 -5.575846153E-02
 8.863497972E-01 2.297224104E-02 -8.069938955E-02
 8.746530712E-01 2.518376242E-02 -1.221221487E-01
 8.627150655E-01 2.738424297E-02 -1.403651776E-01
 8.508195877E-01 2.952439245E-02 -1.688214578E-01
 8.395646811E-01 3.152231965E-02 -1.987022995E-01
 8.283693194E-01 3.344745189E-02 -2.111887148E-01
 8.166100979E-01 3.543491662E-02 -2.426476952E-01
 8.042940199E-01 3.746437840E-02 -2.549700864E-01
 7.918894887E-01 3.946363740E-02 -2.833719271E-01
 7.795114219E-01 4.142127559E-02 -3.039219167E-01
 7.674356103E-01 4.328175634E-02 -3.344971132E-01
 7.549448907E-01 4.514543526E-02 -3.468606182E-01
 7.416685820E-01 4.707112536E-02 -3.669057666E-01
 7.296479046E-01 4.878550023E-02 -3.978005662E-01
 7.185004652E-01 5.032531172E-02 -4.141951352E-01
 7.068580091E-01 5.188714154E-02 -4.384811238E-01
 6.944667697E-01 5.349711515E-02 -4.621912770E-01
 6.815234125E-01 5.511132441E-02 -4.733271911E-01
 6.697059274E-01 5.654537492E-02 -5.128284721E-01
 6.584157646E-01 5.785671435E-02 -5.171690619E-01
 6.467626393E-01 5.915732309E-02 -5.607150747E-01
 6.351334453E-01 6.038722582E-02 -5.512617945E-01
 6.233579516E-01 6.155905314E-02 -5.120103861E-01
 6.122382879E-01 6.262356788E-02 -4.894922198E-01
 6.010687649E-01 6.362636015E-02 -7.869669980E-01
 5.894909203E-01 6.460817158E-02 -9.450843606E-01
 5.771628022E-01 6.556182355E-02 -8.870218211E-01
 5.643736720E-01 6.646803766E-02 -8.876031043E-01
 5.521797538E-01 6.726662815E-02 -8.829231733E-01
 5.404246151E-01 6.795231998E-02 -8.559497716E-01
 5.288753211E-01 6.854664162E-02 -8.497213979E-01
 5.169290602E-01 6.909174845E-02 -8.348114012E-01
 5.053586513E-01 6.955241784E-02 -8.254699094E-01
 4.934744388E-01 6.996099651E-02 -8.174592209E-01
 4.804783911E-01 7.031013444E-02 -7.806104498E-01
 4.672858715E-01 7.057022676E-02 -7.807698696E-01
 4.541348517E-01 7.076533884E-02 -7.767528976E-01
 4.413726032E-01 7.087684795E-02 -7.554247993E-01
 4.288744926E-01 7.091074064E-02 -7.420997447E-01
 4.164089113E-01 7.086962834E-02 -7.185057069E-01
 4.039571434E-01 7.075098902E-02 -7.011702879E-01
 3.916173577E-01 7.056692988E-02 -6.882819475E-01
 3.794922084E-01 7.031593099E-02 -6.691446452E-01
 3.669190109E-01 6.998915598E-02 -6.606178090E-01
 3.540555239E-01 6.957993656E-02 -6.392068789E-01
 3.413116336E-01 6.910181418E-02 -6.371382995E-01
 3.294703364E-01 6.859896332E-02 -6.295770095E-01
 3.177174330E-01 6.801820546E-02 -6.019895385E-01
 3.049659729E-01 6.732026115E-02 -5.897118112E-01
 2.916531712E-01 6.651578844E-02 -5.789067007E-01
 2.786596715E-01 6.564537808E-02 -5.605850193E-01
 2.666116208E-01 6.476270407E-02 -5.478982077E-01
 2.544350550E-01 6.380013749E-02 -5.398811445E-01
 2.419393063E-01 6.272433698E-02 -5.154762696E-01
 2.295621037E-01 6.157866679E-02 -5.104263476E-01
 2.174160480E-01 6.036929786E-02 -4.899989151E-01
 2.053479031E-01 5.907448381E-02 -4.741896955E-01
 1.930795312E-01 5.766904540E-02 -4.556322239E-01
 1.809344888E-01 5.618198216E-02 -4.402506798E-01
 1.690976545E-01 5.463362671E-02 -4.219373856E-01
 1.572470814E-01 5.297683552E-02 -3.978277940E-01
 1.457911730E-01 5.128008127E-02 -3.851682668E-01
 1.344278902E-01 4.948410392E-02 -3.639424610E-01
 1.229380369E-01 4.754341580E-02 -3.394577714E-01
 1.118654720E-01 4.554972798E-02 -3.172418495E-01
 1.013711654E-01 4.353680834E-02 -2.970045898E-01
 9.084626287E-02 4.137042165E-02 -2.666451212E-01
 7.975666225E-02 3.892139345E-02 -2.351315520E-01
 6.921655312E-02 3.641313128E-02 -2.102780354E-01
 7.229404524E-02 -3.748364002E-02 -2.794595140E-01
 8.231303468E-02 -3.974079713E-02 -2.983397487E-01
 9.245844930E-02 -4.184737056E-02 -3.216320111E-01
 1.032605022E-01 -4.391922429E-02 -3.421131502E-01
 1.145788692E-01 -4.593110457E-02 -3.599464274E-01
 1.262671873E-01 -4.786499217E-02 -3.799988220E-01
 1.377032325E-01 -4.962966964E-02 -4.045949344E-01
 1.488882452E-01 -5.123684369E-02 -4.185733016E-01
 1.607560590E-01 -5.282878131E-02 -4.402927275E-01
 1.728077233E-01 -5.433299765E-02 -4.582895386E-01
 1.847564057E-01 -5.572044477E-02 -4.783385481E-01
 1.962845623E-01 -5.696522444E-02 -5.012641918E-01
 2.075949758E-01 -5.809104815E-02 -5.166407765E-01
 2.195769399E-01 -5.919404328E-02 -5.355835373E-01
 2.319444045E-01 -6.023553200E-02 -5.631748385E-01
 2.441610917E-01 -6.116084196E-02 -5.847211745E-01
 2.563492656E-01 -6.198349036E-02 -6.041917531E-01
 2.681645155E-01 -6.269173138E-02 -6.311525063E-01
 2.799636275E-01 -6.329445913E-02 -6.615405561E-01
 2.921865731E-01 -6.381081790E-02 -6.782954380E-01
 3.046187311E-01 -6.422713771E-02 -6.914965400E-01
 3.168964535E-01 -6.453692541E-02 -7.159802292E-01
 3.291373849E-01 -6.472054124E-02 -7.553888857E-01
 3.408515304E-01 -6.478716061E-02 -7.762366994E-01
 3.519775718E-01 -6.474448740E-02 -7.928267288E-01
 3.632318228E-01 -6.460858509E-02 -7.943305603E-01
 3.743357807E-01 -6.437640265E-02 -8.119272879E-01
 3.857664317E-01 -6.400958821E-02 -7.757749343E-01
 3.981636018E-01 -6.348681450E-02 -6.568727016E-01
 4.108340293E-01 -6.282229908E-02 -6.111845505E-01
 4.231833667E-01 -6.204707734E-02 -5.886382311E-01
 4.355108589E-01 -6.115682051E-02 -5.729984533E-01
 4.475702047E-01 -6.016309559E-02 -5.202371111E-01
 4.594105631E-01 -5.907899700E-02 -4.827159164E-01
 4.715074599E-01 -5.787108094E-02 -4.332804981E-01
 4.836814553E-01 -5.657585338E-02 -4.035643340E-01
 4.958230257E-01 -5.517818965E-02 -3.613286349E-01
 5.087717772E-01 -5.361079611E-02 -3.089190443E-01
 5.219809711E-01 -5.194984563E-02 -2.831738246E-01
 5.347546339E-01 -5.026330799E-02 -2.396944184E-01
 5.473995805E-01 -4.854910634E-02 -2.067785338E-01
 5.603380501E-01 -4.673533887E-02 -1.762668369E-01
 5.733316243E-01 -4.486079700E-02 -1.332452945E-01
 5.860961080E-01 -4.300432838E-02 -1.040051431E-01
 5.990874469E-01 -4.109627381E-02 -7.613819914E-02
 6.127161682E-01 -3.908221982E-02 -4.696563110E-02
 6.268261373E-01 -3.699245676E-02 -2.357479849E-02
 6.409431100E-01 -3.486632742E-02 4.643622048E-03
 6.544700265E-01 -3.282953426E-02 3.762022034E-02
 6.676158011E-01 -3.087441996E-02 5.289160094E-02
 6.804770529E-01 -2.895824984E-02 7.665010331E-02
 6.928633749E-01 -2.712424658E-02 9.650571404E-02
 7.062917948E-01 -2.515041549E-02 1.155652368E-01
 7.199390531E-01 -2.313740179E-02 1.407056753E-01
 7.323772013E-01 -2.134486660E-02 1.644571234E-01
 7.452106476E-01 -1.953318994E-02 1.721464123E-01
 7.582373023E-01 -1.769986004E-02 1.970072865E-01
 7.711627483E-01 -1.590231340E-02 2.147846303E-01
 7.839314938E-01 -1.416405058E-02 2.398602124E-01
 7.963939011E-01 -1.253056945E-02 2.519707757E-01
 8.082314730E-01 -1.100417972E-02 2.710526645E-01
 8.193715811E-01 -9.609999135E-03 2.902889280E-01
 8.316402137E-01 -8.158212993E-03 3.043321155E-01
 8.444052339E-01 -6.710949820E-03 3.191786624E-01
 8.567436635E-01 -5.376090528E-03 3.390073326E-01
 8.683039248E-01 -4.202008247E-03 3.562291330E-01
 8.793805540E-01 -3.178103943E-03 3.711000413E-01
 8.914830983E-01 -2.185367863E-03 3.795581434E-01
 9.030225277E-01 -1.338033704E-03 3.939513376E-01
 9.136971831E-01 -6.767803570E-04 4.008147750E-01
 9.245436490E-01 -1.249522938E-04 4.069225098E-01
 9.455709159E-01 6.054069963E-04 4.131576370E-01
 9.580273330E-01 8.304279181E-04 4.155102598E-01
 9.709857404E-01 9.074534173E-04 4.209294107E-01
 9.833737612E-01 8.325936215E-04 4.337237901E-01
 9.946918190E-01 6.338160019E-04 4.965844654E-01
 -5.000000000E-01 9.500000000E-01 2.606561420E-02
 -5.000000000E-01 9.000000000E-01 3.938970897E-02
 -5.000000000E-01 8.500000000E-01 4.945866003E-02
 -5.000000000E-01 8.000000000E-01 5.842368899E-02
 -5.000000000E-01 7.500000000E-01 6.713754483E-02
 -5.000000000E-01 7.000000000E-01 7.555391072E-02
 -5.000000000E-01 6.500000000E-01 8.412266585E-02
 -5.000000000E-01 6.000000000E-01 9.293808591E-02
 -5.000000000E-01 5.500000000E-01 1.020866792E-01
 -5.000000000E-01 5.000000000E-01 1.113071879E-01
 -5.000000000E-01 4.500000000E-01 1.208112178E-01
 -5.000000000E-01 4.000000000E-01 1.301632993E-01
 -5.000000000E-01 3.500000000E-01 1.396751832E-01
 -5.000000000E-01 3.000000000E-01 1.486268414E-01
 -5.000000000E-01 2.500000000E-01 1.569546789E-01
 -5.000000000E-01 2.000000000E-01 1.643667531E-01
 -5.000000000E-01 1.500000000E-01 1.706021351E-01
 -5.000000000E-01 1.000000000E-01 1.753614648E-01
 -5.000000000E-01 5.000000000E-02 1.783076730E-01
 -5.000000000E-01 2.752242878E-12 1.793909601E-01
 -5.000000000E-01 -5.000000000E-02 1.785219327E-01
 -5.000000000E-01 -1.000000000E-01 1.758636069E-01
 -5.000000000E-01 -1.500000000E-01 1.713825050E-01
 -5.000000000E-01 -2.000000000E-01 1.654299478E-01
 -5.000000000E-01 -2.500000000E-01 1.582711138E-01
 -5.000000000E-01 -3.000000000E-01 1.500921632E-01
 -5.000000000E-01 -3.500000000E-01 1.413623204E-01
 -5.000000000E-01 -4.000000000E-01 1.322844326E-01
 -5.000000000E-01 -4.500000000E-01 1.229359816E-01
 -5.000000000E-01 -5.000000000E-01 1.137782601E-01
 -5.000000000E-01 -5.500000000E-01 1.045245747E-01
 -5.000000000E-01 -6.000000000E-01 9.557429899E-02
 -5.000000000E-01 -6.500000000E-01 8.679298963E-02
 -5.000000000E-01 -7.000000000E-01 7.812165462E-02
 -5.000000000E-01 -7.500000000E-01 6.959033715E-02
 -5.000000000E-01 -8.000000000E-01 6.084215954E-02
 -5.000000000E-01 -8.500000000E-01 5.162059390E-02
 -5.000000000E-01 -9.000000000E-01 4.119547853E-02
 -5.000000000E-01 -9.500000000E-01 2.727390658E-02
 -4.500000000E-01 -1.000000000E+00 2.252434473E-02
 -4.000000000E-01 -1.000000000E+00 3.345496699E-02
 -3.500000000E-01 -1.000000000E+00 4.030748792E-02
 -3.000000000E-01 -1.000000000E+00 4.464904017E-02
 -2.500000000E-01 -1.000000000E+00 4.721316130E-02
 -2.000000000E-01 -1.000000000E+00 4.813367540E-02
 -1.500000000E-01 -1.000000000E+00 4.736156265E-02
 -1.000000000E-01 -1.000000000E+00 4.490020103E-02
 -5.000000000E-02 -1.000000000E+00 4.079288619E-02
 -9.424683256E-13 -1.000000000E+00 3.509144393E-02
 5.000000000E-02 -1.000000000E+00 2.794288739E-02
 1.000000000E-01 -1.000000000E+00 1.962785992E-02
 1.500000000E-01 -1.000000000E+00 1.031829594E-02
 2.000000000E-01 -1.000000000E+00 6.242165404E-04
 2.500000000E-01 -1.000000000E+00 -9.115988370E-03
 3.000000000E-01 -1.000000000E+00 -1.856003497E-02
 3.500000000E-01 -1.000000000E+00 -2.696808966E-02
 4.000000000E-01 -1.000000000E+00 -3.384892848E-02
 4.500000000E-01 -1.000000000E+00 -3.908695173E-02
 5.000000000E-01 -1.000000000E+00 -4.236771053E-02
 5.500000000E-01 -1.000000000E+00 -4.362140690E-02
 6.000000000E-01 -1.000000000E+00 -4.280783610E-02
 6.500000000E-01 -1.000000000E+00 -4.008910358E-02
 7.000000000E-01 -1.000000000E+00 -3.580576265E-02
 7.500000000E-01 -1.000000000E+00 -3.008761173E-02
 8.000000000E-01 -1.000000000E+00 -2.354723771E-02
 8.500000000E-01 -1.000000000E+00 -1.646900991E-02
 9.000000000E-01 -1.000000000E+00 -8.997575911E-03
 9.500000000E-01 -1.000000000E+00 -1.584386484E-03
 1.000000000E+00 -1.000000000E+00 5.402801733E-03
 1.050000000E+00 -1.000000000E+00 1.176311090E-02
 1.100000000E+00 -1.000000000E+00 1.750167682E-02
 1.150000000E+00 -1.000000000E+00 2.250141423E-02
 1.200000000E+00 -1.000000000E+00 2.666760769E-02
 1.250000000E+00 -1.000000000E+00 3.011292141E-02
 1.300000000E+00 -1.000000000E+00 3.285366055E-02
 1.350000000E+00 -1.000000000E+00 3.494826710E-02
 1.400000000E+00 -1.000000000E+00 3.645471897E-02
 1.450000000E+00 -1.000000000E+00 3.751393117E-02
 1.500000000E+00 -1.000000000E+00 3.808257586E-02
 1.550000000E+00 -1.000000000E+00 3.828724470E-02
 1.600000000E+00 -1.000000000E+00 3.825075855E-02
 1.650000000E+00 -1.000000000E+00 3.784939711E-02
 1.700000000E+00 -1.000000000E+00 3.736164214E-02
 1.750000000E+00 -1.000000000E+00 3.663960546E-02
 1.800000000E+00 -1.000000000E+00 3.584836904E-02
 1.850000000E+00 -1.000000000E+00 3.492528180E-02
 1.900000000E+00 -1.000000000E+00 3.403024280E-02
 1.950000000E+00 -1.000000000E+00 3.299269885E-02
 2.000000000E+00 -1.000000000E+00 3.203129979E-02
 2.050000000E+00 -1.000000000E+00 3.096263670E-02
 2.100000000E+00 -1.000000000E+00 2.998714022E-02
 2.150000000E+00 -1.000000000E+00 2.898980102E-02
 2.200000000E+00 -1.000000000E+00 2.801485457E-02
 2.250000000E+00 -1.000000000E+00 2.710069037E-02
 2.300000000E+00 -1.000000000E+00 2.617130868E-02
 2.350000000E+00 -1.000000000E+00 2.534989125E-02
 2.400000000E+00 -1.000000000E+00 2.448977335E-02
 2.450000000E+00 -1.000000000E+00 2.376418160E-02
 2.500000000E+00 -1.000000000E+00 2.302228713E-02
 2.550000000E+00 -1.000000000E+00 2.238146780E-02
 2.600000000E+00 -1.000000000E+00 2.173316383E-02
 2.650000000E+00 -1.000000000E+00 2.118102817E-02
 2.700000000E+00 -1.000000000E+00 2.063971057E-02
 2.750000000E+00 -1.000000000E+00 2.016579172E-02
 2.800000000E+00 -1.000000000E+00 1.973273453E-02
 2.850000000E+00 -1.000000000E+00 1.934851610E-02
 2.900000000E+00 -1.000000000E+00 1.901729909E-02
 2.950000000E+00 -1.000000000E+00 1.870532404E-02
 3.000000000E+00 -1.000000000E+00 1.843444582E-02
 3.050000000E+00 -1.000000000E+00 1.819108819E-02
 3.100000000E+00 -1.000000000E+00 1.792571349E-02
 3.150000000E+00 -1.000000000E+00 1.768080019E-02
 3.200000000E+00 -1.000000000E+00 1.739174340E-02
 3.250000000E+00 -1.000000000E+00 1.701110231E-02
 3.300000000E+00 -1.000000000E+00 1.650849854E-02
 3.350000000E+00 -1.000000000E+00 1.576547397E-02
 3.400000000E+00 -1.000000000E+00 1.439596054E-02
 3.450000000E+00 -1.000000000E+00 1.145227528E-02
 3.500000000E+00 -9.500000000E-01 5.319556263E-03
 3.500000000E+00 -9.000000000E-01 7.181447420E-03
 3.500000000E+00 -8.500000000E-01 9.038607449E-03
 3.500000000E+00 -8.000000000E-01 1.073901449E-02
 3.500000000E+00 -7.500000000E-01 1.215983009E-02
 3.500000000E+00 -7.000000000E-01 1.355963091E-02
 3.500000000E+00 -6.500000000E-01 1.496231105E-02
 3.500000000E+00 -6.000000000E-01 1.646607162E-02
 3.500000000E+00 -5.500000000E-01 1.804668296E-02
 3.500000000E+00 -5.000000000E-01 1.968085795E-02
 3.500000000E+00 -4.500000000E-01 2.129462424E-02
 3.500000000E+00 -4.000000000E-01 2.293427479E-02
 3.500000000E+00 -3.500000000E-01 2.457105340E-02
 3.500000000E+00 -3.000000000E-01 2.611562762E-02
 3.500000000E+00 -2.500000000E-01 2.726717128E-02
 3.500000000E+00 -2.000000000E-01 2.783416998E-02
 3.500000000E+00 -1.500000000E-01 2.784815885E-02
 3.500000000E+00 -1.000000000E-01 2.756770509E-02
 3.500000000E+00 -5.000000000E-02 2.730313189E-02
 3.500000000E+00 -2.752242878E-12 2.737751693E-02
 3.500000000E+00 5.000000000E-02 2.766209535E-02
 3.500000000E+00 1.000000000E-01 2.767552912E-02
 3.500000000E+00 1.500000000E-01 2.699080653E-02
 3.500000000E+00 2.000000000E-01 2.593745469E-02
 3.500000000E+00 2.500000000E-01 2.441245001E-02
 3.500000000E+00 3.000000000E-01 2.274213635E-02
 3.500000000E+00 3.500000000E-01 2.117394197E-02
 3.500000000E+00 4.000000000E-01 1.958643383E-02
 3.500000000E+00 4.500000000E-01 1.781994008E-02
 3.500000000E+00 5.000000000E-01 1.611435741E-02
 3.500000000E+00 5.500000000E-01 1.468174525E-02
 3.500000000E+00 6.000000000E-01 1.376087337E-02
 3.500000000E+00 6.500000000E-01 1.337543389E-02
 3.500000000E+00 7.000000000E-01 1.282695933E-02
 3.500000000E+00 7.500000000E-01 1.078230367E-02
 3.500000000E+00 8.000000000E-01 3.455996282E-03
 3.500000000E+00 8.500000000E-01 -8.120678860E-03
 3.500000000E+00 9.000000000E-01 -2.235887665E-02
 3.500000000E+00 9.500000000E-01 -3.615085701E-02
 3.450000000E+00 1.000000000E+00 -1.583847249E-02
 3.400000000E+00 1.000000000E+00 -5.578340842E-03
 3.350000000E+00 1.000000000E+00 -1.727278893E-03
 3.300000000E+00 1.000000000E+00 -1.211225783E-03
 3.250000000E+00 1.000000000E+00 -1.024791310E-03
 3.200000000E+00 1.000000000E+00 -1.280745861E-03
 3.150000000E+00 1.000000000E+00 -1.968609761E-03
 3.100000000E+00 1.000000000E+00 -2.536078296E-03
 3.050000000E+00 1.000000000E+00 -3.732293599E-03
 3.000000000E+00 1.000000000E+00 -4.632546477E-03
 2.950000000E+00 1.000000000E+00 -5.484671102E-03
 2.900000000E+00 1.000000000E+00 -6.670102514E-03
 2.850000000E+00 1.000000000E+00 -7.523350926E-03
 2.800000000E+00 1.000000000E+00 -8.793434999E-03
 2.750000000E+00 1.000000000E+00 -1.009853838E-02
 2.700000000E+00 1.000000000E+00 -1.128786399E-02
 2.650000000E+00 1.000000000E+00 -1.263630031E-02
 2.600000000E+00 1.000000000E+00 -1.374310145E-02
 2.550000000E+00 1.000000000E+00 -1.518423953E-02
 2.500000000E+00 1.000000000E+00 -1.649825953E-02
 2.450000000E+00 1.000000000E+00 -1.818790014E-02
 2.400000000E+00 1.000000000E+00 -1.962004495E-02
 2.350000000E+00 1.000000000E+00 -2.146943789E-02
 2.300000000E+00 1.000000000E+00 -2.305120584E-02
 2.250000000E+00 1.000000000E+00 -2.496144388E-02
 2.200000000E+00 1.000000000E+00 -2.686226915E-02
 2.150000000E+00 1.000000000E+00 -2.904160003E-02
 2.100000000E+00 1.000000000E+00 -3.112816038E-02
 2.050000000E+00 1.000000000E+00 -3.357279583E-02
 2.000000000E+00 1.000000000E+00 -3.620370557E-02
 1.950000000E+00 1.000000000E+00 -3.841072675E-02
 1.900000000E+00 1.000000000E+00 -4.166345620E-02
 1.850000000E+00 1.000000000E+00 -4.486698521E-02
 1.800000000E+00 1.000000000E+00 -4.830425595E-02
 1.750000000E+00 1.000000000E+00 -5.190986250E-02
 1.700000000E+00 1.000000000E+00 -5.628113717E-02
 1.650000000E+00 1.000000000E+00 -6.054344965E-02
 1.600000000E+00 1.000000000E+00 -6.583451193E-02
 1.550000000E+00 1.000000000E+00 -7.097376450E-02
 1.500000000E+00 1.000000000E+00 -7.679922036E-02
 1.450000000E+00 1.000000000E+00 -8.327637644E-02
 1.400000000E+00 1.000000000E+00 -9.011106790E-02
 1.350000000E+00 1.000000000E+00 -9.750104489E-02
 1.300000000E+00 1.000000000E+00 -1.051805336E-01
 1.250000000E+00 1.000000000E+00 -1.134187770E-01
 1.200000000E+00 1.000000000E+00 -1.221383162E-01
 1.150000000E+00 1.000000000E+00 -1.308116005E-01
 1.100000000E+00 1.000000000E+00 -1.394010089E-01
 1.050000000E+00 1.000000000E+00 -1.476390710E-01
 1.000000000E+00 1.000000000E+00 -1.556651253E-01
 9.500000000E-01 1.000000000E+00 -1.617414172E-01
 9.000000000E-01 1.000000000E+00 -1.656671052E-01
 8.500000000E-01 1.000000000E+00 -1.694396175E-01
 8.000000000E-01 1.000000000E+00 -1.684731546E-01
 7.500000000E-01 1.000000000E+00 -1.682769450E-01
 7.000000000E-01 1.000000000E+00 -1.631336064E-01
 6.500000000E-01 1.000000000E+00 -1.558105224E-01
 6.000000000E-01 1.000000000E+00 -1.455433890E-01
 5.500000000E-01 1.000000000E+00 -1.330069850E-01
 5.000000000E-01 1.000000000E+00 -1.184825297E-01
 4.500000000E-01 1.000000000E+00 -1.031791181E-01
 4.000000000E-01 1.000000000E+00 -8.746255539E-02
 3.500000000E-01 1.000000000E+00 -6.973347945E-02
 3.000000000E-01 1.000000000E+00 -5.342016514E-02
 2.500000000E-01 1.000000000E+00 -3.719140880E-02
 2.000000000E-01 1.000000000E+00 -2.168265136E-02
 1.500000000E-01 1.000000000E+00 -7.308810129E-03
 1.000000000E-01 1.000000000E+00 5.526112215E-03
 5.000000000E-02 1.000000000E+00 1.681515374E-02
 1.733724275E-12 1.000000000E+00 2.614428581E-02
 -5.000000000E-02 1.000000000E+00 3.364520115E-02
 -1.000000000E-01 1.000000000E+00 3.912417879E-02
 -1.500000000E-01 1.000000000E+00 4.271299551E-02
 -2.000000000E-01 1.000000000E+00 4.431540261E-02
 -2.500000000E-01 1.000000000E+00 4.414729057E-02
 -3.000000000E-01 1.000000000E+00 4.205428023E-02
 -3.500000000E-01 1.000000000E+00 3.829025514E-02
 -4.000000000E-01 1.000000000E+00 3.187296085E-02
 -4.500000000E-01 1.000000000E+00 2.145869173E-02
 8.763649550E-01 -7.763451784E-03 3.618105939E-01
 8.002602403E-01 -1.679722915E-02 2.545773957E-01
 7.302564480E-01 -2.768592999E-02 1.565633411E-01
 9.675370560E-01 -4.459731799E-03 4.111377165E-01
 6.653821616E-01 -3.722985693E-02 4.855221475E-02
 5.965932473E-01 -4.702372582E-02 -8.232890826E-02
 5.323273262E-01 -5.617000091E-02 -2.448451682E-01
 4.689458506E-01 -6.334005189E-02 -4.371934322E-01
 4.084089612E-01 -6.839348876E-02 -6.004341924E-01