TITLE     = "Visualization of the solution"
VARIABLES = "x"
"y"
"Pressure_Coefficient"
ZONE T="Zone"
 STRANDID=0, SOLUTIONTIME=0
 Nodes=11910, Elements=23237, ZONETYPE=FEQuadrilateral
 DATAPACKING=POINT
 DT=(DOUBLE DOUBLE DOUBLE )
 1.000321507E+00 5.183507456E-04 3.333655823E-01
 9.866502285E-01 3.003245452E-03 2.266812014E-01
 9.739601016E-01 5.360725801E-03 1.504443762E-01
 9.585042596E-01 8.208742365E-03 9.036388897E-02
 9.439456463E-01 1.083598193E-02 5.160649585E-02
 9.304652214E-01 1.328587160E-02 6.458311232E-03
 9.186896086E-01 1.538652927E-02 -2.597962378E-02
 9.063264132E-01 1.756929234E-02 -6.078926568E-02
 8.944876790E-01 1.963750273E-02 -1.038102448E-01
 8.821185827E-01 2.168722264E-02 -1.241496252E-01
 8.698886037E-01 2.366618626E-02 -1.457102610E-01
 8.581519723E-01 2.556286380E-02 -1.902870347E-01
 8.457056880E-01 2.739461325E-02 -1.796117999E-01
 8.344955444E-01 2.907637134E-02 -2.046484644E-01
 8.230226040E-01 3.074936941E-02 -2.231401720E-01
 8.106939197E-01 3.251056746E-02 -2.438011058E-01
 7.979512215E-01 3.425761685E-02 -2.524811654E-01
 7.857198715E-01 3.592404723E-02 -2.733790403E-01
 7.729628086E-01 3.759456798E-02 -2.801468242E-01
 7.610990405E-01 3.916823119E-02 -3.126723125E-01
 7.476663589E-01 4.085176438E-02 -3.192856775E-01
 7.342224717E-01 4.253293201E-02 -3.500733752E-01
 7.232934833E-01 4.385445267E-02 -3.688054045E-01
 7.115933299E-01 4.520545155E-02 -3.734557498E-01
 6.998797655E-01 4.655218497E-02 -3.956304512E-01
 6.866469383E-01 4.802251607E-02 -4.181515848E-01
 6.736441851E-01 4.942925274E-02 -4.505930086E-01
 6.627928019E-01 5.053941905E-02 -4.627857242E-01
 6.509022117E-01 5.171269923E-02 -4.782697286E-01
 6.395432353E-01 5.279335007E-02 -4.994339462E-01
 6.277115941E-01 5.387848616E-02 -5.278246601E-01
 6.162462831E-01 5.486556143E-02 -5.502947325E-01
 6.054201126E-01 5.574837700E-02 -5.660051461E-01
 5.933310390E-01 5.666304007E-02 -5.756419056E-01
 5.816133618E-01 5.750098452E-02 -6.011001218E-01
 5.682649016E-01 5.839400738E-02 -6.265480746E-01
 5.556100607E-01 5.913673341E-02 -6.362737494E-01
 5.430990458E-01 5.982152373E-02 -6.677281622E-01
 5.318110585E-01 6.036553904E-02 -6.738783938E-01
 5.197409987E-01 6.086227298E-02 -6.924679236E-01
 5.076011419E-01 6.132686511E-02 -7.153475179E-01
 4.966402352E-01 6.165577844E-02 -6.876883828E-01
 4.835878611E-01 6.196951494E-02 -6.875744958E-01
 4.709278047E-01 6.223548204E-02 -6.835774633E-01
 4.572083354E-01 6.238712370E-02 -6.527830707E-01
 4.439892173E-01 6.249020994E-02 -6.596321008E-01
 4.312403798E-01 6.251317263E-02 -6.548801057E-01
 4.183547795E-01 6.245955452E-02 -6.401016613E-01
 4.059571326E-01 6.232938543E-02 -6.256094983E-01
 3.934214413E-01 6.214506924E-02 -6.166225183E-01
 3.811739683E-01 6.188162789E-02 -5.935504211E-01
 3.694979846E-01 6.158100069E-02 -5.790546098E-01
 3.566653430E-01 6.119460240E-02 -5.730307539E-01
 3.443988562E-01 6.076317281E-02 -5.641377343E-01
 3.320654035E-01 6.025942415E-02 -5.521025630E-01
 3.214029372E-01 5.977224931E-02 -5.406375616E-01
 3.092970550E-01 5.916411430E-02 -5.275306294E-01
 2.962805629E-01 5.842991546E-02 -5.096275277E-01
 2.825548947E-01 5.758964643E-02 -4.952359482E-01
 2.700899243E-01 5.674790218E-02 -4.829391339E-01
 2.584720850E-01 5.592731386E-02 -4.777838091E-01
 2.457473874E-01 5.491976067E-02 -4.532125045E-01
 2.332195491E-01 5.389162898E-02 -4.506387189E-01
 2.207966149E-01 5.277368426E-02 -4.310610318E-01
 2.089161575E-01 5.163559690E-02 -4.150273430E-01
 1.970945448E-01 5.045295507E-02 -4.094328405E-01
 1.847234666E-01 4.911108688E-02 -3.877937293E-01
 1.727625728E-01 4.774343595E-02 -3.737986662E-01
 1.609188169E-01 4.631698877E-02 -3.630461970E-01
 1.488065124E-01 4.475903511E-02 -3.487967671E-01
 1.377695948E-01 4.324976727E-02 -3.306140007E-01
 1.260740608E-01 4.155903310E-02 -3.151009346E-01
 1.146356389E-01 3.980292380E-02 -3.002310026E-01
 1.038043648E-01 3.802765161E-02 -2.828918932E-01
 9.373169392E-02 3.627658263E-02 -2.643365998E-01
 8.262842894E-02 3.421798721E-02 -2.462654581E-01
 7.135049254E-02 3.195975348E-02 -2.210234849E-01
 6.158980355E-02 2.984963730E-02 -2.000321726E-01
 5.215744302E-02 2.763478644E-02 -1.749400282E-01
 4.344860464E-02 2.539647929E-02 -1.510015242E-01
 3.600719571E-02 2.330523729E-02 -1.206529730E-01
 2.950684913E-02 2.129529417E-02 -9.126612230E-02
 2.398773655E-02 1.942041330E-02 -6.435326525E-02
 1.997192390E-02 1.791566052E-02 -2.529293473E-02
 1.625881903E-02 1.639848761E-02 6.134324711E-03
 1.337612234E-02 1.510335319E-02 4.692905124E-02
 1.081167068E-02 1.383984089E-02 8.843915210E-02
 8.926813491E-03 1.281862706E-02 1.274061787E-01
 7.221123669E-03 1.181932539E-02 1.613187112E-01
 5.629050545E-03 1.079090033E-02 2.378537039E-01
 3.535801778E-03 9.233097546E-03 3.409274417E-01
 1.803352963E-03 7.678837050E-03 4.627742422E-01
 3.917314461E-04 6.074070465E-03 6.779980246E-01
 -9.385486483E-04 3.906974569E-03 8.989142409E-01
 -1.538486104E-03 2.186686033E-03 1.062487241E+00
 -1.744884648E-03 7.795986603E-04 1.157699700E+00
 -1.685840776E-03 -8.538325201E-04 1.198684164E+00
 -1.256534364E-03 -2.700055484E-03 1.145561248E+00
 -3.093023261E-04 -4.827310331E-03 1.019999040E+00
 1.172024291E-03 -7.045507897E-03 8.437396344E-01
 3.208016744E-03 -9.342963807E-03 6.825970619E-01
 5.092984997E-03 -1.109303255E-02 5.411643171E-01
 7.293482311E-03 -1.285375282E-02 4.478366434E-01
 9.002996609E-03 -1.407808997E-02 3.594882959E-01
 1.108864602E-02 -1.545080449E-02 3.008560245E-01
 1.351232361E-02 -1.690604910E-02 2.284058151E-01
 1.674938202E-02 -1.866797917E-02 1.589272774E-01
 1.986692846E-02 -2.021669783E-02 8.987503962E-02
 2.381237037E-02 -2.201034501E-02 3.309986590E-02
 2.909591421E-02 -2.418002114E-02 -2.395124104E-02
 3.469410166E-02 -2.625107579E-02 -8.243737944E-02
 4.150618613E-02 -2.852831222E-02 -1.244386857E-01
 4.899456352E-02 -3.079885989E-02 -1.678641504E-01
 5.776810646E-02 -3.319376335E-02 -2.040425914E-01
 6.648964435E-02 -3.537290171E-02 -2.355183895E-01
 7.674916089E-02 -3.771610186E-02 -2.678820323E-01
 8.667565137E-02 -3.978672624E-02 -2.873697100E-01
 9.717006236E-02 -4.182118550E-02 -3.109444271E-01
 1.083097905E-01 -4.381666705E-02 -3.303554756E-01
 1.198438257E-01 -4.574025795E-02 -3.525631903E-01
 1.315429658E-01 -4.754612595E-02 -3.693270705E-01
 1.424549371E-01 -4.912200198E-02 -3.877916085E-01
 1.537027210E-01 -5.064965785E-02 -4.067452724E-01
 1.659366786E-01 -5.219953880E-02 -4.277498456E-01
 1.778028309E-01 -5.358856916E-02 -4.417762524E-01
 1.896952391E-01 -5.489565805E-02 -4.623827148E-01
 2.004577219E-01 -5.599462986E-02 -4.823055796E-01
 2.120984197E-01 -5.710402131E-02 -5.030288775E-01
 2.244490385E-01 -5.818444118E-02 -5.263103532E-01
 2.366999984E-01 -5.915303901E-02 -5.466967262E-01
 2.488137782E-01 -6.001354381E-02 -5.621243871E-01
 2.613458633E-01 -6.082084030E-02 -5.898899239E-01
 2.727214396E-01 -6.145507470E-02 -6.162255702E-01
 2.853110731E-01 -6.205879524E-02 -6.354659288E-01
 2.975902855E-01 -6.254126132E-02 -6.608281055E-01
 3.104249835E-01 -6.294134259E-02 -6.940295326E-01
 3.221858740E-01 -6.317166239E-02 -7.044507258E-01
 3.348596692E-01 -6.334144622E-02 -7.190381559E-01
 3.455680907E-01 -6.337519735E-02 -7.608743273E-01
 3.568334579E-01 -6.329468638E-02 -7.655762970E-01
 3.680632114E-01 -6.314467639E-02 -7.841178782E-01
 3.789753020E-01 -6.286805123E-02 -7.699516826E-01
 3.906237185E-01 -6.248198450E-02 -6.986500445E-01
 4.033503234E-01 -6.193818152E-02 -6.605627990E-01
 4.153479338E-01 -6.126300246E-02 -6.214934678E-01
 4.281658530E-01 -6.045719981E-02 -6.037117659E-01
 4.402272105E-01 -5.951258913E-02 -5.435652839E-01
 4.526416659E-01 -5.848728865E-02 -5.086601628E-01
 4.646333456E-01 -5.737569556E-02 -4.836149168E-01
 4.770102799E-01 -5.609344319E-02 -4.253115393E-01
 4.887109995E-01 -5.481662601E-02 -3.886964007E-01
 5.009775162E-01 -5.339241028E-02 -3.503864275E-01
 5.143398643E-01 -5.176287889E-02 -3.138255739E-01
 5.271782279E-01 -5.008881167E-02 -2.653549398E-01
 5.399860740E-01 -4.837578908E-02 -2.279167985E-01
 5.529731512E-01 -4.660078138E-02 -1.978083855E-01
 5.659824014E-01 -4.476277903E-02 -1.613464545E-01
 5.788547397E-01 -4.291356727E-02 -1.304873577E-01
 5.915785432E-01 -4.105246440E-02 -9.956094607E-02
 6.043339968E-01 -3.916038573E-02 -6.699173065E-02
 6.178064942E-01 -3.717491031E-02 -4.444231842E-02
 6.315917969E-01 -3.511333093E-02 -1.506224142E-02
 6.454436183E-01 -3.303414583E-02 1.330300027E-02
 6.585353017E-01 -3.108796850E-02 3.354227392E-02
 6.717147231E-01 -2.911025472E-02 6.202145427E-02
 6.842512488E-01 -2.726310492E-02 8.046175958E-02
 6.967476606E-01 -2.543713525E-02 9.925602588E-02
 7.112505436E-01 -2.333513461E-02 1.198904921E-01
 7.243484855E-01 -2.146091871E-02 1.362686103E-01
 7.357345819E-01 -1.980330236E-02 1.648910360E-01
 7.490633130E-01 -1.794463210E-02 1.783229913E-01
 7.618009448E-01 -1.618412137E-02 1.997018775E-01
 7.752596736E-01 -1.437522192E-02 2.176853926E-01
 7.874720097E-01 -1.277767494E-02 2.340141936E-01
 8.002000451E-01 -1.116088219E-02 2.488552391E-01
 8.111091852E-01 -9.781573899E-03 2.724879589E-01
 8.224951625E-01 -8.422770537E-03 2.860331417E-01
 8.351317644E-01 -6.995038595E-03 2.990701930E-01
 8.473502994E-01 -5.657734815E-03 3.196356524E-01
 8.596625328E-01 -4.420112353E-03 3.327452187E-01
 8.708302379E-01 -3.371630097E-03 3.485653771E-01
 8.824009299E-01 -2.392647322E-03 3.604278405E-01
 8.956428766E-01 -1.421638182E-03 3.687905245E-01
 9.060369134E-01 -7.636848022E-04 3.774354535E-01
 9.168061018E-01 -1.812825067E-04 3.848895699E-01
 9.271218777E-01 2.668997622E-04 3.884613184E-01
 9.371486902E-01 5.919730174E-04 3.897904052E-01
 9.498846531E-01 8.670856478E-04 3.901913283E-01
 9.637384415E-01 9.976438014E-04 3.912007174E-01
 9.775807261E-01 9.605244850E-04 3.976194156E-01
 9.895679951E-01 7.815306308E-04 4.133559091E-01
 -5.000000000E-01 -1.000000000E+00 1.502171178E-02
 3.500000000E+00 -1.000000000E+00 5.957873157E-03
 3.500000000E+00 1.000000000E+00 -2.341188653E-02
 -5.000000000E-01 1.000000000E+00 1.397549009E-02
 9.934858680E-01 1.760798099E-03 2.751438823E-01
 9.803051651E-01 4.181985627E-03 1.814746040E-01
 9.662321806E-01 6.784734083E-03 1.175052623E-01
 9.512249529E-01 9.522362147E-03 7.181746683E-02
 9.372054338E-01 1.206092676E-02 2.739981687E-02
 9.245774150E-01 1.433620043E-02 -9.901903937E-03
 9.125080109E-01 1.647791080E-02 -4.209986548E-02
 9.004070461E-01 1.860339753E-02 -8.602898566E-02
 8.883031309E-01 2.066236269E-02 -1.143275569E-01
 8.760035932E-01 2.267670445E-02 -1.299245747E-01
 8.640202880E-01 2.461452503E-02 -1.774071390E-01
 8.519288301E-01 2.647873852E-02 -1.796137970E-01
 8.401006162E-01 2.823549230E-02 -1.933599953E-01
 8.287590742E-01 2.991287038E-02 -2.132027137E-01
 8.168582618E-01 3.162996843E-02 -2.362124607E-01
 8.043225706E-01 3.338409215E-02 -2.451455011E-01
 7.918355465E-01 3.509083204E-02 -2.665802644E-01
 7.793413401E-01 3.675930761E-02 -2.712953050E-01
 7.670309246E-01 3.838139959E-02 -3.020842169E-01
 7.543826997E-01 4.000999779E-02 -3.126781579E-01
 7.409444153E-01 4.169234820E-02 -3.341877763E-01
 7.287579775E-01 4.319369234E-02 -3.635015148E-01
 7.174434066E-01 4.452995211E-02 -3.676344616E-01
 7.057365477E-01 4.587881826E-02 -3.858029975E-01
 6.932633519E-01 4.728735052E-02 -4.049938602E-01
 6.801455617E-01 4.872588441E-02 -4.363143618E-01
 6.682184935E-01 4.998433590E-02 -4.570612903E-01
 6.568475068E-01 5.112605914E-02 -4.698576852E-01
 6.452227235E-01 5.225302465E-02 -4.874305791E-01
 6.336274147E-01 5.333591811E-02 -5.149464855E-01
 6.219789386E-01 5.437202379E-02 -5.384302754E-01
 6.108331978E-01 5.530696921E-02 -5.611338637E-01
 5.993755758E-01 5.620570853E-02 -5.689213234E-01
 5.874722004E-01 5.708201230E-02 -5.863301770E-01
 5.749391317E-01 5.794749595E-02 -6.186936593E-01
 5.619374812E-01 5.876537040E-02 -6.271676989E-01
 5.493545532E-01 5.947912857E-02 -6.532492283E-01
 5.374550521E-01 6.009353139E-02 -6.743415244E-01
 5.257760286E-01 6.061390601E-02 -6.756786290E-01
 5.136710703E-01 6.109456904E-02 -7.128662348E-01
 5.021206886E-01 6.149132177E-02 -7.025959843E-01
 4.901140481E-01 6.181264669E-02 -6.808029747E-01
 4.772578329E-01 6.210249849E-02 -6.965213417E-01
 4.640680701E-01 6.231130287E-02 -6.610342512E-01
 4.505987763E-01 6.243866682E-02 -6.566189998E-01
 4.376147985E-01 6.250169128E-02 -6.585569005E-01
 4.247975796E-01 6.248636357E-02 -6.492538164E-01
 4.121559560E-01 6.239446998E-02 -6.297624664E-01
 3.996892869E-01 6.223722734E-02 -6.243346641E-01
 3.872977048E-01 6.201334856E-02 -6.035399969E-01
 3.753359765E-01 6.173131429E-02 -5.856029788E-01
 3.630816638E-01 6.138780154E-02 -5.755253116E-01
 3.505320996E-01 6.097888760E-02 -5.698918933E-01
 3.382321298E-01 6.051129848E-02 -5.571193603E-01
 3.267341703E-01 6.001583673E-02 -5.462663430E-01
 3.153499961E-01 5.946818180E-02 -5.361418922E-01
 3.027888089E-01 5.879701488E-02 -5.173566549E-01
 2.894177288E-01 5.800978094E-02 -5.037506900E-01
 2.763224095E-01 5.716877431E-02 -4.843274288E-01
 2.642810047E-01 5.633760802E-02 -4.867408084E-01
 2.521097362E-01 5.542353727E-02 -4.607041647E-01
 2.394834682E-01 5.440569483E-02 -4.544329967E-01
 2.270080820E-01 5.333265662E-02 -4.412610073E-01
 2.148563862E-01 5.220464058E-02 -4.199575007E-01
 2.030053511E-01 5.104427598E-02 -4.155811436E-01
 1.909090057E-01 4.978202097E-02 -3.977755251E-01
 1.787430197E-01 4.842726141E-02 -3.797047166E-01
 1.668406948E-01 4.703021236E-02 -3.698914180E-01
 1.548626646E-01 4.553801194E-02 -3.554121338E-01
 1.432880536E-01 4.400440119E-02 -3.400764171E-01
 1.319218278E-01 4.240440018E-02 -3.227234941E-01
 1.203548498E-01 4.068097845E-02 -3.083037768E-01
 1.092200018E-01 3.891528770E-02 -2.904645356E-01
 9.876802936E-02 3.715211712E-02 -2.751781388E-01
 8.818006143E-02 3.524728492E-02 -2.565134927E-01
 7.698946074E-02 3.308887035E-02 -2.366202888E-01
 7.161940262E-02 -3.654450178E-02 -2.559350013E-01
 8.171240613E-02 -3.875141405E-02 -2.801110542E-01
 9.192285687E-02 -4.080395587E-02 -2.984309941E-01
 1.027399264E-01 -4.281892627E-02 -3.213396209E-01
 1.140768081E-01 -4.477846250E-02 -3.409626316E-01
 1.256933957E-01 -4.664319195E-02 -3.623784774E-01
 1.369989514E-01 -4.833406396E-02 -3.791349886E-01
 1.480788291E-01 -4.988582991E-02 -3.963451542E-01
 1.598196998E-01 -5.142459832E-02 -4.171762130E-01
 1.718697548E-01 -5.289405398E-02 -4.366731275E-01
 1.837490350E-01 -5.424211361E-02 -4.509623136E-01
 1.950764805E-01 -5.544514395E-02 -4.737120024E-01
 2.062780708E-01 -5.654932559E-02 -4.912030782E-01
 2.182737291E-01 -5.764423124E-02 -5.143089467E-01
 2.305745184E-01 -5.866874009E-02 -5.373221841E-01
 2.427568883E-01 -5.958329141E-02 -5.549727753E-01
 2.550798208E-01 -6.041719206E-02 -5.732465377E-01
 2.670336515E-01 -6.113795750E-02 -6.055465967E-01
 2.790162563E-01 -6.175693497E-02 -6.242037157E-01
 2.914506793E-01 -6.230002828E-02 -6.486723684E-01
 3.040076345E-01 -6.274130195E-02 -6.744530265E-01
 3.163054287E-01 -6.305650249E-02 -7.075709823E-01
 3.285227716E-01 -6.325655431E-02 -7.036751022E-01
 3.402138799E-01 -6.335832179E-02 -7.425662699E-01
 3.512007743E-01 -6.333494186E-02 -7.682132270E-01
 3.624483347E-01 -6.321968138E-02 -7.687038823E-01
 3.735192567E-01 -6.300636381E-02 -7.895024343E-01
 3.847995102E-01 -6.267501786E-02 -7.336846446E-01
 3.969870210E-01 -6.221008301E-02 -6.732241028E-01
 4.093491286E-01 -6.160059199E-02 -6.463399815E-01
 4.217568934E-01 -6.086010113E-02 -6.056624766E-01
 4.341965318E-01 -5.998489447E-02 -5.865754559E-01
 4.464344382E-01 -5.899993889E-02 -5.145588693E-01
 4.586375058E-01 -5.793149211E-02 -5.010251291E-01
 4.708218127E-01 -5.673456937E-02 -4.569799238E-01
 4.828606397E-01 -5.545503460E-02 -4.039807615E-01
 4.948442578E-01 -5.410451815E-02 -3.706921859E-01
 5.076586902E-01 -5.257764459E-02 -3.307212949E-01
 5.207590461E-01 -5.092584528E-02 -2.926274570E-01
 5.335821509E-01 -4.923230037E-02 -2.449531994E-01
 5.464796126E-01 -4.748828523E-02 -2.122561269E-01
 5.594777763E-01 -4.568178020E-02 -1.805607254E-01
 5.724185705E-01 -4.383817315E-02 -1.452670317E-01
 5.852166414E-01 -4.198301584E-02 -1.154666910E-01
 5.979562700E-01 -4.010642506E-02 -8.364025992E-02
 6.110702455E-01 -3.816764802E-02 -5.436748693E-02
 6.246991456E-01 -3.614412062E-02 -3.099129187E-02
 6.385177076E-01 -3.407373838E-02 -7.194739940E-04
 6.519894600E-01 -3.206105717E-02 2.462071775E-02
 6.651250124E-01 -3.009911161E-02 4.645883667E-02
 6.779829860E-01 -2.818667982E-02 7.259148092E-02
 6.904994547E-01 -2.635012008E-02 8.959439269E-02
 7.039991021E-01 -2.438613493E-02 1.093763946E-01
 7.177995145E-01 -2.239802666E-02 1.290324941E-01
 7.300415337E-01 -2.063211054E-02 1.481163969E-01
 7.423989475E-01 -1.887396723E-02 1.728323444E-01
 7.554321289E-01 -1.706437673E-02 1.882082149E-01
 7.685303092E-01 -1.527967164E-02 2.087164822E-01
 7.813658416E-01 -1.357644843E-02 2.264927098E-01
 7.938360274E-01 -1.196927857E-02 2.416684788E-01
 8.056546152E-01 -1.047122804E-02 2.592647516E-01
 8.168021739E-01 -9.102172218E-03 2.800484639E-01
 8.288134634E-01 -7.708904566E-03 2.924713535E-01
 8.412410319E-01 -6.326386705E-03 3.081080345E-01
 8.535064161E-01 -5.038923584E-03 3.267399071E-01
 8.652463853E-01 -3.895871225E-03 3.404419278E-01
 8.766155839E-01 -2.882138710E-03 3.543641915E-01
 8.890219033E-01 -1.907142752E-03 3.643377350E-01
 9.008398950E-01 -1.092661492E-03 3.750864106E-01
 9.114215076E-01 -4.724836544E-04 3.804283131E-01
 9.219639897E-01 4.280862777E-05 3.876954105E-01
 9.435166717E-01 7.295293325E-04 3.898524592E-01
 9.568115473E-01 9.323647246E-04 3.900576719E-01
 9.706595838E-01 9.790841432E-04 3.930406702E-01
 9.835743606E-01 8.710275579E-04 4.042105380E-01
 9.949447513E-01 6.499406882E-04 4.608712975E-01
 -5.000000000E-01 9.500000000E-01 2.281955607E-02
 -5.000000000E-01 9.000000000E-01 3.447841113E-02
 -5.000000000E-01 8.500000000E-01 4.356322777E-02
 -5.000000000E-01 8.000000000E-01 5.137910129E-02
 -5.000000000E-01 7.500000000E-01 5.898897444E-02
 -5.000000000E-01 7.000000000E-01 6.653865885E-02
 -5.000000000E-01 6.500000000E-01 7.421772333E-02
 -5.000000000E-01 6.000000000E-01 8.208797197E-02
 -5.000000000E-01 5.500000000E-01 9.020534905E-02
 -5.000000000E-01 5.000000000E-01 9.854472758E-02
 -5.000000000E-01 4.500000000E-01 1.070093337E-01
 -5.000000000E-01 4.000000000E-01 1.155502423E-01
 -5.000000000E-01 3.500000000E-01 1.240577714E-01
 -5.000000000E-01 3.000000000E-01 1.322935926E-01
 -5.000000000E-01 2.500000000E-01 1.398173392E-01
 -5.000000000E-01 2.000000000E-01 1.467420499E-01
 -5.000000000E-01 1.500000000E-01 1.524308139E-01
 -5.000000000E-01 1.000000000E-01 1.569266528E-01
 -5.000000000E-01 5.000000000E-02 1.598148679E-01
 -5.000000000E-01 2.752242878E-12 1.610430977E-01
 -5.000000000E-01 -5.000000000E-02 1.603575476E-01
 -5.000000000E-01 -1.000000000E-01 1.581778646E-01
 -5.000000000E-01 -1.500000000E-01 1.543886363E-01
 -5.000000000E-01 -2.000000000E-01 1.490587467E-01
 -5.000000000E-01 -2.500000000E-01 1.427932713E-01
 -5.000000000E-01 -3.000000000E-01 1.354960897E-01
 -5.000000000E-01 -3.500000000E-01 1.274891428E-01
 -5.000000000E-01 -4.000000000E-01 1.194741108E-01
 -5.000000000E-01 -4.500000000E-01 1.108864096E-01
 -5.000000000E-01 -5.000000000E-01 1.026358816E-01
 -5.000000000E-01 -5.500000000E-01 9.427283394E-02
 -5.000000000E-01 -6.000000000E-01 8.614724627E-02
 -5.000000000E-01 -6.500000000E-01 7.818042076E-02
 -5.000000000E-01 -7.000000000E-01 7.033900142E-02
 -5.000000000E-01 -7.500000000E-01 6.255872102E-02
 -5.000000000E-01 -8.000000000E-01 5.464149018E-02
 -5.000000000E-01 -8.500000000E-01 4.633443860E-02
 -5.000000000E-01 -9.000000000E-01 3.686109111E-02
 -5.000000000E-01 -9.500000000E-01 2.440266389E-02
 -4.500000000E-01 -1.000000000E+00 2.023868327E-02
 -4.000000000E-01 -1.000000000E+00 2.999634895E-02
 -3.500000000E-01 -1.000000000E+00 3.611141824E-02
 -3.000000000E-01 -1.000000000E+00 3.988073473E-02
 -2.500000000E-01 -1.000000000E+00 4.216985929E-02
 -2.000000000E-01 -1.000000000E+00 4.297929497E-02
 -1.500000000E-01 -1.000000000E+00 4.203104536E-02
 -1.000000000E-01 -1.000000000E+00 3.952329991E-02
 -5.000000000E-02 -1.000000000E+00 3.550502268E-02
 -9.424683256E-13 -1.000000000E+00 2.996767119E-02
 5.000000000E-02 -1.000000000E+00 2.307289290E-02
 1.000000000E-01 -1.000000000E+00 1.514081626E-02
 1.500000000E-01 -1.000000000E+00 6.113908498E-03
 2.000000000E-01 -1.000000000E+00 -3.190235249E-03
 2.500000000E-01 -1.000000000E+00 -1.282169780E-02
 3.000000000E-01 -1.000000000E+00 -2.199152924E-02
 3.500000000E-01 -1.000000000E+00 -2.996594066E-02
 4.000000000E-01 -1.000000000E+00 -3.697683110E-02
 4.500000000E-01 -1.000000000E+00 -4.203043991E-02
 5.000000000E-01 -1.000000000E+00 -4.552279964E-02
 5.500000000E-01 -1.000000000E+00 -4.683816955E-02
 6.000000000E-01 -1.000000000E+00 -4.622299619E-02
 6.500000000E-01 -1.000000000E+00 -4.375330184E-02
 7.000000000E-01 -1.000000000E+00 -3.969993372E-02
 7.500000000E-01 -1.000000000E+00 -3.442468048E-02
 8.000000000E-01 -1.000000000E+00 -2.801492933E-02
 8.500000000E-01 -1.000000000E+00 -2.123442027E-02
 9.000000000E-01 -1.000000000E+00 -1.397637822E-02
 9.500000000E-01 -1.000000000E+00 -7.021082348E-03
 1.000000000E+00 -1.000000000E+00 -3.394987605E-04
 1.050000000E+00 -1.000000000E+00 5.850705879E-03
 1.100000000E+00 -1.000000000E+00 1.130334342E-02
 1.150000000E+00 -1.000000000E+00 1.616568382E-02
 1.200000000E+00 -1.000000000E+00 2.027452190E-02
 1.250000000E+00 -1.000000000E+00 2.369757632E-02
 1.300000000E+00 -1.000000000E+00 2.640709607E-02
 1.350000000E+00 -1.000000000E+00 2.854346173E-02
 1.400000000E+00 -1.000000000E+00 3.008979914E-02
 1.450000000E+00 -1.000000000E+00 3.117145247E-02
 1.500000000E+00 -1.000000000E+00 3.186252866E-02
 1.550000000E+00 -1.000000000E+00 3.219128179E-02
 1.600000000E+00 -1.000000000E+00 3.223262460E-02
 1.650000000E+00 -1.000000000E+00 3.204335038E-02
 1.700000000E+00 -1.000000000E+00 3.172454361E-02
 1.750000000E+00 -1.000000000E+00 3.108138720E-02
 1.800000000E+00 -1.000000000E+00 3.055924928E-02
 1.850000000E+00 -1.000000000E+00 2.975610219E-02
 1.900000000E+00 -1.000000000E+00 2.899271503E-02
 1.950000000E+00 -1.000000000E+00 2.823161887E-02
 2.000000000E+00 -1.000000000E+00 2.734513886E-02
 2.050000000E+00 -1.000000000E+00 2.651172277E-02
 2.100000000E+00 -1.000000000E+00 2.566049681E-02
 2.150000000E+00 -1.000000000E+00 2.483705363E-02
 2.200000000E+00 -1.000000000E+00 2.402513946E-02
 2.250000000E+00 -1.000000000E+00 2.330504004E-02
 2.300000000E+00 -1.000000000E+00 2.247959173E-02
 2.350000000E+00 -1.000000000E+00 2.183623319E-02
 2.400000000E+00 -1.000000000E+00 2.110618086E-02
 2.450000000E+00 -1.000000000E+00 2.044419083E-02
 2.500000000E+00 -1.000000000E+00 1.983750939E-02
 2.550000000E+00 -1.000000000E+00 1.929040025E-02
 2.600000000E+00 -1.000000000E+00 1.877004342E-02
 2.650000000E+00 -1.000000000E+00 1.829271549E-02
 2.700000000E+00 -1.000000000E+00 1.785785373E-02
 2.750000000E+00 -1.000000000E+00 1.750094852E-02
 2.800000000E+00 -1.000000000E+00 1.712721227E-02
 2.850000000E+00 -1.000000000E+00 1.682041298E-02
 2.900000000E+00 -1.000000000E+00 1.655293271E-02
 2.950000000E+00 -1.000000000E+00 1.627469660E-02
 3.000000000E+00 -1.000000000E+00 1.609226121E-02
 3.050000000E+00 -1.000000000E+00 1.586415820E-02
 3.100000000E+00 -1.000000000E+00 1.569355454E-02
 3.150000000E+00 -1.000000000E+00 1.546924551E-02
 3.200000000E+00 -1.000000000E+00 1.525443415E-02
 3.250000000E+00 -1.000000000E+00 1.490782013E-02
 3.300000000E+00 -1.000000000E+00 1.448839639E-02
 3.350000000E+00 -1.000000000E+00 1.380587550E-02
 3.400000000E+00 -1.000000000E+00 1.254997638E-02
 3.450000000E+00 -1.000000000E+00 9.798520027E-03
 3.500000000E+00 -9.500000000E-01 4.258442859E-03
 3.500000000E+00 -9.000000000E-01 6.199087994E-03
 3.500000000E+00 -8.500000000E-01 7.836125986E-03
 3.500000000E+00 -8.000000000E-01 9.389227231E-03
 3.500000000E+00 -7.500000000E-01 1.077419595E-02
 3.500000000E+00 -7.000000000E-01 1.201250339E-02
 3.500000000E+00 -6.500000000E-01 1.330313440E-02
 3.500000000E+00 -6.000000000E-01 1.463628093E-02
 3.500000000E+00 -5.500000000E-01 1.608290189E-02
 3.500000000E+00 -5.000000000E-01 1.749611691E-02
 3.500000000E+00 -4.500000000E-01 1.890262727E-02
 3.500000000E+00 -4.000000000E-01 2.037674038E-02
 3.500000000E+00 -3.500000000E-01 2.181944108E-02
 3.500000000E+00 -3.000000000E-01 2.318987005E-02
 3.500000000E+00 -2.500000000E-01 2.431040920E-02
 3.500000000E+00 -2.000000000E-01 2.496944944E-02
 3.500000000E+00 -1.500000000E-01 2.507899174E-02
 3.500000000E+00 -1.000000000E-01 2.485252938E-02
 3.500000000E+00 -5.000000000E-02 2.469340453E-02
 3.500000000E+00 -2.752242878E-12 2.476890379E-02
 3.500000000E+00 5.000000000E-02 2.491343408E-02
 3.500000000E+00 1.000000000E-01 2.491640926E-02
 3.500000000E+00 1.500000000E-01 2.460970078E-02
 3.500000000E+00 2.000000000E-01 2.340289318E-02
 3.500000000E+00 2.500000000E-01 2.183615930E-02
 3.500000000E+00 3.000000000E-01 2.042007015E-02
 3.500000000E+00 3.500000000E-01 1.897559546E-02
 3.500000000E+00 4.000000000E-01 1.751191556E-02
 3.500000000E+00 4.500000000E-01 1.599643853E-02
 3.500000000E+00 5.000000000E-01 1.448676591E-02
 3.500000000E+00 5.500000000E-01 1.307986172E-02
 3.500000000E+00 6.000000000E-01 1.215354622E-02
 3.500000000E+00 6.500000000E-01 1.168146512E-02
 3.500000000E+00 7.000000000E-01 1.115887623E-02
 3.500000000E+00 7.500000000E-01 9.326883560E-03
 3.500000000E+00 8.000000000E-01 4.287132607E-03
 3.500000000E+00 8.500000000E-01 -3.914012543E-03
 3.500000000E+00 9.000000000E-01 -1.489663628E-02
 3.500000000E+00 9.500000000E-01 -2.688821554E-02
 3.450000000E+00 1.000000000E+00 -1.085949361E-02
 3.400000000E+00 1.000000000E+00 -2.794878358E-03
 3.350000000E+00 1.000000000E+00 -2.447734833E-04
 3.300000000E+00 1.000000000E+00 1.760930856E-04
 3.250000000E+00 1.000000000E+00 1.424469660E-04
 3.200000000E+00 1.000000000E+00 -3.701212611E-04
 3.150000000E+00 1.000000000E+00 -9.171987102E-04
 3.100000000E+00 1.000000000E+00 -1.811109841E-03
 3.050000000E+00 1.000000000E+00 -2.678792591E-03
 3.000000000E+00 1.000000000E+00 -3.408870074E-03
 2.950000000E+00 1.000000000E+00 -4.350016944E-03
 2.900000000E+00 1.000000000E+00 -5.189195978E-03
 2.850000000E+00 1.000000000E+00 -6.219513569E-03
 2.800000000E+00 1.000000000E+00 -7.159374653E-03
 2.750000000E+00 1.000000000E+00 -8.343532199E-03
 2.700000000E+00 1.000000000E+00 -9.320238132E-03
 2.650000000E+00 1.000000000E+00 -1.042098136E-02
 2.600000000E+00 1.000000000E+00 -1.171377661E-02
 2.550000000E+00 1.000000000E+00 -1.251544257E-02
 2.500000000E+00 1.000000000E+00 -1.413222188E-02
 2.450000000E+00 1.000000000E+00 -1.515200847E-02
 2.400000000E+00 1.000000000E+00 -1.671286049E-02
 2.350000000E+00 1.000000000E+00 -1.793793802E-02
 2.300000000E+00 1.000000000E+00 -1.945341925E-02
 2.250000000E+00 1.000000000E+00 -2.114470965E-02
 2.200000000E+00 1.000000000E+00 -2.269929392E-02
 2.150000000E+00 1.000000000E+00 -2.443224544E-02
 2.100000000E+00 1.000000000E+00 -2.667633102E-02
 2.050000000E+00 1.000000000E+00 -2.834100473E-02
 2.000000000E+00 1.000000000E+00 -3.104368782E-02
 1.950000000E+00 1.000000000E+00 -3.321535033E-02
 1.900000000E+00 1.000000000E+00 -3.557858163E-02
 1.850000000E+00 1.000000000E+00 -3.846084861E-02
 1.800000000E+00 1.000000000E+00 -4.119533089E-02
 1.750000000E+00 1.000000000E+00 -4.493112639E-02
 1.700000000E+00 1.000000000E+00 -4.781606041E-02
 1.650000000E+00 1.000000000E+00 -5.192485051E-02
 1.600000000E+00 1.000000000E+00 -5.611031385E-02
 1.550000000E+00 1.000000000E+00 -6.072333151E-02
 1.500000000E+00 1.000000000E+00 -6.572806316E-02
 1.450000000E+00 1.000000000E+00 -7.125563896E-02
 1.400000000E+00 1.000000000E+00 -7.704270316E-02
 1.350000000E+00 1.000000000E+00 -8.330791120E-02
 1.300000000E+00 1.000000000E+00 -8.979825493E-02
 1.250000000E+00 1.000000000E+00 -9.720911892E-02
 1.200000000E+00 1.000000000E+00 -1.038592670E-01
 1.150000000E+00 1.000000000E+00 -1.114117213E-01
 1.100000000E+00 1.000000000E+00 -1.184954615E-01
 1.050000000E+00 1.000000000E+00 -1.253536408E-01
 1.000000000E+00 1.000000000E+00 -1.309793185E-01
 9.500000000E-01 1.000000000E+00 -1.366708859E-01
 9.000000000E-01 1.000000000E+00 -1.402601782E-01
 8.500000000E-01 1.000000000E+00 -1.427056271E-01
 8.000000000E-01 1.000000000E+00 -1.432313545E-01
 7.500000000E-01 1.000000000E+00 -1.416953740E-01
 7.000000000E-01 1.000000000E+00 -1.374711019E-01
 6.500000000E-01 1.000000000E+00 -1.317417734E-01
 6.000000000E-01 1.000000000E+00 -1.236058269E-01
 5.500000000E-01 1.000000000E+00 -1.132373430E-01
 5.000000000E-01 1.000000000E+00 -1.024201780E-01
 4.500000000E-01 1.000000000E+00 -8.918061278E-02
 4.000000000E-01 1.000000000E+00 -7.556585998E-02
 3.500000000E-01 1.000000000E+00 -6.119352740E-02
 3.000000000E-01 1.000000000E+00 -4.726952079E-02
 2.500000000E-01 1.000000000E+00 -3.298404132E-02
 2.000000000E-01 1.000000000E+00 -1.989873693E-02
 1.500000000E-01 1.000000000E+00 -7.293663268E-03
 1.000000000E-01 1.000000000E+00 4.027958538E-03
 5.000000000E-02 1.000000000E+00 1.398259789E-02
 1.733724275E-12 1.000000000E+00 2.238498432E-02
 -5.000000000E-02 1.000000000E+00 2.903074332E-02
 -1.000000000E-01 1.000000000E+00 3.404396087E-02
 -1.500000000E-01 1.000000000E+00 3.723182730E-02
 -2.000000000E-01 1.000000000E+00 3.880331650E-02
 -2.500000000E-01 1.000000000E+00 3.867075661E-02
 -3.000000000E-01 1.000000000E+00 3.693993608E-02
 -3.500000000E-01 1.000000000E+00 3.355596428E-02
 -4.000000000E-01 1.000000000E+00 2.794655045E-02
 -4.500000000E-01 1.000000000E+00 1.882968392E-02
 9.141639541E-01 -4.939639526E-03 3.756692402E-01
 8.391105712E-01 -1.282687379E-02 2.998614847E-01
 7.659281091E-01 -2.140498135E-02 2.015638429E-01
 9.865205443E-01 -3.928124421E-03 4.064298101E-01
 6.942270209E-01 -3.108935192E-02 9.311568810E-02
 6.289378895E-01 -4.152515093E-02 -2.254477631E-02
 5.569119411E-01 -5.158920153E-02 -1.857163877E-01
 4.925526589E-01 -5.928410949E-02 -3.724394704E-01
 4.314918534E-01 -6.517092479E-02 -5.823197413E-01
 3.761092127E-01 -6.758509557E-02 -7.704031719E-01