TITLE     = "Visualization of the solution"
VARIABLES = "x"
"y"
"Pressure_Coefficient"
ZONE T="Zone"
 STRANDID=0, SOLUTIONTIME=0
 Nodes=12148, Elements=23714, ZONETYPE=FEQuadrilateral
 DATAPACKING=POINT
 DT=(DOUBLE DOUBLE DOUBLE )
 1.000123620E+00 5.164048634E-04 3.393038748E-01
 9.878458977E-01 2.873279853E-03 2.453934849E-01
 9.759152532E-01 5.202501547E-03 1.690175197E-01
 9.614700675E-01 7.999943569E-03 1.058267881E-01
 9.471977353E-01 1.070235297E-02 6.514673257E-02
 9.335291982E-01 1.330990810E-02 2.325820642E-02
 9.221665263E-01 1.549869310E-02 -2.911497855E-02
 9.099383950E-01 1.776203886E-02 -6.306467398E-02
 8.980817795E-01 1.988647878E-02 -8.373850027E-02
 8.862548470E-01 2.201607451E-02 -1.262789416E-01
 8.742331862E-01 2.410599962E-02 -1.643223501E-01
 8.620412350E-01 2.609860525E-02 -1.694799429E-01
 8.494614959E-01 2.815746330E-02 -2.038101979E-01
 8.381137848E-01 2.992927469E-02 -2.168607090E-01
 8.265429139E-01 3.171149269E-02 -2.390124006E-01
 8.136311769E-01 3.362017125E-02 -2.485979567E-01
 8.007372618E-01 3.551093861E-02 -2.736822989E-01
 7.884888053E-01 3.725064918E-02 -2.899600146E-01
 7.759142518E-01 3.899572045E-02 -3.067910526E-01
 7.640801072E-01 4.060341790E-02 -3.255936313E-01
 7.510603666E-01 4.233813286E-02 -3.490920542E-01
 7.368611693E-01 4.415252432E-02 -3.635979514E-01
 7.261573076E-01 4.551061615E-02 -3.915509883E-01
 7.151481509E-01 4.684889317E-02 -4.063236915E-01
 7.034392953E-01 4.823451117E-02 -4.208936662E-01
 6.897915006E-01 4.979083687E-02 -4.384663878E-01
 6.767404675E-01 5.126876384E-02 -4.865010339E-01
 6.663841009E-01 5.234558135E-02 -4.840366146E-01
 6.549037695E-01 5.351761729E-02 -5.019177331E-01
 6.434472799E-01 5.465283245E-02 -5.358477554E-01
 6.313983798E-01 5.578756705E-02 -5.603324049E-01
 6.199653149E-01 5.677816272E-02 -5.666886921E-01
 6.091324091E-01 5.769358948E-02 -5.846113677E-01
 5.962232947E-01 5.870032310E-02 -6.133346556E-01
 5.845153332E-01 5.958547443E-02 -6.355233308E-01
 5.707164407E-01 6.049059331E-02 -6.351668576E-01
 5.580897331E-01 6.127780303E-02 -6.839539496E-01
 5.453116298E-01 6.196627393E-02 -7.312017511E-01
 5.341873765E-01 6.251270324E-02 -7.570014159E-01
 5.223888159E-01 6.301961094E-02 -7.500590304E-01
 5.096141100E-01 6.348976493E-02 -7.411947982E-01
 4.984982014E-01 6.383490562E-02 -7.243511212E-01
 4.850417376E-01 6.416972727E-02 -7.111425595E-01
 4.717704356E-01 6.441441178E-02 -7.007610652E-01
 4.574568868E-01 6.459446996E-02 -6.959078113E-01
 4.436314702E-01 6.468004733E-02 -6.870913689E-01
 4.307105541E-01 6.467998773E-02 -6.706880854E-01
 4.175470173E-01 6.459890306E-02 -6.587540141E-01
 4.051442444E-01 6.446173787E-02 -6.425127625E-01
 3.926151395E-01 6.423265487E-02 -6.211666930E-01
 3.805651963E-01 6.397283822E-02 -6.172597495E-01
 3.689986169E-01 6.365077198E-02 -6.000289991E-01
 3.557554185E-01 6.321854889E-02 -5.892418771E-01
 3.434283137E-01 6.274176389E-02 -5.677051658E-01
 3.306009173E-01 6.217442080E-02 -5.527925005E-01
 3.197598755E-01 6.165600941E-02 -5.436993954E-01
 3.071425557E-01 6.097960845E-02 -5.305949562E-01
 2.940579057E-01 6.021736562E-02 -5.205170628E-01
 2.800771892E-01 5.929768458E-02 -4.978366433E-01
 2.677699924E-01 5.842225254E-02 -4.847102746E-01
 2.558763027E-01 5.752991885E-02 -4.778564361E-01
 2.431669235E-01 5.647220090E-02 -4.535075582E-01
 2.306739539E-01 5.538450554E-02 -4.452187865E-01
 2.186180055E-01 5.424853414E-02 -4.288040839E-01
 2.069236338E-01 5.308501422E-02 -4.176645526E-01
 1.956084967E-01 5.187358335E-02 -3.944346524E-01
 1.833935678E-01 5.051234365E-02 -3.841741826E-01
 1.715068817E-01 4.910120741E-02 -3.711693846E-01
 1.602487862E-01 4.768202081E-02 -3.533111679E-01
 1.483624130E-01 4.609359056E-02 -3.366224220E-01
 1.377875060E-01 4.460373148E-02 -3.212200678E-01
 1.262154430E-01 4.287716746E-02 -3.032686114E-01
 1.147030070E-01 4.104563221E-02 -2.834136474E-01
 1.042456180E-01 3.928950801E-02 -2.631316233E-01
 9.450678527E-02 3.755544126E-02 -2.489322556E-01
 8.324622363E-02 3.541168571E-02 -2.218168471E-01
 7.121908665E-02 3.294380382E-02 -1.984958873E-01
 6.119187549E-02 3.071034886E-02 -1.722369507E-01
 5.126417801E-02 2.831060439E-02 -1.358877885E-01
 4.249681160E-02 2.598796599E-02 -1.100955880E-01
 3.500679508E-02 2.381499484E-02 -7.186015660E-02
 2.842726745E-02 2.170905657E-02 -3.372543170E-02
 2.293333225E-02 1.977458410E-02 1.289133895E-03
 1.901320554E-02 1.825296134E-02 4.502804675E-02
 1.536382362E-02 1.670967042E-02 7.922133474E-02
 1.266437117E-02 1.546559203E-02 1.261993890E-01
 1.019212138E-02 1.420912705E-02 1.693895386E-01
 8.370541967E-03 1.320685633E-02 2.122234231E-01
 6.734003779E-03 1.222638693E-02 2.518364384E-01
 5.230274983E-03 1.123463362E-02 3.340519720E-01
 3.236707300E-03 9.742835537E-03 4.314370581E-01
 1.542294165E-03 8.225519210E-03 5.387830592E-01
 1.033031731E-04 6.606460549E-03 7.558477434E-01
 -1.235882752E-03 4.437579308E-03 9.793005830E-01
 -1.830265974E-03 2.711355453E-03 1.117618276E+00
 -2.017241670E-03 1.349049155E-03 1.187636153E+00
 -1.939939335E-03 -1.851217385E-04 1.185457900E+00
 -1.519576181E-03 -1.834557741E-03 1.094106172E+00
 -5.951667554E-04 -3.788021393E-03 9.351360760E-01
 8.561163559E-04 -5.825526547E-03 7.418645830E-01
 2.891556127E-03 -7.950930856E-03 5.682375374E-01
 4.692731891E-03 -9.483189322E-03 4.222709804E-01
 6.837834138E-03 -1.105349977E-02 3.337874007E-01
 8.452111855E-03 -1.210681163E-02 2.489450445E-01
 1.048905402E-02 -1.332205627E-02 2.010191236E-01
 1.285360660E-02 -1.461099461E-02 1.377613275E-01
 1.611769758E-02 -1.621138118E-02 7.966791332E-02
 1.911337301E-02 -1.754975319E-02 1.908698336E-02
 2.308711410E-02 -1.916647516E-02 -2.279086177E-02
 2.849357389E-02 -2.114166133E-02 -6.500662729E-02
 3.419486806E-02 -2.302030660E-02 -1.111874041E-01
 4.143996164E-02 -2.516320720E-02 -1.431144796E-01
 4.896597564E-02 -2.717960998E-02 -1.738348813E-01
 5.787137151E-02 -2.933927812E-02 -1.952495286E-01
 6.654337049E-02 -3.126395866E-02 -2.168802859E-01
 7.678658515E-02 -3.336509690E-02 -2.389534559E-01
 8.684007078E-02 -3.526486829E-02 -2.549947977E-01
 9.698472917E-02 -3.704934195E-02 -2.705869025E-01
 1.079361290E-01 -3.885189071E-02 -2.858920243E-01
 1.189782694E-01 -4.054672644E-02 -2.990852464E-01
 1.305190772E-01 -4.221497849E-02 -3.139950749E-01
 1.410341561E-01 -4.365124181E-02 -3.318887300E-01
 1.521556377E-01 -4.508168250E-02 -3.456458656E-01
 1.643008143E-01 -4.655519128E-02 -3.621050724E-01
 1.760547310E-01 -4.789574444E-02 -3.811391899E-01
 1.879075915E-01 -4.916052520E-02 -3.961668593E-01
 1.985031813E-01 -5.022615567E-02 -4.144877308E-01
 2.098591477E-01 -5.129868165E-02 -4.326887958E-01
 2.221560180E-01 -5.237213522E-02 -4.477478296E-01
 2.346765697E-01 -5.339272320E-02 -4.722124282E-01
 2.471497655E-01 -5.430626497E-02 -4.897087361E-01
 2.599254251E-01 -5.516413227E-02 -5.140336231E-01
 2.710431218E-01 -5.582861602E-02 -5.388813672E-01
 2.839416862E-01 -5.650395900E-02 -5.588056223E-01
 2.965735495E-01 -5.705388635E-02 -5.761962370E-01
 3.092842698E-01 -5.751531944E-02 -5.985236823E-01
 3.210682273E-01 -5.784489214E-02 -6.245279928E-01
 3.337238133E-01 -5.808807909E-02 -6.434048112E-01
 3.443486989E-01 -5.819605663E-02 -6.606951947E-01
 3.556827605E-01 -5.822365358E-02 -6.730690125E-01
 3.666390479E-01 -5.814068764E-02 -6.751570972E-01
 3.774673045E-01 -5.798242614E-02 -6.844645662E-01
 3.886736035E-01 -5.768467858E-02 -6.603850650E-01
 4.016883969E-01 -5.722915381E-02 -6.264323508E-01
 4.138050973E-01 -5.666536465E-02 -5.999846729E-01
 4.270655811E-01 -5.592768267E-02 -5.732400757E-01
 4.399408102E-01 -5.506814271E-02 -5.462818751E-01
 4.521755874E-01 -5.410435423E-02 -4.990374386E-01
 4.642080367E-01 -5.305046961E-02 -4.566235298E-01
 4.766845107E-01 -5.184593797E-02 -4.133855746E-01
 4.880954921E-01 -5.066196993E-02 -3.780119420E-01
 5.007438064E-01 -4.925596714E-02 -3.361059300E-01
 5.146140456E-01 -4.761777818E-02 -2.929210603E-01
 5.283092260E-01 -4.589529708E-02 -2.445278711E-01
 5.417693853E-01 -4.415514320E-02 -2.077332762E-01
 5.551441908E-01 -4.237668216E-02 -1.754391165E-01
 5.684120655E-01 -4.054137692E-02 -1.343051338E-01
 5.817455053E-01 -3.869588301E-02 -1.101216627E-01
 5.937103629E-01 -3.696699440E-02 -6.848743709E-02
 6.063176990E-01 -3.518573567E-02 -4.834157047E-02
 6.202573776E-01 -3.319662809E-02 -2.192745423E-02
 6.347271204E-01 -3.110539913E-02 8.986568450E-03
 6.491086483E-01 -2.903666161E-02 3.400405791E-02
 6.621878743E-01 -2.714707144E-02 6.104785030E-02
 6.757443547E-01 -2.521504648E-02 8.274057418E-02
 6.883484125E-01 -2.343749255E-02 1.018065315E-01
 7.005538940E-01 -2.172352746E-02 1.225879602E-01
 7.150548697E-01 -1.971243508E-02 1.447728215E-01
 7.280772924E-01 -1.793647744E-02 1.654261384E-01
 7.400491238E-01 -1.635188237E-02 1.778605461E-01
 7.527142763E-01 -1.465508621E-02 2.064497890E-01
 7.654229999E-01 -1.307445858E-02 2.104556795E-01
 7.782607675E-01 -1.144999079E-02 2.361491452E-01
 7.900795341E-01 -1.001800224E-02 2.510599411E-01
 8.028233051E-01 -8.536531590E-03 2.643657874E-01
 8.136615157E-01 -7.293799426E-03 2.846997926E-01
 8.249840140E-01 -6.061560009E-03 3.010025196E-01
 8.376282454E-01 -4.787461832E-03 3.127674422E-01
 8.499708176E-01 -3.621908836E-03 3.272329235E-01
 8.619351387E-01 -2.569028642E-03 3.430300502E-01
 8.737315536E-01 -1.650908729E-03 3.522832041E-01
 8.853450418E-01 -8.330511628E-04 3.659490086E-01
 8.985903859E-01 -6.866841431E-05 3.705528827E-01
 9.083974957E-01 4.127234570E-04 3.791485213E-01
 9.186225533E-01 7.983525284E-04 3.806082061E-01
 9.280007482E-01 1.064770157E-03 3.811395898E-01
 9.365441203E-01 1.241591410E-03 3.838842290E-01
 9.485230446E-01 1.371670049E-03 3.818750892E-01
 9.618803859E-01 1.370547689E-03 3.813755711E-01
 9.761279225E-01 1.201266074E-03 3.852865189E-01
 9.890042543E-01 8.966531022E-04 3.951924641E-01
 -5.000000000E-01 -1.000000000E+00 1.479207477E-02
 3.500000000E+00 -1.000000000E+00 6.901938473E-03
 3.500000000E+00 1.000000000E+00 -2.697511427E-02
 -5.000000000E-01 1.000000000E+00 1.359674559E-02
 9.939847589E-01 1.694842358E-03 3.271125572E-01
 9.818805754E-01 4.037890700E-03 2.037674783E-01
 9.686926603E-01 6.601222558E-03 1.335335389E-01
 9.543339014E-01 9.351148270E-03 8.575739106E-02
 9.403634667E-01 1.200613054E-02 4.507397766E-02
 9.278478622E-01 1.440430060E-02 -6.551519536E-03
 9.160524607E-01 1.663036598E-02 -4.800179631E-02
 9.040100873E-01 1.882425882E-02 -7.021157306E-02
 8.921683133E-01 2.095127665E-02 -1.058300467E-01
 8.802440166E-01 2.306103706E-02 -1.501663768E-01
 8.681372106E-01 2.510230243E-02 -1.622904010E-01
 8.557513654E-01 2.712803427E-02 -1.897394789E-01
 8.437876403E-01 2.904336900E-02 -2.084166696E-01
 8.323283494E-01 3.082038369E-02 -2.309638482E-01
 8.200870454E-01 3.266583197E-02 -2.411380747E-01
 8.071842194E-01 3.456555493E-02 -2.622005765E-01
 7.946130335E-01 3.638079390E-02 -2.819274921E-01
 7.822015285E-01 3.812318482E-02 -2.981612598E-01
 7.699971795E-01 3.979956917E-02 -3.149249017E-01
 7.575702369E-01 4.147077538E-02 -3.402910179E-01
 7.439607680E-01 4.324532859E-02 -3.528968354E-01
 7.315092385E-01 4.483157024E-02 -3.803929091E-01
 7.206527293E-01 4.617975466E-02 -3.982470266E-01
 7.092937231E-01 4.754170217E-02 -4.160156336E-01
 6.966153979E-01 4.901267402E-02 -4.224311318E-01
 6.832659841E-01 5.052980036E-02 -4.691713496E-01
 6.715622842E-01 5.180717260E-02 -4.836395908E-01
 6.606439352E-01 5.293159932E-02 -4.905594624E-01
 6.491755247E-01 5.408522487E-02 -5.181181503E-01
 6.374228299E-01 5.522019975E-02 -5.534010272E-01
 6.256818473E-01 5.628286488E-02 -5.588311732E-01
 6.145488620E-01 5.723587610E-02 -5.798282421E-01
 6.026778519E-01 5.819695629E-02 -5.912814444E-01
 5.903693140E-01 5.914289877E-02 -6.370553440E-01
 5.776158869E-01 6.003803387E-02 -6.262239548E-01
 5.644030869E-01 6.088419817E-02 -6.600966610E-01
 5.517006814E-01 6.162203848E-02 -7.060909011E-01
 5.397495031E-01 6.223948859E-02 -7.499133482E-01
 5.282880962E-01 6.276615709E-02 -7.558795382E-01
 5.160014629E-01 6.325468794E-02 -7.448421616E-01
 5.040561557E-01 6.366233528E-02 -7.343951691E-01
 4.917699695E-01 6.400231645E-02 -7.171349225E-01
 4.784060866E-01 6.429206952E-02 -7.052752370E-01
 4.646136612E-01 6.450444087E-02 -6.985739258E-01
 4.505441785E-01 6.463725865E-02 -6.918234524E-01
 4.371710122E-01 6.468001753E-02 -6.797382648E-01
 4.241287857E-01 6.463944539E-02 -6.625000621E-01
 4.113456309E-01 6.453032047E-02 -6.545742631E-01
 3.988796920E-01 6.434719637E-02 -6.269874143E-01
 3.865901679E-01 6.410274655E-02 -6.215124161E-01
 3.747819066E-01 6.381180510E-02 -6.081954812E-01
 3.623770177E-01 6.343466043E-02 -5.952757916E-01
 3.495918661E-01 6.298015639E-02 -5.795949660E-01
 3.370146155E-01 6.245809235E-02 -5.565410928E-01
 3.251803964E-01 6.191521510E-02 -5.511316342E-01
 3.134512156E-01 6.131780893E-02 -5.353303328E-01
 3.006002307E-01 6.059848703E-02 -5.287578410E-01
 2.870675474E-01 5.975752510E-02 -5.085303940E-01
 2.739235908E-01 5.885996856E-02 -4.876448018E-01
 2.618231475E-01 5.797608569E-02 -4.863916910E-01
 2.495216131E-01 5.700105987E-02 -4.622454450E-01
 2.369204387E-01 5.592835322E-02 -4.511661999E-01
 2.246459797E-01 5.481651984E-02 -4.355958824E-01
 2.127708197E-01 5.366677418E-02 -4.253830636E-01
 2.012660652E-01 5.247929879E-02 -4.044676761E-01
 1.895010322E-01 5.119296350E-02 -3.897018583E-01
 1.774502248E-01 4.980677553E-02 -3.778084533E-01
 1.658778340E-01 4.839161411E-02 -3.632879796E-01
 1.543055996E-01 4.688780569E-02 -3.435657411E-01
 1.430749595E-01 4.534866102E-02 -3.299800989E-01
 1.320014745E-01 4.374044947E-02 -3.135297520E-01
 1.204592250E-01 4.196139984E-02 -2.914649076E-01
 1.094743125E-01 4.016757011E-02 -2.764457544E-01
 8.887650445E-02 3.648356348E-02 -2.381496312E-01
 7.723265514E-02 3.417774476E-02 -2.082110309E-01
 6.620548107E-02 3.182707634E-02 -1.862090801E-01
 5.622802675E-02 2.951047663E-02 -1.582201414E-01
 7.166497782E-02 -3.231452778E-02 -2.299495810E-01
 8.181332797E-02 -3.431498259E-02 -2.484400441E-01
 9.191239998E-02 -3.615710512E-02 -2.633783604E-01
 1.024604291E-01 -3.795061633E-02 -2.776397309E-01
 1.134571992E-01 -3.969930857E-02 -2.937535680E-01
 1.247486733E-01 -4.138085246E-02 -3.058005212E-01
 1.357766166E-01 -4.293311015E-02 -3.237237717E-01
 1.465948969E-01 -4.436646216E-02 -3.387056745E-01
 1.582282260E-01 -4.581843689E-02 -3.528651687E-01
 1.701777726E-01 -4.722546786E-02 -3.720678788E-01
 1.819811612E-01 -4.852813482E-02 -3.891310189E-01
 1.932053864E-01 -4.969334044E-02 -4.057417115E-01
 2.041811645E-01 -5.076241866E-02 -4.228788519E-01
 2.160075828E-01 -5.183540843E-02 -4.402442456E-01
 2.284162939E-01 -5.288242921E-02 -4.580940820E-01
 2.409131676E-01 -5.384949408E-02 -4.833298959E-01
 2.535375953E-01 -5.473519862E-02 -4.992462832E-01
 2.654842734E-01 -5.549637415E-02 -5.285210713E-01
 2.774924040E-01 -5.616628751E-02 -5.470580333E-01
 2.902576178E-01 -5.677892268E-02 -5.694860170E-01
 3.029289097E-01 -5.728460290E-02 -5.848819752E-01
 3.151762486E-01 -5.768010579E-02 -6.130191191E-01
 3.273960203E-01 -5.796648562E-02 -6.332896654E-01
 3.390362561E-01 -5.814206786E-02 -6.548994949E-01
 3.500157297E-01 -5.820985511E-02 -6.652277839E-01
 3.611609042E-01 -5.818217061E-02 -6.774705974E-01
 3.720531762E-01 -5.806155689E-02 -6.763717623E-01
 3.830704540E-01 -5.783355236E-02 -6.811112482E-01
 3.951810002E-01 -5.745691620E-02 -6.379071941E-01
 4.077467471E-01 -5.694725923E-02 -6.161153595E-01
 4.204353392E-01 -5.629652366E-02 -5.840134886E-01
 4.335031956E-01 -5.549791269E-02 -5.615126698E-01
 4.460581988E-01 -5.458624847E-02 -5.258839966E-01
 4.581918120E-01 -5.357741192E-02 -4.762744682E-01
 4.704462737E-01 -5.244820379E-02 -4.354890568E-01
 4.823900014E-01 -5.125395395E-02 -3.957425137E-01
 4.944196492E-01 -4.995896854E-02 -3.573536836E-01
 5.076789260E-01 -4.843687266E-02 -3.145827807E-01
 5.214616358E-01 -4.675653763E-02 -2.701602595E-01
 5.350393057E-01 -4.502522014E-02 -2.244201893E-01
 5.484567881E-01 -4.326591268E-02 -1.915698758E-01
 5.617781281E-01 -4.145902954E-02 -1.563916837E-01
 5.750787854E-01 -3.961862996E-02 -1.195609259E-01
 5.877279341E-01 -3.783143871E-02 -9.287015387E-02
 6.000140309E-01 -3.607636504E-02 -5.500739878E-02
 6.132875383E-01 -3.419118188E-02 -3.606380900E-02
 6.274922490E-01 -3.215101361E-02 -7.266793836E-03
 6.419178843E-01 -3.007103037E-02 2.211709227E-02
 6.556482613E-01 -2.809186652E-02 4.703631785E-02
 6.689661145E-01 -2.618105896E-02 7.242260695E-02
 6.820463836E-01 -2.432626951E-02 9.270765973E-02
 6.944511533E-01 -2.258051001E-02 1.116303143E-01
 7.078043818E-01 -2.071798127E-02 1.332247094E-01
 7.215660810E-01 -1.882445626E-02 1.556266851E-01
 7.340632081E-01 -1.714417990E-02 1.728353530E-01
 7.463817000E-01 -1.550348429E-02 1.896469072E-01
 7.590686381E-01 -1.386477239E-02 2.119896561E-01
 7.718418837E-01 -1.226222469E-02 2.205173197E-01
 7.841701508E-01 -1.073399652E-02 2.447343703E-01
 7.964514196E-01 -9.277266916E-03 2.579988969E-01
 8.082424104E-01 -7.915165508E-03 2.739844416E-01
 8.193227649E-01 -6.677679718E-03 2.928142227E-01
 8.313061297E-01 -5.424510920E-03 3.069602961E-01
 8.437995315E-01 -4.204685334E-03 3.198892646E-01
 8.559529781E-01 -3.095468739E-03 3.344473529E-01
 8.678333461E-01 -2.109968686E-03 3.483526930E-01
 8.795382977E-01 -1.241979946E-03 3.582509720E-01
 8.919677138E-01 -4.508597885E-04 3.684821480E-01
 9.135100245E-01 6.055379927E-04 3.830322137E-01
 9.425335824E-01 1.306630729E-03 3.821158290E-01
 9.552017152E-01 1.371108869E-03 3.809302448E-01
 9.690041542E-01 1.285906881E-03 3.806768126E-01
 9.825660884E-01 1.048959588E-03 3.877443671E-01
 9.945639372E-01 7.065289828E-04 4.440986156E-01
 -5.000000000E-01 9.500000000E-01 2.219785166E-02
 -5.000000000E-01 9.000000000E-01 3.360509665E-02
 -5.000000000E-01 8.500000000E-01 4.237655155E-02
 -5.000000000E-01 8.000000000E-01 5.004562370E-02
 -5.000000000E-01 7.500000000E-01 5.749300114E-02
 -5.000000000E-01 7.000000000E-01 6.482616711E-02
 -5.000000000E-01 6.500000000E-01 7.229094793E-02
 -5.000000000E-01 6.000000000E-01 7.999060045E-02
 -5.000000000E-01 5.500000000E-01 8.784771132E-02
 -5.000000000E-01 5.000000000E-01 9.598963690E-02
 -5.000000000E-01 4.500000000E-01 1.042346409E-01
 -5.000000000E-01 4.000000000E-01 1.125310553E-01
 -5.000000000E-01 3.500000000E-01 1.207239850E-01
 -5.000000000E-01 3.000000000E-01 1.285914748E-01
 -5.000000000E-01 2.500000000E-01 1.359016983E-01
 -5.000000000E-01 2.000000000E-01 1.424640159E-01
 -5.000000000E-01 1.500000000E-01 1.479612346E-01
 -5.000000000E-01 1.000000000E-01 1.521812478E-01
 -5.000000000E-01 5.000000000E-02 1.548179336E-01
 -5.000000000E-01 2.752242878E-12 1.559730590E-01
 -5.000000000E-01 -5.000000000E-02 1.554173099E-01
 -5.000000000E-01 -1.000000000E-01 1.531440524E-01
 -5.000000000E-01 -1.500000000E-01 1.493621762E-01
 -5.000000000E-01 -2.000000000E-01 1.442851473E-01
 -5.000000000E-01 -2.500000000E-01 1.382456403E-01
 -5.000000000E-01 -3.000000000E-01 1.312538488E-01
 -5.000000000E-01 -3.500000000E-01 1.238310113E-01
 -5.000000000E-01 -4.000000000E-01 1.158964582E-01
 -5.000000000E-01 -4.500000000E-01 1.079521985E-01
 -5.000000000E-01 -5.000000000E-01 9.991563742E-02
 -5.000000000E-01 -5.500000000E-01 9.192763555E-02
 -5.000000000E-01 -6.000000000E-01 8.418556091E-02
 -5.000000000E-01 -6.500000000E-01 7.650664159E-02
 -5.000000000E-01 -7.000000000E-01 6.898141227E-02
 -5.000000000E-01 -7.500000000E-01 6.146671336E-02
 -5.000000000E-01 -8.000000000E-01 5.373671453E-02
 -5.000000000E-01 -8.500000000E-01 4.567271590E-02
 -5.000000000E-01 -9.000000000E-01 3.630460020E-02
 -5.000000000E-01 -9.500000000E-01 2.402221023E-02
 -4.500000000E-01 -1.000000000E+00 1.996774144E-02
 -4.000000000E-01 -1.000000000E+00 2.955530171E-02
 -3.500000000E-01 -1.000000000E+00 3.573542288E-02
 -3.000000000E-01 -1.000000000E+00 3.970419801E-02
 -2.500000000E-01 -1.000000000E+00 4.208685098E-02
 -2.000000000E-01 -1.000000000E+00 4.306583471E-02
 -1.500000000E-01 -1.000000000E+00 4.255242792E-02
 -1.000000000E-01 -1.000000000E+00 4.059118363E-02
 -5.000000000E-02 -1.000000000E+00 3.725340417E-02
 -9.424683256E-13 -1.000000000E+00 3.249647048E-02
 5.000000000E-02 -1.000000000E+00 2.654626374E-02
 1.000000000E-01 -1.000000000E+00 1.949930285E-02
 1.500000000E-01 -1.000000000E+00 1.170291314E-02
 2.000000000E-01 -1.000000000E+00 3.444739677E-03
 2.500000000E-01 -1.000000000E+00 -4.776391352E-03
 3.000000000E-01 -1.000000000E+00 -1.263600211E-02
 3.500000000E-01 -1.000000000E+00 -1.962903035E-02
 4.000000000E-01 -1.000000000E+00 -2.546358729E-02
 4.500000000E-01 -1.000000000E+00 -2.972707973E-02
 5.000000000E-01 -1.000000000E+00 -3.238564596E-02
 5.500000000E-01 -1.000000000E+00 -3.322297821E-02
 6.000000000E-01 -1.000000000E+00 -3.232151076E-02
 6.500000000E-01 -1.000000000E+00 -2.972718669E-02
 7.000000000E-01 -1.000000000E+00 -2.577223602E-02
 7.500000000E-01 -1.000000000E+00 -2.055770846E-02
 8.000000000E-01 -1.000000000E+00 -1.482867684E-02
 8.500000000E-01 -1.000000000E+00 -8.354100397E-03
 9.000000000E-01 -1.000000000E+00 -1.729324695E-03
 9.500000000E-01 -1.000000000E+00 4.699728455E-03
 1.000000000E+00 -1.000000000E+00 1.076805890E-02
 1.050000000E+00 -1.000000000E+00 1.626169049E-02
 1.100000000E+00 -1.000000000E+00 2.116777649E-02
 1.150000000E+00 -1.000000000E+00 2.543285444E-02
 1.200000000E+00 -1.000000000E+00 2.890707426E-02
 1.250000000E+00 -1.000000000E+00 3.180584174E-02
 1.300000000E+00 -1.000000000E+00 3.403563004E-02
 1.350000000E+00 -1.000000000E+00 3.574106077E-02
 1.400000000E+00 -1.000000000E+00 3.685343440E-02
 1.450000000E+00 -1.000000000E+00 3.753975577E-02
 1.500000000E+00 -1.000000000E+00 3.787718075E-02
 1.550000000E+00 -1.000000000E+00 3.783666705E-02
 1.600000000E+00 -1.000000000E+00 3.758067833E-02
 1.650000000E+00 -1.000000000E+00 3.709673678E-02
 1.700000000E+00 -1.000000000E+00 3.644379040E-02
 1.750000000E+00 -1.000000000E+00 3.564599585E-02
 1.800000000E+00 -1.000000000E+00 3.477996859E-02
 1.850000000E+00 -1.000000000E+00 3.380008691E-02
 1.900000000E+00 -1.000000000E+00 3.281647999E-02
 1.950000000E+00 -1.000000000E+00 3.180157557E-02
 2.000000000E+00 -1.000000000E+00 3.075653369E-02
 2.050000000E+00 -1.000000000E+00 2.973243351E-02
 2.100000000E+00 -1.000000000E+00 2.868988928E-02
 2.150000000E+00 -1.000000000E+00 2.773433103E-02
 2.200000000E+00 -1.000000000E+00 2.672552751E-02
 2.250000000E+00 -1.000000000E+00 2.580872113E-02
 2.300000000E+00 -1.000000000E+00 2.490894568E-02
 2.350000000E+00 -1.000000000E+00 2.403498847E-02
 2.400000000E+00 -1.000000000E+00 2.326128942E-02
 2.450000000E+00 -1.000000000E+00 2.246791954E-02
 2.500000000E+00 -1.000000000E+00 2.176910461E-02
 2.550000000E+00 -1.000000000E+00 2.108378063E-02
 2.600000000E+00 -1.000000000E+00 2.044549736E-02
 2.650000000E+00 -1.000000000E+00 1.987113299E-02
 2.700000000E+00 -1.000000000E+00 1.932135021E-02
 2.750000000E+00 -1.000000000E+00 1.884842654E-02
 2.800000000E+00 -1.000000000E+00 1.838481257E-02
 2.850000000E+00 -1.000000000E+00 1.798728582E-02
 2.900000000E+00 -1.000000000E+00 1.763608751E-02
 2.950000000E+00 -1.000000000E+00 1.729220567E-02
 3.000000000E+00 -1.000000000E+00 1.700362758E-02
 3.050000000E+00 -1.000000000E+00 1.671785268E-02
 3.100000000E+00 -1.000000000E+00 1.644814423E-02
 3.150000000E+00 -1.000000000E+00 1.616405876E-02
 3.200000000E+00 -1.000000000E+00 1.587301514E-02
 3.250000000E+00 -1.000000000E+00 1.545639112E-02
 3.300000000E+00 -1.000000000E+00 1.498620271E-02
 3.350000000E+00 -1.000000000E+00 1.426323731E-02
 3.400000000E+00 -1.000000000E+00 1.302746272E-02
 3.450000000E+00 -1.000000000E+00 1.042097056E-02
 3.500000000E+00 -9.500000000E-01 5.073557632E-03
 3.500000000E+00 -9.000000000E-01 6.468735743E-03
 3.500000000E+00 -8.500000000E-01 7.935709567E-03
 3.500000000E+00 -8.000000000E-01 9.403896380E-03
 3.500000000E+00 -7.500000000E-01 1.068565543E-02
 3.500000000E+00 -7.000000000E-01 1.189237672E-02
 3.500000000E+00 -6.500000000E-01 1.315537492E-02
 3.500000000E+00 -6.000000000E-01 1.444880433E-02
 3.500000000E+00 -5.500000000E-01 1.578030794E-02
 3.500000000E+00 -5.000000000E-01 1.714400704E-02
 3.500000000E+00 -4.500000000E-01 1.854507768E-02
 3.500000000E+00 -4.000000000E-01 1.992302941E-02
 3.500000000E+00 -3.500000000E-01 2.135551566E-02
 3.500000000E+00 -3.000000000E-01 2.260123670E-02
 3.500000000E+00 -2.500000000E-01 2.360988885E-02
 3.500000000E+00 -2.000000000E-01 2.408053786E-02
 3.500000000E+00 -1.500000000E-01 2.401294384E-02
 3.500000000E+00 -1.000000000E-01 2.367929629E-02
 3.500000000E+00 -5.000000000E-02 2.339352724E-02
 3.500000000E+00 -2.752242878E-12 2.350418297E-02
 3.500000000E+00 5.000000000E-02 2.382116099E-02
 3.500000000E+00 1.000000000E-01 2.387950201E-02
 3.500000000E+00 1.500000000E-01 2.341914098E-02
 3.500000000E+00 2.000000000E-01 2.244527625E-02
 3.500000000E+00 2.500000000E-01 2.115343440E-02
 3.500000000E+00 3.000000000E-01 1.963799778E-02
 3.500000000E+00 3.500000000E-01 1.824668671E-02
 3.500000000E+00 4.000000000E-01 1.686263569E-02
 3.500000000E+00 4.500000000E-01 1.534918114E-02
 3.500000000E+00 5.000000000E-01 1.391339892E-02
 3.500000000E+00 5.500000000E-01 1.263353297E-02
 3.500000000E+00 6.000000000E-01 1.175001954E-02
 3.500000000E+00 6.500000000E-01 1.137747366E-02
 3.500000000E+00 7.000000000E-01 1.089898870E-02
 3.500000000E+00 7.500000000E-01 8.793918294E-03
 3.500000000E+00 8.000000000E-01 3.190776834E-03
 3.500000000E+00 8.500000000E-01 -5.816356561E-03
 3.500000000E+00 9.000000000E-01 -1.720741848E-02
 3.500000000E+00 9.500000000E-01 -3.025334398E-02
 3.450000000E+00 1.000000000E+00 -1.347808007E-02
 3.400000000E+00 1.000000000E+00 -4.636759677E-03
 3.350000000E+00 1.000000000E+00 -1.687213250E-03
 3.300000000E+00 1.000000000E+00 -1.298868356E-03
 3.250000000E+00 1.000000000E+00 -1.305147721E-03
 3.200000000E+00 1.000000000E+00 -1.791173643E-03
 3.150000000E+00 1.000000000E+00 -2.291484557E-03
 3.100000000E+00 1.000000000E+00 -3.125179641E-03
 3.050000000E+00 1.000000000E+00 -3.882279600E-03
 3.000000000E+00 1.000000000E+00 -4.867687243E-03
 2.950000000E+00 1.000000000E+00 -5.788432835E-03
 2.900000000E+00 1.000000000E+00 -6.848162658E-03
 2.850000000E+00 1.000000000E+00 -7.810463496E-03
 2.800000000E+00 1.000000000E+00 -8.909268405E-03
 2.750000000E+00 1.000000000E+00 -1.005434695E-02
 2.700000000E+00 1.000000000E+00 -1.119736857E-02
 2.650000000E+00 1.000000000E+00 -1.242927189E-02
 2.600000000E+00 1.000000000E+00 -1.353720964E-02
 2.550000000E+00 1.000000000E+00 -1.488190161E-02
 2.500000000E+00 1.000000000E+00 -1.621588466E-02
 2.450000000E+00 1.000000000E+00 -1.748981765E-02
 2.400000000E+00 1.000000000E+00 -1.917490310E-02
 2.350000000E+00 1.000000000E+00 -2.045865449E-02
 2.300000000E+00 1.000000000E+00 -2.218719284E-02
 2.250000000E+00 1.000000000E+00 -2.398697678E-02
 2.200000000E+00 1.000000000E+00 -2.560534144E-02
 2.150000000E+00 1.000000000E+00 -2.770021415E-02
 2.100000000E+00 1.000000000E+00 -2.961180996E-02
 2.050000000E+00 1.000000000E+00 -3.193876230E-02
 2.000000000E+00 1.000000000E+00 -3.446303431E-02
 1.950000000E+00 1.000000000E+00 -3.700436494E-02
 1.900000000E+00 1.000000000E+00 -3.978031291E-02
 1.850000000E+00 1.000000000E+00 -4.278064236E-02
 1.800000000E+00 1.000000000E+00 -4.591672080E-02
 1.750000000E+00 1.000000000E+00 -4.931709462E-02
 1.700000000E+00 1.000000000E+00 -5.320824769E-02
 1.650000000E+00 1.000000000E+00 -5.728896041E-02
 1.600000000E+00 1.000000000E+00 -6.159628031E-02
 1.550000000E+00 1.000000000E+00 -6.666520846E-02
 1.500000000E+00 1.000000000E+00 -7.192138162E-02
 1.450000000E+00 1.000000000E+00 -7.770050596E-02
 1.400000000E+00 1.000000000E+00 -8.422380601E-02
 1.350000000E+00 1.000000000E+00 -9.109483112E-02
 1.300000000E+00 1.000000000E+00 -9.758160352E-02
 1.250000000E+00 1.000000000E+00 -1.049405001E-01
 1.200000000E+00 1.000000000E+00 -1.126187582E-01
 1.150000000E+00 1.000000000E+00 -1.192425955E-01
 1.100000000E+00 1.000000000E+00 -1.275944061E-01
 1.050000000E+00 1.000000000E+00 -1.340754297E-01
 1.000000000E+00 1.000000000E+00 -1.409119020E-01
 9.500000000E-01 1.000000000E+00 -1.457472900E-01
 9.000000000E-01 1.000000000E+00 -1.503668936E-01
 8.500000000E-01 1.000000000E+00 -1.517180015E-01
 8.000000000E-01 1.000000000E+00 -1.528314163E-01
 7.500000000E-01 1.000000000E+00 -1.496343965E-01
 7.000000000E-01 1.000000000E+00 -1.461536604E-01
 6.500000000E-01 1.000000000E+00 -1.394618043E-01
 6.000000000E-01 1.000000000E+00 -1.300232632E-01
 5.500000000E-01 1.000000000E+00 -1.200230553E-01
 5.000000000E-01 1.000000000E+00 -1.073717497E-01
 4.500000000E-01 1.000000000E+00 -9.389382832E-02
 4.000000000E-01 1.000000000E+00 -7.941871573E-02
 3.500000000E-01 1.000000000E+00 -6.460565869E-02
 3.000000000E-01 1.000000000E+00 -5.004628787E-02
 2.500000000E-01 1.000000000E+00 -3.564361011E-02
 2.000000000E-01 1.000000000E+00 -2.206972426E-02
 1.500000000E-01 1.000000000E+00 -9.231246562E-03
 1.000000000E-01 1.000000000E+00 2.405352663E-03
 5.000000000E-02 1.000000000E+00 1.241779285E-02
 1.733724275E-12 1.000000000E+00 2.092714469E-02
 -5.000000000E-02 1.000000000E+00 2.775569561E-02
 -1.000000000E-01 1.000000000E+00 3.274149493E-02
 -1.500000000E-01 1.000000000E+00 3.599928964E-02
 -2.000000000E-01 1.000000000E+00 3.765168050E-02
 -2.500000000E-01 1.000000000E+00 3.749614088E-02
 -3.000000000E-01 1.000000000E+00 3.578848052E-02
 -3.500000000E-01 1.000000000E+00 3.261577854E-02
 -4.000000000E-01 1.000000000E+00 2.718956204E-02
 -4.500000000E-01 1.000000000E+00 1.831595109E-02
 8.897110260E-01 -5.922388820E-03 3.598628854E-01
 8.060709766E-01 -1.291893140E-02 2.669071913E-01
 7.381757570E-01 -2.257027480E-02 1.741852312E-01
 6.664641684E-01 -3.194626222E-02 6.592966047E-02
 9.799885949E-01 -5.197377121E-03 3.735773800E-01
 5.981359013E-01 -4.200761361E-02 -6.144846439E-02
 5.324277746E-01 -5.128867856E-02 -2.308803292E-01
 4.678392459E-01 -5.805354488E-02 -4.371537175E-01
 4.110200501E-01 -6.205299713E-02 -5.958099943E-01
 3.532954146E-01 -6.304666862E-02 -6.588381897E-01
 2.995840147E-01 -6.226097803E-02 -5.719817341E-01