TITLE     = "Visualization of the solution"
VARIABLES = "x"
"y"
"Pressure_Coefficient"
ZONE T="Zone"
 STRANDID=0, SOLUTIONTIME=0
 Nodes=11737, Elements=22890, ZONETYPE=FEQuadrilateral
 DATAPACKING=POINT
 DT=(DOUBLE DOUBLE DOUBLE )
 9.996291995E-01 5.174541730E-04 3.355776639E-01
 9.851635695E-01 3.166107927E-03 2.142073094E-01
 9.724075198E-01 5.481761415E-03 1.406939885E-01
 9.570094943E-01 8.194237947E-03 1.037591130E-01
 9.434990287E-01 1.068863273E-02 3.314840796E-02
 9.305257201E-01 1.291511580E-02 2.118430325E-02
 9.195320606E-01 1.489647664E-02 -3.512689674E-02
 9.070204496E-01 1.701507345E-02 -5.039910115E-02
 8.955548406E-01 1.902456768E-02 -1.136062441E-01
 8.829119205E-01 2.106444910E-02 -1.356977629E-01
 8.703597784E-01 2.301728167E-02 -1.598481627E-01
 8.580176830E-01 2.484843880E-02 -1.721048890E-01
 8.455750942E-01 2.663901635E-02 -1.808953518E-01
 8.341139555E-01 2.828828804E-02 -2.077277432E-01
 8.224269748E-01 2.991665900E-02 -2.286205988E-01
 8.096896410E-01 3.160581738E-02 -2.328469023E-01
 7.969638705E-01 3.326787427E-02 -2.441628280E-01
 7.852576971E-01 3.479669988E-02 -2.702986708E-01
 7.728560567E-01 3.635825962E-02 -2.878446633E-01
 7.607731819E-01 3.782534227E-02 -2.965886939E-01
 7.478436828E-01 3.936021775E-02 -3.076858937E-01
 7.344728112E-01 4.093024135E-02 -3.317546626E-01
 7.235651612E-01 4.217855260E-02 -3.509784858E-01
 7.119284868E-01 4.345711693E-02 -3.593762670E-01
 7.002126575E-01 4.472202435E-02 -3.766068846E-01
 6.869058013E-01 4.612646624E-02 -4.020603668E-01
 6.739027500E-01 4.743206128E-02 -4.179670706E-01
 6.630149484E-01 4.849551246E-02 -4.379168638E-01
 6.510306597E-01 4.961944744E-02 -4.573612930E-01
 6.399788260E-01 5.060461536E-02 -4.684343057E-01
 6.279843450E-01 5.163639039E-02 -4.867019823E-01
 6.165562272E-01 5.257480219E-02 -5.106730373E-01
 6.057370901E-01 5.342660472E-02 -5.364750967E-01
 5.935795903E-01 5.430176854E-02 -5.437949402E-01
 5.815777779E-01 5.511017889E-02 -5.569853201E-01
 5.680103302E-01 5.596899241E-02 -5.830363329E-01
 5.550293326E-01 5.670262128E-02 -5.985269081E-01
 5.421889424E-01 5.735579878E-02 -6.155663379E-01
 5.307905078E-01 5.787659436E-02 -6.130777912E-01
 5.186025500E-01 5.834760889E-02 -6.163186730E-01
 5.062042475E-01 5.880529061E-02 -6.579347110E-01
 4.954454005E-01 5.912204832E-02 -6.482083698E-01
 4.824497402E-01 5.941915885E-02 -6.322957796E-01
 4.697665870E-01 5.964550748E-02 -6.303907326E-01
 4.560555816E-01 5.982283503E-02 -6.322524597E-01
 4.424046278E-01 5.990627781E-02 -6.284938011E-01
 4.295092225E-01 5.991940573E-02 -6.196407146E-01
 4.163126051E-01 5.983874947E-02 -5.991990218E-01
 4.039323926E-01 5.970912799E-02 -5.920878625E-01
 3.910160959E-01 5.951360986E-02 -5.897988961E-01
 3.789854646E-01 5.925914645E-02 -5.771855147E-01
 3.677982092E-01 5.896665156E-02 -5.627479210E-01
 3.548552990E-01 5.857270211E-02 -5.582865343E-01
 3.427990675E-01 5.813522637E-02 -5.411173572E-01
 3.305856884E-01 5.762259662E-02 -5.255067953E-01
 3.204372227E-01 5.716845393E-02 -5.204486302E-01
 3.086658716E-01 5.657675117E-02 -5.100398457E-01
 2.961893082E-01 5.589263886E-02 -4.978837218E-01
 2.825924158E-01 5.505199730E-02 -4.766681893E-01
 2.702116072E-01 5.423715711E-02 -4.683605984E-01
 2.583730817E-01 5.339347571E-02 -4.563395559E-01
 2.459047586E-01 5.243659392E-02 -4.412474650E-01
 2.331172526E-01 5.138171092E-02 -4.261476656E-01
 2.209012806E-01 5.031256750E-02 -4.157896791E-01
 2.091033757E-01 4.921084270E-02 -4.020120875E-01
 1.973163486E-01 4.804026335E-02 -3.855793116E-01
 1.848287880E-01 4.673682526E-02 -3.767691610E-01
 1.728223413E-01 4.539826885E-02 -3.612844104E-01
 1.606538147E-01 4.396099970E-02 -3.447065995E-01
 1.485934258E-01 4.245287552E-02 -3.298093726E-01
 1.373579204E-01 4.098051041E-02 -3.210359969E-01
 1.258110851E-01 3.936125711E-02 -3.016131733E-01
 1.143615842E-01 3.767141327E-02 -2.890738725E-01
 1.034556180E-01 3.596129268E-02 -2.755906657E-01
 9.336271137E-02 3.428317234E-02 -2.600815128E-01
 8.227254450E-02 3.232079744E-02 -2.435619444E-01
 7.084483653E-02 3.014576994E-02 -2.250994658E-01
 6.116533279E-02 2.815269306E-02 -2.067432682E-01
 5.181945860E-02 2.607506514E-02 -1.897000403E-01
 4.304404184E-02 2.395349368E-02 -1.710335705E-01
 3.543734550E-02 2.193019912E-02 -1.503822177E-01
 2.885435522E-02 2.000896633E-02 -1.277725464E-01
 2.326525934E-02 1.819987036E-02 -1.063031143E-01
 1.918715425E-02 1.674068719E-02 -7.931295752E-02
 1.541127916E-02 1.526291762E-02 -5.364886590E-02
 1.261606254E-02 1.405053586E-02 -2.225697319E-02
 1.019998733E-02 1.290812716E-02 6.487085614E-03
 8.449008688E-03 1.199272834E-02 3.781056757E-02
 6.815390196E-03 1.107161865E-02 6.499805032E-02
 5.270416383E-03 1.010453049E-02 1.429979095E-01
 3.273028880E-03 8.674021810E-03 2.313513624E-01
 1.610620064E-03 7.235476747E-03 3.520878647E-01
 2.480332623E-04 5.754551850E-03 5.634640822E-01
 -1.068671234E-03 3.738306696E-03 8.012756251E-01
 -1.702744397E-03 2.119777724E-03 9.870438815E-01
 -1.961949281E-03 7.934043533E-04 1.118776480E+00
 -1.979583642E-03 -8.330161218E-04 1.204252741E+00
 -1.596991322E-03 -2.809378318E-03 1.176728524E+00
 -6.711549358E-04 -5.045604892E-03 1.080596283E+00
 8.745387895E-04 -7.464449387E-03 9.045542754E-01
 3.027776722E-03 -9.967730381E-03 7.423994824E-01
 5.006791092E-03 -1.185127627E-02 6.081739174E-01
 7.315985393E-03 -1.375221275E-02 5.099654363E-01
 9.037480690E-03 -1.501937304E-02 4.214422047E-01
 1.114368252E-02 -1.644712500E-02 3.638803977E-01
 1.362260245E-02 -1.798955724E-02 2.911163051E-01
 1.688784175E-02 -1.984131150E-02 2.176499000E-01
 2.013342641E-02 -2.151852287E-02 1.410759386E-01
 2.419986576E-02 -2.343627624E-02 8.206712723E-02
 2.965078503E-02 -2.576611005E-02 2.108628826E-02
 3.528256342E-02 -2.794775553E-02 -4.554348521E-02
 4.228219762E-02 -3.039670363E-02 -9.929988742E-02
 4.983237013E-02 -3.279011324E-02 -1.461129355E-01
 5.856018886E-02 -3.529597819E-02 -1.858687496E-01
 6.727771461E-02 -3.758020699E-02 -2.219248900E-01
 7.768190652E-02 -4.007736966E-02 -2.568559904E-01
 8.761152625E-02 -4.227045923E-02 -2.897244493E-01
 9.843026847E-02 -4.446266964E-02 -3.096433753E-01
 1.096133813E-01 -4.656847566E-02 -3.347130585E-01
 1.214867607E-01 -4.863942787E-02 -3.565929711E-01
 1.330069900E-01 -5.050792545E-02 -3.795980247E-01
 1.436667591E-01 -5.212618038E-02 -4.014936993E-01
 1.548810005E-01 -5.372015014E-02 -4.198586021E-01
 1.666253060E-01 -5.528486893E-02 -4.437854098E-01
 1.781707108E-01 -5.670554191E-02 -4.575254781E-01
 1.898635775E-01 -5.806499347E-02 -4.813708795E-01
 2.003262341E-01 -5.919470266E-02 -5.073070153E-01
 2.116195261E-01 -6.032454222E-02 -5.242595551E-01
 2.237360924E-01 -6.144091114E-02 -5.430920554E-01
 2.355966866E-01 -6.244231761E-02 -5.675094772E-01
 2.473608404E-01 -6.334876269E-02 -5.981568274E-01
 2.594192624E-01 -6.416495144E-02 -6.169783007E-01
 2.706679404E-01 -6.484151632E-02 -6.338249394E-01
 2.831853330E-01 -6.549886614E-02 -6.555891016E-01
 2.952973545E-01 -6.604015082E-02 -6.977311781E-01
 3.079102635E-01 -6.646874547E-02 -7.285629422E-01
 3.195450902E-01 -6.676179171E-02 -7.525953876E-01
 3.317197263E-01 -6.695780903E-02 -7.718161580E-01
 3.419626355E-01 -6.703069061E-02 -8.009348057E-01
 3.532376885E-01 -6.701063365E-02 -8.273414814E-01
 3.642166555E-01 -6.688211858E-02 -8.455371155E-01
 3.750085533E-01 -6.666243821E-02 -8.635544967E-01
 3.866666555E-01 -6.630656868E-02 -8.876750389E-01
 3.990471065E-01 -6.581508368E-02 -9.056253164E-01
 4.109757245E-01 -6.519749016E-02 -7.384025488E-01
 4.238948822E-01 -6.440120190E-02 -5.478895612E-01
 4.361383021E-01 -6.351365149E-02 -5.570031850E-01
 4.491860271E-01 -6.246201694E-02 -5.609240311E-01
 4.615842402E-01 -6.133270264E-02 -5.265427110E-01
 4.739747345E-01 -6.005975977E-02 -4.655330669E-01
 4.861226082E-01 -5.874850973E-02 -4.354476969E-01
 4.980495572E-01 -5.733561143E-02 -3.835784798E-01
 5.112628937E-01 -5.572006479E-02 -3.464954212E-01
 5.243524313E-01 -5.402748287E-02 -3.084308371E-01
 5.369114876E-01 -5.233066902E-02 -2.686291832E-01
 5.504878759E-01 -5.044036731E-02 -2.335572085E-01
 5.632166862E-01 -4.858815670E-02 -1.888470604E-01
 5.765079260E-01 -4.665872455E-02 -1.649583618E-01
 5.893960595E-01 -4.471725971E-02 -1.269328966E-01
 6.022044420E-01 -4.278301820E-02 -9.995955779E-02
 6.150051951E-01 -4.082096368E-02 -6.869148247E-02
 6.288530231E-01 -3.871151432E-02 -4.811365470E-02
 6.420581937E-01 -3.664192930E-02 -1.091939357E-02
 6.555905938E-01 -3.456948698E-02 6.606992564E-03
 6.692052484E-01 -3.247097135E-02 2.992555764E-02
 6.817755103E-01 -3.053681739E-02 4.799548560E-02
 6.941169500E-01 -2.859690227E-02 7.952370157E-02
 7.088235021E-01 -2.633714303E-02 1.013580241E-01
 7.218494415E-01 -2.435428649E-02 1.220724613E-01
 7.333623171E-01 -2.261286974E-02 1.424489175E-01
 7.463069558E-01 -2.068702318E-02 1.607875410E-01
 7.594016790E-01 -1.875983924E-02 1.817267695E-01
 7.726510763E-01 -1.683804207E-02 2.044982229E-01
 7.850580215E-01 -1.508804318E-02 2.221522038E-01
 7.979777455E-01 -1.332554687E-02 2.362865015E-01
 8.090630770E-01 -1.182552148E-02 2.567272497E-01
 8.202462196E-01 -1.035221945E-02 2.769022266E-01
 8.325987458E-01 -8.815073408E-03 2.903660332E-01
 8.449987769E-01 -7.329725195E-03 3.080219434E-01
 8.570569754E-01 -5.950244144E-03 3.274320724E-01
 8.681768179E-01 -4.755157977E-03 3.468777005E-01
 8.799457550E-01 -3.633912187E-03 3.548869799E-01
 8.928727508E-01 -2.511902945E-03 3.684936997E-01
 9.029666185E-01 -1.732740784E-03 3.811400810E-01
 9.138835669E-01 -1.029245090E-03 3.840392262E-01
 9.240915179E-01 -4.630032636E-04 3.921780856E-01
 9.344749451E-01 -1.893340232E-05 3.926454114E-01
 9.476096034E-01 3.995294101E-04 3.930366238E-01
 9.620500803E-01 6.732220645E-04 3.947614172E-01
 9.764921665E-01 7.571210153E-04 4.008720666E-01
 9.889903665E-01 6.752929185E-04 4.182201187E-01
 -5.000000000E-01 -1.000000000E+00 1.462011180E-02
 3.500000000E+00 -1.000000000E+00 4.712626537E-03
 3.500000000E+00 1.000000000E+00 -1.998039442E-02
 -5.000000000E-01 1.000000000E+00 1.403535633E-02
 9.923963845E-01 1.841781050E-03 2.824270940E-01
 9.787855446E-01 4.323934671E-03 1.682961975E-01
 9.647085071E-01 6.837999681E-03 1.257778545E-01
 9.502542615E-01 9.441435337E-03 6.045176674E-02
 9.370123744E-01 1.180187427E-02 3.297468505E-02
 9.250288904E-01 1.390579622E-02 -1.436210992E-02
 9.132762551E-01 1.595577504E-02 -3.581328355E-02
 9.012876451E-01 1.801982056E-02 -8.968816537E-02
 8.892333806E-01 2.004450839E-02 -1.240479973E-01
 8.766358495E-01 2.204086538E-02 -1.486145248E-01
 8.641887307E-01 2.393286023E-02 -1.663471341E-01
 8.517963886E-01 2.574372757E-02 -1.736297855E-01
 8.398445249E-01 2.746365219E-02 -1.948029930E-01
 8.282704651E-01 2.910247352E-02 -2.214734226E-01
 8.160583079E-01 3.076123819E-02 -2.298321494E-01
 8.033267558E-01 3.243684582E-02 -2.357748309E-01
 7.911107838E-01 3.403228708E-02 -2.587870047E-01
 7.790568769E-01 3.557747975E-02 -2.802882446E-01
 7.668146193E-01 3.709180094E-02 -2.922815612E-01
 7.543084323E-01 3.859278001E-02 -3.004326559E-01
 7.411582470E-01 4.014522955E-02 -3.190878552E-01
 7.290189862E-01 4.155439697E-02 -3.439837666E-01
 7.177468240E-01 4.281783476E-02 -3.541706976E-01
 7.060705721E-01 4.408957064E-02 -3.665846678E-01
 6.935592294E-01 4.542424530E-02 -3.912289593E-01
 6.804042757E-01 4.677926376E-02 -4.086971910E-01
 6.684588492E-01 4.796378687E-02 -4.282718289E-01
 6.570228040E-01 4.905747995E-02 -4.487421123E-01
 6.455047429E-01 5.011203140E-02 -4.620977678E-01
 6.339815855E-01 5.112050287E-02 -4.777202385E-01
 6.222702861E-01 5.210559629E-02 -4.964193063E-01
 6.111466587E-01 5.300070345E-02 -5.276498252E-01
 5.996583402E-01 5.386418663E-02 -5.400942217E-01
 5.875786841E-01 5.470597371E-02 -5.482813521E-01
 5.747940540E-01 5.553958565E-02 -5.714592386E-01
 5.615198314E-01 5.633580685E-02 -5.907817336E-01
 5.486091375E-01 5.702921003E-02 -6.064382640E-01
 5.364897251E-01 5.761619657E-02 -6.195560983E-01
 5.246965289E-01 5.811210163E-02 -6.051571543E-01
 5.124033988E-01 5.857644975E-02 -6.419692679E-01
 5.008248240E-01 5.896366946E-02 -6.581822908E-01
 4.889475703E-01 5.927060358E-02 -6.381246486E-01
 4.761081636E-01 5.953233317E-02 -6.296943339E-01
 4.629110843E-01 5.973417126E-02 -6.333831785E-01
 4.492301047E-01 5.986455642E-02 -6.288848298E-01
 4.359569252E-01 5.991284177E-02 -6.276275216E-01
 4.229109138E-01 5.987907760E-02 -6.070978296E-01
 4.101224989E-01 5.977393873E-02 -5.945168540E-01
 3.974742442E-01 5.961136892E-02 -5.920622603E-01
 3.850007802E-01 5.938637815E-02 -5.837370500E-01
 3.733918369E-01 5.911289901E-02 -5.693763037E-01
 3.613267541E-01 5.876967683E-02 -5.607851622E-01
 3.488271832E-01 5.835396424E-02 -5.518569589E-01
 3.366923779E-01 5.787891150E-02 -5.289999031E-01
 3.255114555E-01 5.739552528E-02 -5.256856005E-01
 3.145515472E-01 5.687260255E-02 -5.141146445E-01
 3.024275899E-01 5.623469502E-02 -5.075696614E-01
 2.893908620E-01 5.547231808E-02 -4.846132701E-01
 2.764020115E-01 5.464457721E-02 -4.724855225E-01
 2.642923445E-01 5.381531641E-02 -4.630050099E-01
 2.521389201E-01 5.291503482E-02 -4.495671712E-01
 2.395110056E-01 5.190915242E-02 -4.325685808E-01
 2.270092666E-01 5.084713921E-02 -4.211428908E-01
 2.150023282E-01 4.976170510E-02 -4.095746226E-01
 2.032098621E-01 4.862555303E-02 -3.929259576E-01
 1.910725683E-01 4.738854431E-02 -3.818338434E-01
 1.788255647E-01 4.606754705E-02 -3.690917455E-01
 1.667380780E-01 4.467963427E-02 -3.534031340E-01
 1.546236202E-01 4.320693761E-02 -3.353245264E-01
 1.429756731E-01 4.171669297E-02 -3.278298883E-01
 1.315845028E-01 4.017088376E-02 -3.105305027E-01
 1.200863346E-01 3.851633519E-02 -2.956927648E-01
 1.089086011E-01 3.681635298E-02 -2.817391652E-01
 9.840916470E-02 3.512223251E-02 -2.691409472E-01
 8.781762794E-02 3.330198489E-02 -2.526498357E-01
 7.655869052E-02 3.123328369E-02 -2.372947185E-01
 7.247981057E-02 -3.882878833E-02 -2.437541851E-01
 8.264671639E-02 -4.117391445E-02 -2.747646125E-01
 9.302089736E-02 -4.336656444E-02 -3.004917561E-01
 1.040218249E-01 -4.551557265E-02 -3.218769212E-01
 1.155500710E-01 -4.760395177E-02 -3.460240643E-01
 1.272468753E-01 -4.957367666E-02 -3.689616909E-01
 1.383368745E-01 -5.131705292E-02 -3.919244678E-01
 1.492738798E-01 -5.292316526E-02 -4.099579525E-01
 1.607531533E-01 -5.450250953E-02 -4.311336952E-01
 1.723980084E-01 -5.599520542E-02 -4.531999503E-01
 1.840171441E-01 -5.738526769E-02 -4.667427620E-01
 1.950949058E-01 -5.862984806E-02 -4.967691030E-01
 2.059728801E-01 -5.975962244E-02 -5.154924323E-01
 2.176778093E-01 -6.088272668E-02 -5.329551722E-01
 2.296663895E-01 -6.194161437E-02 -5.549265563E-01
 2.414787635E-01 -6.289554015E-02 -5.818660986E-01
 2.533900514E-01 -6.375685707E-02 -6.099388212E-01
 2.650436014E-01 -6.450323388E-02 -6.254645390E-01
 2.769266367E-01 -6.517019123E-02 -6.422687996E-01
 2.892413437E-01 -6.576950848E-02 -6.743430393E-01
 3.016038090E-01 -6.625444815E-02 -7.161006714E-01
 3.137276769E-01 -6.661526859E-02 -7.411674467E-01
 3.256324083E-01 -6.685980037E-02 -7.618609256E-01
 3.368411809E-01 -6.699424982E-02 -7.863873493E-01
 3.476001620E-01 -6.702066213E-02 -8.138976317E-01
 3.587271720E-01 -6.694637612E-02 -8.382599832E-01
 3.696126044E-01 -6.677227840E-02 -8.529285993E-01
 3.808376044E-01 -6.648450345E-02 -8.744005741E-01
 3.928568810E-01 -6.606082618E-02 -9.023252395E-01
 4.050114155E-01 -6.550628692E-02 -8.599664502E-01
 4.174353033E-01 -6.479934603E-02 -6.078095120E-01
 4.300165921E-01 -6.395742670E-02 -5.452113324E-01
 4.426621646E-01 -6.298783422E-02 -5.633752435E-01
 4.553851336E-01 -6.189735979E-02 -5.477863034E-01
 4.677794874E-01 -6.069623120E-02 -4.983511631E-01
 4.800486714E-01 -5.940413475E-02 -4.456066639E-01
 4.920860827E-01 -5.804206058E-02 -4.154740972E-01
 5.046562254E-01 -5.652783811E-02 -3.603404618E-01
 5.178076625E-01 -5.487377383E-02 -3.295267382E-01
 5.306319594E-01 -5.317907594E-02 -2.886745230E-01
 5.436996818E-01 -5.138551816E-02 -2.504197577E-01
 5.568522811E-01 -4.951426201E-02 -2.136094093E-01
 5.698623061E-01 -4.762344062E-02 -1.734771893E-01
 5.829519928E-01 -4.568799213E-02 -1.487894152E-01
 5.958002508E-01 -4.375013895E-02 -1.117130705E-01
 6.086048186E-01 -4.180199094E-02 -8.499242682E-02
 6.219291091E-01 -3.976623900E-02 -5.688824612E-02
 6.354556084E-01 -3.767672181E-02 -3.246332989E-02
 6.488243937E-01 -3.560570814E-02 6.082499533E-04
 6.623979211E-01 -3.352022916E-02 1.760328705E-02
 6.754903793E-01 -3.150389437E-02 3.968516196E-02
 6.879462302E-01 -2.956685983E-02 6.135063991E-02
 7.014702260E-01 -2.746702265E-02 9.138242495E-02
 7.153364718E-01 -2.534571476E-02 1.122579044E-01
 7.276058793E-01 -2.348357812E-02 1.321046285E-01
 7.398346364E-01 -2.164994646E-02 1.515461639E-01
 7.528543174E-01 -1.972343121E-02 1.707152823E-01
 7.660263777E-01 -1.779894065E-02 1.922451450E-01
 7.788545489E-01 -1.596304262E-02 2.137940989E-01
 7.915178835E-01 -1.420679502E-02 2.299628117E-01
 8.035204113E-01 -1.257553417E-02 2.457886813E-01
 8.146546483E-01 -1.108887047E-02 2.662397785E-01
 8.264224827E-01 -9.583646432E-03 2.838341008E-01
 8.387987614E-01 -8.072399301E-03 2.986733315E-01
 8.510278761E-01 -6.639984669E-03 3.172835395E-01
 8.626168966E-01 -5.352701060E-03 3.367498897E-01
 8.740612864E-01 -4.194535082E-03 3.517544604E-01
 8.864092529E-01 -3.072907566E-03 3.606884482E-01
 8.979196846E-01 -2.122321865E-03 3.764552865E-01
 9.084250927E-01 -1.380992937E-03 3.829780459E-01
 9.189875424E-01 -7.461241767E-04 3.881692964E-01
 9.292832315E-01 -2.409683329E-04 3.928621736E-01
 9.410422742E-01 1.902980039E-04 3.906922451E-01
 9.548298419E-01 5.363757373E-04 3.927349534E-01
 9.692711234E-01 7.151715399E-04 3.959934245E-01
 9.827412665E-01 7.162069669E-04 4.078672510E-01
 9.943097830E-01 5.963735457E-04 4.645620233E-01
 -5.000000000E-01 9.500000000E-01 2.293515278E-02
 -5.000000000E-01 9.000000000E-01 3.470421775E-02
 -5.000000000E-01 8.500000000E-01 4.374845301E-02
 -5.000000000E-01 8.000000000E-01 5.166318021E-02
 -5.000000000E-01 7.500000000E-01 5.926877288E-02
 -5.000000000E-01 7.000000000E-01 6.679160114E-02
 -5.000000000E-01 6.500000000E-01 7.454130229E-02
 -5.000000000E-01 6.000000000E-01 8.238537117E-02
 -5.000000000E-01 5.500000000E-01 9.050372438E-02
 -5.000000000E-01 5.000000000E-01 9.880201628E-02
 -5.000000000E-01 4.500000000E-01 1.073451367E-01
 -5.000000000E-01 4.000000000E-01 1.159434681E-01
 -5.000000000E-01 3.500000000E-01 1.245455640E-01
 -5.000000000E-01 3.000000000E-01 1.327151890E-01
 -5.000000000E-01 2.500000000E-01 1.404082435E-01
 -5.000000000E-01 2.000000000E-01 1.473043738E-01
 -5.000000000E-01 1.500000000E-01 1.532557133E-01
 -5.000000000E-01 1.000000000E-01 1.578939863E-01
 -5.000000000E-01 5.000000000E-02 1.609005450E-01
 -5.000000000E-01 2.752242878E-12 1.622499523E-01
 -5.000000000E-01 -5.000000000E-02 1.618367624E-01
 -5.000000000E-01 -1.000000000E-01 1.596343055E-01
 -5.000000000E-01 -1.500000000E-01 1.559102086E-01
 -5.000000000E-01 -2.000000000E-01 1.505209937E-01
 -5.000000000E-01 -2.500000000E-01 1.441850998E-01
 -5.000000000E-01 -3.000000000E-01 1.369366771E-01
 -5.000000000E-01 -3.500000000E-01 1.290250851E-01
 -5.000000000E-01 -4.000000000E-01 1.206301921E-01
 -5.000000000E-01 -4.500000000E-01 1.121417822E-01
 -5.000000000E-01 -5.000000000E-01 1.036342887E-01
 -5.000000000E-01 -5.500000000E-01 9.516026185E-02
 -5.000000000E-01 -6.000000000E-01 8.692790468E-02
 -5.000000000E-01 -6.500000000E-01 7.888189651E-02
 -5.000000000E-01 -7.000000000E-01 7.089038455E-02
 -5.000000000E-01 -7.500000000E-01 6.302183844E-02
 -5.000000000E-01 -8.000000000E-01 5.507029952E-02
 -5.000000000E-01 -8.500000000E-01 4.669484204E-02
 -5.000000000E-01 -9.000000000E-01 3.727366198E-02
 -5.000000000E-01 -9.500000000E-01 2.461122035E-02
 -4.500000000E-01 -1.000000000E+00 2.022839927E-02
 -4.000000000E-01 -1.000000000E+00 3.024426093E-02
 -3.500000000E-01 -1.000000000E+00 3.635057904E-02
 -3.000000000E-01 -1.000000000E+00 4.008502267E-02
 -2.500000000E-01 -1.000000000E+00 4.222226921E-02
 -2.000000000E-01 -1.000000000E+00 4.277023072E-02
 -1.500000000E-01 -1.000000000E+00 4.167003497E-02
 -1.000000000E-01 -1.000000000E+00 3.891765438E-02
 -5.000000000E-02 -1.000000000E+00 3.448106838E-02
 -9.424683256E-13 -1.000000000E+00 2.845026273E-02
 5.000000000E-02 -1.000000000E+00 2.104113564E-02
 1.000000000E-01 -1.000000000E+00 1.227250095E-02
 1.500000000E-01 -1.000000000E+00 2.513864665E-03
 2.000000000E-01 -1.000000000E+00 -7.787457305E-03
 2.500000000E-01 -1.000000000E+00 -1.828807263E-02
 3.000000000E-01 -1.000000000E+00 -2.828175555E-02
 3.500000000E-01 -1.000000000E+00 -3.756405449E-02
 4.000000000E-01 -1.000000000E+00 -4.530095252E-02
 4.500000000E-01 -1.000000000E+00 -5.157969645E-02
 5.000000000E-01 -1.000000000E+00 -5.558024432E-02
 5.500000000E-01 -1.000000000E+00 -5.777903905E-02
 6.000000000E-01 -1.000000000E+00 -5.766919778E-02
 6.500000000E-01 -1.000000000E+00 -5.552220186E-02
 7.000000000E-01 -1.000000000E+00 -5.156626140E-02
 7.500000000E-01 -1.000000000E+00 -4.624023087E-02
 8.000000000E-01 -1.000000000E+00 -3.990877516E-02
 8.500000000E-01 -1.000000000E+00 -3.265524502E-02
 9.000000000E-01 -1.000000000E+00 -2.504641186E-02
 9.500000000E-01 -1.000000000E+00 -1.766261108E-02
 1.000000000E+00 -1.000000000E+00 -1.055845105E-02
 1.050000000E+00 -1.000000000E+00 -3.787462787E-03
 1.100000000E+00 -1.000000000E+00 2.238348363E-03
 1.150000000E+00 -1.000000000E+00 7.588746067E-03
 1.200000000E+00 -1.000000000E+00 1.213892433E-02
 1.250000000E+00 -1.000000000E+00 1.602418072E-02
 1.300000000E+00 -1.000000000E+00 1.916214305E-02
 1.350000000E+00 -1.000000000E+00 2.161436652E-02
 1.400000000E+00 -1.000000000E+00 2.365043225E-02
 1.450000000E+00 -1.000000000E+00 2.503818110E-02
 1.500000000E+00 -1.000000000E+00 2.607206326E-02
 1.550000000E+00 -1.000000000E+00 2.669668996E-02
 1.600000000E+00 -1.000000000E+00 2.703783477E-02
 1.650000000E+00 -1.000000000E+00 2.713144526E-02
 1.700000000E+00 -1.000000000E+00 2.702004769E-02
 1.750000000E+00 -1.000000000E+00 2.674955495E-02
 1.800000000E+00 -1.000000000E+00 2.635063000E-02
 1.850000000E+00 -1.000000000E+00 2.585092790E-02
 1.900000000E+00 -1.000000000E+00 2.524856499E-02
 1.950000000E+00 -1.000000000E+00 2.472514500E-02
 2.000000000E+00 -1.000000000E+00 2.392414936E-02
 2.050000000E+00 -1.000000000E+00 2.339304230E-02
 2.100000000E+00 -1.000000000E+00 2.264051103E-02
 2.150000000E+00 -1.000000000E+00 2.197291024E-02
 2.200000000E+00 -1.000000000E+00 2.134216514E-02
 2.250000000E+00 -1.000000000E+00 2.068852261E-02
 2.300000000E+00 -1.000000000E+00 2.005571352E-02
 2.350000000E+00 -1.000000000E+00 1.950603403E-02
 2.400000000E+00 -1.000000000E+00 1.892453444E-02
 2.450000000E+00 -1.000000000E+00 1.840353322E-02
 2.500000000E+00 -1.000000000E+00 1.789294750E-02
 2.550000000E+00 -1.000000000E+00 1.745686186E-02
 2.600000000E+00 -1.000000000E+00 1.704112489E-02
 2.650000000E+00 -1.000000000E+00 1.665962348E-02
 2.700000000E+00 -1.000000000E+00 1.631139170E-02
 2.750000000E+00 -1.000000000E+00 1.603420774E-02
 2.800000000E+00 -1.000000000E+00 1.576151869E-02
 2.850000000E+00 -1.000000000E+00 1.551149352E-02
 2.900000000E+00 -1.000000000E+00 1.532949996E-02
 2.950000000E+00 -1.000000000E+00 1.516002769E-02
 3.000000000E+00 -1.000000000E+00 1.500427141E-02
 3.050000000E+00 -1.000000000E+00 1.489501077E-02
 3.100000000E+00 -1.000000000E+00 1.472735570E-02
 3.150000000E+00 -1.000000000E+00 1.463693244E-02
 3.200000000E+00 -1.000000000E+00 1.441775520E-02
 3.250000000E+00 -1.000000000E+00 1.416255929E-02
 3.300000000E+00 -1.000000000E+00 1.379532986E-02
 3.350000000E+00 -1.000000000E+00 1.317596803E-02
 3.400000000E+00 -1.000000000E+00 1.192852003E-02
 3.450000000E+00 -1.000000000E+00 8.919827994E-03
 3.500000000E+00 -9.500000000E-01 2.912562265E-03
 3.500000000E+00 -9.000000000E-01 5.358535024E-03
 3.500000000E+00 -8.500000000E-01 7.581402753E-03
 3.500000000E+00 -8.000000000E-01 9.493942602E-03
 3.500000000E+00 -7.500000000E-01 1.086994198E-02
 3.500000000E+00 -7.000000000E-01 1.205236902E-02
 3.500000000E+00 -6.500000000E-01 1.324455717E-02
 3.500000000E+00 -6.000000000E-01 1.455493087E-02
 3.500000000E+00 -5.500000000E-01 1.596940925E-02
 3.500000000E+00 -5.000000000E-01 1.741837639E-02
 3.500000000E+00 -4.500000000E-01 1.895020947E-02
 3.500000000E+00 -4.000000000E-01 2.043565854E-02
 3.500000000E+00 -3.500000000E-01 2.196027678E-02
 3.500000000E+00 -3.000000000E-01 2.327093166E-02
 3.500000000E+00 -2.500000000E-01 2.439436315E-02
 3.500000000E+00 -2.000000000E-01 2.505880557E-02
 3.500000000E+00 -1.500000000E-01 2.516459568E-02
 3.500000000E+00 -1.000000000E-01 2.495950075E-02
 3.500000000E+00 -5.000000000E-02 2.471633292E-02
 3.500000000E+00 -2.752242878E-12 2.477471102E-02
 3.500000000E+00 5.000000000E-02 2.501097456E-02
 3.500000000E+00 1.000000000E-01 2.500973457E-02
 3.500000000E+00 1.500000000E-01 2.452517586E-02
 3.500000000E+00 2.000000000E-01 2.353453498E-02
 3.500000000E+00 2.500000000E-01 2.221111897E-02
 3.500000000E+00 3.000000000E-01 2.064181551E-02
 3.500000000E+00 3.500000000E-01 1.914173832E-02
 3.500000000E+00 4.000000000E-01 1.771745677E-02
 3.500000000E+00 4.500000000E-01 1.617251806E-02
 3.500000000E+00 5.000000000E-01 1.469355540E-02
 3.500000000E+00 5.500000000E-01 1.329939831E-02
 3.500000000E+00 6.000000000E-01 1.222956156E-02
 3.500000000E+00 6.500000000E-01 1.163671130E-02
 3.500000000E+00 7.000000000E-01 1.110906204E-02
 3.500000000E+00 7.500000000E-01 9.499348435E-03
 3.500000000E+00 8.000000000E-01 5.273278793E-03
 3.500000000E+00 8.500000000E-01 -1.762493949E-03
 3.500000000E+00 9.000000000E-01 -1.114761483E-02
 3.500000000E+00 9.500000000E-01 -2.247054771E-02
 3.450000000E+00 1.000000000E+00 -8.658136914E-03
 3.400000000E+00 1.000000000E+00 -1.228514074E-03
 3.350000000E+00 1.000000000E+00 1.083246048E-03
 3.300000000E+00 1.000000000E+00 1.272345928E-03
 3.250000000E+00 1.000000000E+00 1.185992218E-03
 3.200000000E+00 1.000000000E+00 6.830144030E-04
 3.150000000E+00 1.000000000E+00 1.100946430E-04
 3.100000000E+00 1.000000000E+00 -6.076431149E-04
 3.050000000E+00 1.000000000E+00 -1.388144889E-03
 3.000000000E+00 1.000000000E+00 -2.143276010E-03
 2.950000000E+00 1.000000000E+00 -3.005666048E-03
 2.900000000E+00 1.000000000E+00 -3.929188558E-03
 2.850000000E+00 1.000000000E+00 -4.670373130E-03
 2.800000000E+00 1.000000000E+00 -5.662397550E-03
 2.750000000E+00 1.000000000E+00 -6.732319281E-03
 2.700000000E+00 1.000000000E+00 -7.620786842E-03
 2.650000000E+00 1.000000000E+00 -8.740403859E-03
 2.600000000E+00 1.000000000E+00 -9.633005994E-03
 2.550000000E+00 1.000000000E+00 -1.077275117E-02
 2.500000000E+00 1.000000000E+00 -1.188194309E-02
 2.450000000E+00 1.000000000E+00 -1.304490834E-02
 2.400000000E+00 1.000000000E+00 -1.454608483E-02
 2.350000000E+00 1.000000000E+00 -1.544112322E-02
 2.300000000E+00 1.000000000E+00 -1.705313085E-02
 2.250000000E+00 1.000000000E+00 -1.838690511E-02
 2.200000000E+00 1.000000000E+00 -1.992151542E-02
 2.150000000E+00 1.000000000E+00 -2.168233530E-02
 2.100000000E+00 1.000000000E+00 -2.331174195E-02
 2.050000000E+00 1.000000000E+00 -2.519490148E-02
 2.000000000E+00 1.000000000E+00 -2.718634700E-02
 1.950000000E+00 1.000000000E+00 -2.925961913E-02
 1.900000000E+00 1.000000000E+00 -3.174910988E-02
 1.850000000E+00 1.000000000E+00 -3.426859375E-02
 1.800000000E+00 1.000000000E+00 -3.702379159E-02
 1.750000000E+00 1.000000000E+00 -4.005519639E-02
 1.700000000E+00 1.000000000E+00 -4.323620890E-02
 1.650000000E+00 1.000000000E+00 -4.676071178E-02
 1.600000000E+00 1.000000000E+00 -5.062619748E-02
 1.550000000E+00 1.000000000E+00 -5.491568559E-02
 1.500000000E+00 1.000000000E+00 -5.941010590E-02
 1.450000000E+00 1.000000000E+00 -6.517301351E-02
 1.400000000E+00 1.000000000E+00 -6.986178660E-02
 1.350000000E+00 1.000000000E+00 -7.617382314E-02
 1.300000000E+00 1.000000000E+00 -8.248386671E-02
 1.250000000E+00 1.000000000E+00 -8.891261596E-02
 1.200000000E+00 1.000000000E+00 -9.599973087E-02
 1.150000000E+00 1.000000000E+00 -1.025343913E-01
 1.100000000E+00 1.000000000E+00 -1.097941198E-01
 1.050000000E+00 1.000000000E+00 -1.154627253E-01
 1.000000000E+00 1.000000000E+00 -1.219170777E-01
 9.500000000E-01 1.000000000E+00 -1.265422884E-01
 9.000000000E-01 1.000000000E+00 -1.305428487E-01
 8.500000000E-01 1.000000000E+00 -1.322472998E-01
 8.000000000E-01 1.000000000E+00 -1.333280616E-01
 7.500000000E-01 1.000000000E+00 -1.316100390E-01
 7.000000000E-01 1.000000000E+00 -1.279784606E-01
 6.500000000E-01 1.000000000E+00 -1.225781984E-01
 6.000000000E-01 1.000000000E+00 -1.151172630E-01
 5.500000000E-01 1.000000000E+00 -1.056455432E-01
 5.000000000E-01 1.000000000E+00 -9.526022552E-02
 4.500000000E-01 1.000000000E+00 -8.273826014E-02
 4.000000000E-01 1.000000000E+00 -7.036736996E-02
 3.500000000E-01 1.000000000E+00 -5.636275790E-02
 3.000000000E-01 1.000000000E+00 -4.334262819E-02
 2.500000000E-01 1.000000000E+00 -2.991120029E-02
 2.000000000E-01 1.000000000E+00 -1.695775693E-02
 1.500000000E-01 1.000000000E+00 -5.180599818E-03
 1.000000000E-01 1.000000000E+00 5.733823994E-03
 5.000000000E-02 1.000000000E+00 1.544102306E-02
 1.733724275E-12 1.000000000E+00 2.356490789E-02
 -5.000000000E-02 1.000000000E+00 2.999201881E-02
 -1.000000000E-01 1.000000000E+00 3.476072220E-02
 -1.500000000E-01 1.000000000E+00 3.777834998E-02
 -2.000000000E-01 1.000000000E+00 3.923077770E-02
 -2.500000000E-01 1.000000000E+00 3.895732551E-02
 -3.000000000E-01 1.000000000E+00 3.711263773E-02
 -3.500000000E-01 1.000000000E+00 3.375437920E-02
 -4.000000000E-01 1.000000000E+00 2.807808728E-02
 -4.500000000E-01 1.000000000E+00 1.894970141E-02
 8.716051348E-01 -1.059564280E-02 3.404450804E-01
 7.953935201E-01 -1.923320754E-02 2.311768626E-01
 7.258055511E-01 -2.857831239E-02 1.269045522E-01
 9.666059316E-01 -6.388926608E-03 3.858696677E-01
 6.600157668E-01 -3.932478630E-02 1.256358696E-02
 5.868790549E-01 -5.070165990E-02 -1.355039406E-01
 5.217983700E-01 -6.000576136E-02 -3.128038507E-01
 4.645020259E-01 -6.624955288E-02 -5.041720227E-01
 4.082609958E-01 -7.051713163E-02 -7.953190408E-01