TITLE     = "Visualization of the solution"
VARIABLES = "x"
"y"
"Pressure_Coefficient"
ZONE T="Zone"
 STRANDID=0, SOLUTIONTIME=0
 Nodes=12312, Elements=24041, ZONETYPE=FEQuadrilateral
 DATAPACKING=POINT
 DT=(DOUBLE DOUBLE DOUBLE )
 9.998263717E-01 5.097869434E-04 3.485340715E-01
 9.890523553E-01 2.688652370E-03 3.047442119E-01
 9.767624140E-01 5.232316442E-03 2.122238032E-01
 9.596059322E-01 8.722986095E-03 1.521431258E-01
 9.444735050E-01 1.189113967E-02 8.419049846E-02
 9.283283949E-01 1.517001260E-02 4.363761300E-02
 9.163765311E-01 1.761078089E-02 5.523068514E-03
 9.050728679E-01 1.991255023E-02 -3.350432657E-02
 8.933212757E-01 2.226473764E-02 -6.903251607E-02
 8.821710944E-01 2.445715666E-02 -1.023366586E-01
 8.702389002E-01 2.673714794E-02 -1.282630225E-01
 8.578824401E-01 2.906908840E-02 -1.660020842E-01
 8.455247283E-01 3.129047528E-02 -1.755335159E-01
 8.353944421E-01 3.312769532E-02 -2.090430016E-01
 8.237658143E-01 3.516970202E-02 -2.345128900E-01
 8.112466931E-01 3.729820997E-02 -2.535092241E-01
 7.987505794E-01 3.935268521E-02 -2.630633897E-01
 7.856896520E-01 4.150916636E-02 -2.979788673E-01
 7.731654048E-01 4.350122809E-02 -3.181018207E-01
 7.614453435E-01 4.534564912E-02 -3.508253505E-01
 7.477709651E-01 4.740414396E-02 -3.665501954E-01
 7.338393927E-01 4.943056777E-02 -3.841195258E-01
 7.231823802E-01 5.099291354E-02 -4.290098942E-01
 7.118370533E-01 5.252938718E-02 -4.223941367E-01
 7.000929117E-01 5.411542207E-02 -4.429874884E-01
 6.870447397E-01 5.583600327E-02 -4.740659543E-01
 6.741333008E-01 5.747993290E-02 -5.107338187E-01
 6.638733745E-01 5.871540308E-02 -5.160806420E-01
 6.520864367E-01 6.007469445E-02 -5.331243021E-01
 6.397877336E-01 6.144724041E-02 -5.073202364E-01
 6.278280020E-01 6.266134232E-02 -4.288925726E-01
 6.161332726E-01 6.383960694E-02 -7.631108975E-01
 6.054417491E-01 6.484420598E-02 -9.875308618E-01
 5.931701660E-01 6.591612846E-02 -9.399661093E-01
 5.819913149E-01 6.681636721E-02 -9.231623520E-01
 5.690302849E-01 6.778801978E-02 -9.143209351E-01
 5.570480227E-01 6.857524812E-02 -8.997211942E-01
 5.454813838E-01 6.929920614E-02 -8.966775563E-01
 5.348469019E-01 6.988897920E-02 -8.716320919E-01
 5.237768292E-01 7.042662799E-02 -8.539952389E-01
 5.121662021E-01 7.092501223E-02 -8.464988483E-01
 5.011991262E-01 7.134019583E-02 -8.278853800E-01
 4.882409275E-01 7.173064351E-02 -7.967928428E-01
 4.747342765E-01 7.202062011E-02 -7.887858784E-01
 4.618251920E-01 7.227169722E-02 -7.797155123E-01
 4.492357373E-01 7.238600403E-02 -7.480532632E-01
 4.372687936E-01 7.246425748E-02 -7.464807324E-01
 4.250044823E-01 7.246078551E-02 -7.123023648E-01
 4.128403068E-01 7.236065716E-02 -6.922479978E-01
 4.012712836E-01 7.224639505E-02 -6.978774552E-01
 3.889935315E-01 7.203026116E-02 -6.795903181E-01
 3.771022856E-01 7.177227736E-02 -6.690968945E-01
 3.645491898E-01 7.142337412E-02 -6.469372528E-01
 3.518662155E-01 7.099012285E-02 -6.301657368E-01
 3.388448954E-01 7.049483806E-02 -6.280129317E-01
 3.273641169E-01 6.997560710E-02 -6.095583167E-01
 3.145467043E-01 6.933907419E-02 -5.968672908E-01
 3.013522327E-01 6.858757883E-02 -5.766952502E-01
 2.873353958E-01 6.771785021E-02 -5.703459141E-01
 2.752971351E-01 6.688001007E-02 -5.523383768E-01
 2.634267807E-01 6.598729640E-02 -5.347619916E-01
 2.508068085E-01 6.495955586E-02 -5.200014870E-01
 2.383992076E-01 6.387995929E-02 -5.136181899E-01
 2.260246873E-01 6.270895898E-02 -4.995103903E-01
 2.137886137E-01 6.145134196E-02 -4.759577245E-01
 2.013701349E-01 6.008695066E-02 -4.574065355E-01
 1.887488961E-01 5.861375108E-02 -4.464710236E-01
 1.766973138E-01 5.709668249E-02 -4.290431160E-01
 1.651186198E-01 5.553362891E-02 -4.057126024E-01
 1.530231684E-01 5.379738659E-02 -3.897633052E-01
 1.419140846E-01 5.208954215E-02 -3.648591212E-01
 1.297273636E-01 5.008370057E-02 -3.388726725E-01
 1.183029637E-01 4.808655381E-02 -3.205081296E-01
 1.075185165E-01 4.605098814E-02 -2.903759049E-01
 9.721526504E-02 4.399132729E-02 -2.660154178E-01
 8.595678955E-02 4.155819491E-02 -2.302488001E-01
 7.452766597E-02 3.889104724E-02 -1.966017863E-01
 6.461714953E-02 3.637067229E-02 -1.552069827E-01
 5.467948690E-02 3.362764791E-02 -1.071721034E-01
 4.641344026E-02 3.113136813E-02 -6.273522992E-02
 3.918798640E-02 2.875729837E-02 -1.420908119E-02
 3.267952427E-02 2.643386275E-02 3.882337081E-02
 2.710518427E-02 2.425437048E-02 8.628606239E-02
 2.306936495E-02 2.255038172E-02 1.354328041E-01
 1.927326992E-02 2.081682347E-02 1.879902050E-01
 1.593315788E-02 1.915679686E-02 2.495144660E-01
 1.281952485E-02 1.747264341E-02 3.095849357E-01
 1.054495201E-02 1.612609439E-02 3.661752104E-01
 8.575134911E-03 1.486562658E-02 4.142003786E-01
 6.767795421E-03 1.359651238E-02 5.020118014E-01
 4.385536537E-03 1.170173660E-02 6.146785686E-01
 2.360042185E-03 9.769534692E-03 7.218554811E-01
 7.337872521E-04 7.815271616E-03 9.360249770E-01
 -8.471253677E-04 4.952556454E-03 1.129042916E+00
 -1.391686965E-03 2.834397135E-03 1.200582159E+00
 -1.439434709E-03 1.186861540E-03 1.148790821E+00
 -1.166736940E-03 -3.876226838E-04 1.060255471E+00
 -6.642769440E-04 -1.789329341E-03 8.923352072E-01
 3.162001958E-04 -3.537698882E-03 7.286379339E-01
 1.659345347E-03 -5.239137914E-03 5.214250167E-01
 3.447964322E-03 -6.984614767E-03 3.740703121E-01
 5.106628407E-03 -8.318437263E-03 2.332849159E-01
 7.001823746E-03 -9.632133879E-03 1.494303635E-01
 8.633043617E-03 -1.063704118E-02 7.495827349E-02
 1.069116034E-02 -1.178473793E-02 2.800325835E-02
 1.291830372E-02 -1.290631015E-02 -2.233628454E-02
 1.609799080E-02 -1.434288546E-02 -6.058754661E-02
 1.878773607E-02 -1.544775907E-02 -1.096389767E-01
 2.231514454E-02 -1.676777564E-02 -1.319206032E-01
 2.736814320E-02 -1.847233810E-02 -1.524976514E-01
 3.278428316E-02 -2.010901645E-02 -1.814049880E-01
 3.932110593E-02 -2.188733406E-02 -1.973874639E-01
 4.674768075E-02 -2.370878123E-02 -2.078056786E-01
 5.561697856E-02 -2.568171360E-02 -2.172068404E-01
 6.422474980E-02 -2.743500285E-02 -2.292695053E-01
 7.399184257E-02 -2.926404402E-02 -2.377485146E-01
 8.422151953E-02 -3.103902377E-02 -2.472524642E-01
 9.421488643E-02 -3.266173229E-02 -2.569978085E-01
 1.056416631E-01 -3.439478576E-02 -2.641524510E-01
 1.168191731E-01 -3.598995879E-02 -2.764248126E-01
 1.288550794E-01 -3.760100901E-02 -2.852184905E-01
 1.402309835E-01 -3.904316202E-02 -2.990178321E-01
 1.518010795E-01 -4.043157771E-02 -3.115150694E-01
 1.647263169E-01 -4.189448431E-02 -3.250312768E-01
 1.767963618E-01 -4.318320379E-02 -3.411461995E-01
 1.892790943E-01 -4.443775117E-02 -3.564154975E-01
 2.005909830E-01 -4.550248757E-02 -3.683533583E-01
 2.125844508E-01 -4.657538608E-02 -3.863162659E-01
 2.254876047E-01 -4.764952138E-02 -4.043940087E-01
 2.386566252E-01 -4.866066948E-02 -4.228783812E-01
 2.514969707E-01 -4.956185818E-02 -4.405403776E-01
 2.641863227E-01 -5.038092285E-02 -4.656854142E-01
 2.757609487E-01 -5.103906244E-02 -4.824311427E-01
 2.885041237E-01 -5.168602616E-02 -4.999233600E-01
 3.012378514E-01 -5.223632231E-02 -5.194651184E-01
 3.142345548E-01 -5.269839615E-02 -5.368918869E-01
 3.266881704E-01 -5.305555090E-02 -5.668282225E-01
 3.395517170E-01 -5.329220742E-02 -5.787459036E-01
 3.508074582E-01 -5.340517685E-02 -5.861833583E-01
 3.623583615E-01 -5.343881249E-02 -6.014603626E-01
 3.732425272E-01 -5.335824937E-02 -6.003095279E-01
 3.844335079E-01 -5.319314450E-02 -5.942423998E-01
 3.962257802E-01 -5.292049795E-02 -6.004665928E-01
 4.094993472E-01 -5.244304240E-02 -5.695058453E-01
 4.221743941E-01 -5.187406391E-02 -5.492629680E-01
 4.344920516E-01 -5.117615312E-02 -5.195126544E-01
 4.466983676E-01 -5.036459863E-02 -4.793879976E-01
 4.576905370E-01 -4.955080524E-02 -4.561986039E-01
 4.688016474E-01 -4.863062501E-02 -4.261165160E-01
 4.806862772E-01 -4.753520340E-02 -3.820926104E-01
 4.916132092E-01 -4.645207897E-02 -3.465311146E-01
 5.043298006E-01 -4.511162266E-02 -3.081972225E-01
 5.176995993E-01 -4.360231757E-02 -2.648867292E-01
 5.304381251E-01 -4.209768027E-02 -2.273805152E-01
 5.437076688E-01 -4.046926275E-02 -1.907024614E-01
 5.553341508E-01 -3.900650516E-02 -1.637721015E-01
 5.688769817E-01 -3.723543137E-02 -1.246322941E-01
 5.812796354E-01 -3.558996692E-02 -9.521785141E-02
 5.930109024E-01 -3.400591761E-02 -6.465806958E-02
 6.057909727E-01 -3.229049966E-02 -4.366322742E-02
 6.205016971E-01 -3.026780486E-02 -9.071459842E-03
 6.348242164E-01 -2.830413729E-02 1.842617103E-02
 6.503575444E-01 -2.618693188E-02 4.202449830E-02
 6.625775695E-01 -2.449101582E-02 7.221967457E-02
 6.754888892E-01 -2.275090851E-02 8.785906402E-02
 6.877005696E-01 -2.109872922E-02 1.111373388E-01
 7.000035048E-01 -1.947303116E-02 1.253457943E-01
 7.137516737E-01 -1.764877141E-02 1.497617379E-01
 7.265117764E-01 -1.598658413E-02 1.700095745E-01
 7.388914824E-01 -1.441251859E-02 1.871987334E-01
 7.531867623E-01 -1.265755482E-02 1.985277345E-01
 7.644207478E-01 -1.123900525E-02 2.286635104E-01
 7.779979706E-01 -9.640273638E-03 2.398452836E-01
 7.894229293E-01 -8.327157237E-03 2.567883373E-01
 8.021526337E-01 -6.903771777E-03 2.765279722E-01
 8.131497502E-01 -5.745140370E-03 2.897154899E-01
 8.251258135E-01 -4.554460756E-03 3.009780431E-01
 8.382228613E-01 -3.293874208E-03 3.223233561E-01
 8.510110378E-01 -2.188725164E-03 3.335878132E-01
 8.631896377E-01 -1.215671422E-03 3.497454523E-01
 8.747439384E-01 -4.103813844E-04 3.591055116E-01
 8.863404989E-01 3.016564588E-04 3.702786134E-01
 8.997704983E-01 9.611273417E-04 3.750563393E-01
 9.099776149E-01 1.363554038E-03 3.830482249E-01
 9.209094048E-01 1.673653955E-03 3.837358398E-01
 9.308832288E-01 1.852295361E-03 3.839172445E-01
 9.394808412E-01 1.932322863E-03 3.857647393E-01
 9.508919120E-01 1.930073136E-03 3.822453209E-01
 9.627591372E-01 1.801639912E-03 3.796533160E-01
 9.760214686E-01 1.509924186E-03 3.782163658E-01
 9.880067110E-01 1.109717297E-03 3.864881892E-01
 -5.000000000E-01 -1.000000000E+00 1.558788276E-02
 3.500000000E+00 -1.000000000E+00 8.068510767E-03
 3.500000000E+00 1.000000000E+00 -3.442658057E-02
 -5.000000000E-01 1.000000000E+00 1.460225150E-02
 9.944393635E-01 1.599219657E-03 3.881300063E-01
 9.829073846E-01 3.960484406E-03 2.522255157E-01
 9.681841731E-01 6.977651268E-03 1.809042602E-01
 9.520397186E-01 1.030706288E-02 1.137232201E-01
 9.364009500E-01 1.353057614E-02 6.358391877E-02
 9.223524630E-01 1.639039675E-02 2.415735915E-02
 9.107246995E-01 1.876166556E-02 -1.505988013E-02
 8.991970718E-01 2.108864393E-02 -5.146030547E-02
 8.877461851E-01 2.336094715E-02 -8.768405574E-02
 8.762049973E-01 2.559715230E-02 -1.129515486E-01
 8.640606701E-01 2.790311817E-02 -1.516672670E-01
 8.517035842E-01 3.017978184E-02 -1.663949073E-01
 8.404595852E-01 3.220908530E-02 -1.944130019E-01
 8.295801282E-01 3.414869867E-02 -2.224813103E-01
 8.175062537E-01 3.623395599E-02 -2.463853289E-01
 8.049986362E-01 3.832544759E-02 -2.536444959E-01
 7.922201157E-01 4.043092579E-02 -2.835961432E-01
 7.794275284E-01 4.250519723E-02 -3.055037084E-01
 7.673053741E-01 4.442343861E-02 -3.371639702E-01
 7.546081543E-01 4.637489654E-02 -3.611883068E-01
 7.408051789E-01 4.841735587E-02 -3.671592868E-01
 7.285108864E-01 5.021174066E-02 -4.172195808E-01
 7.175097167E-01 5.176115036E-02 -4.215131072E-01
 7.059649825E-01 5.332240462E-02 -4.319058965E-01
 6.935688257E-01 5.497571267E-02 -4.573759682E-01
 6.805890203E-01 5.665796809E-02 -4.948152696E-01
 6.690033376E-01 5.809766799E-02 -5.152978185E-01
 6.579799056E-01 5.939504877E-02 -5.207143216E-01
 6.459370852E-01 6.076096743E-02 -5.394835823E-01
 6.338078678E-01 6.205429137E-02 -4.451510890E-01
 6.219806373E-01 6.325047463E-02 -5.328893760E-01
 6.107875109E-01 6.434190646E-02 -9.439258941E-01
 5.993059576E-01 6.538016722E-02 -9.667730639E-01
 5.875807405E-01 6.636624783E-02 -9.257366758E-01
 5.755107999E-01 6.730219349E-02 -9.239900723E-01
 5.630391538E-01 6.818163395E-02 -9.000963078E-01
 5.512647033E-01 6.893722713E-02 -9.028041445E-01
 5.401641428E-01 6.959409267E-02 -8.841878195E-01
 5.293118656E-01 7.015780360E-02 -8.610874963E-01
 5.179715157E-01 7.067582011E-02 -8.492934678E-01
 5.066826642E-01 7.113260403E-02 -8.412318262E-01
 4.947200269E-01 7.153541967E-02 -8.138075719E-01
 4.814876020E-01 7.187563181E-02 -7.839239231E-01
 4.682797343E-01 7.214615867E-02 -7.956246723E-01
 4.555304646E-01 7.232885063E-02 -7.546655294E-01
 4.432522655E-01 7.242513075E-02 -7.509630051E-01
 4.311366379E-01 7.246252149E-02 -7.339047816E-01
 4.189223945E-01 7.241072133E-02 -6.922206403E-01
 4.070557952E-01 7.230352610E-02 -7.017242830E-01
 3.951324075E-01 7.213832811E-02 -6.860791930E-01
 3.830479085E-01 7.190126926E-02 -6.762773761E-01
 3.708257377E-01 7.159782574E-02 -6.594828732E-01
 3.582077026E-01 7.120674849E-02 -6.342002120E-01
 3.453555554E-01 7.074248046E-02 -6.319788471E-01
 3.331045061E-01 7.023522258E-02 -6.171423572E-01
 3.209554106E-01 6.965734065E-02 -6.059370297E-01
 3.079494685E-01 6.896332651E-02 -5.845052292E-01
 2.943438143E-01 6.815271452E-02 -5.746133491E-01
 2.813162655E-01 6.729893014E-02 -5.606043046E-01
 2.693619579E-01 6.643365324E-02 -5.446501041E-01
 2.571167946E-01 6.547342613E-02 -5.254231774E-01
 2.446030080E-01 6.441975757E-02 -5.177044358E-01
 2.322119474E-01 6.329445913E-02 -5.080277759E-01
 2.199066505E-01 6.208015047E-02 -4.878506763E-01
 2.075793743E-01 6.076914631E-02 -4.652673485E-01
 1.950595155E-01 5.935035087E-02 -4.529129293E-01
 1.827231050E-01 5.785521679E-02 -4.381423399E-01
 1.709079668E-01 5.631515570E-02 -4.174337967E-01
 1.590708941E-01 5.466550775E-02 -3.972142068E-01
 1.474686265E-01 5.294346437E-02 -3.798990904E-01
 1.358207241E-01 5.108662136E-02 -3.496575982E-01
 1.240151636E-01 4.908512719E-02 -3.318909713E-01
 1.129107401E-01 4.706877097E-02 -3.032372007E-01
 1.023668908E-01 4.502115771E-02 -2.817503459E-01
 9.158602729E-02 4.277476110E-02 -2.494325581E-01
 8.024222776E-02 4.022462107E-02 -2.125738014E-01
 6.957240775E-02 3.763085976E-02 -1.760341523E-01
 5.964831822E-02 3.499916010E-02 -1.383964636E-01
 7.910668105E-02 -3.015153389E-02 -2.452821556E-01
 8.921820298E-02 -3.185037803E-02 -2.520872909E-01
 9.992827475E-02 -3.352825902E-02 -2.598848059E-01
 1.112304181E-01 -3.519237228E-02 -2.706378158E-01
 1.228371263E-01 -3.679548390E-02 -2.806850814E-01
 1.345430315E-01 -3.832208551E-02 -2.923771913E-01
 1.460160315E-01 -3.973736987E-02 -3.052086985E-01
 1.582636982E-01 -4.116303101E-02 -3.174565853E-01
 1.707613394E-01 -4.253884405E-02 -3.336161471E-01
 1.830377281E-01 -4.381047748E-02 -3.485409779E-01
 1.949350387E-01 -4.497011937E-02 -3.637756355E-01
 2.065877169E-01 -4.603893682E-02 -3.753159298E-01
 2.190360278E-01 -4.711245373E-02 -3.952580523E-01
 2.320721149E-01 -4.815509543E-02 -4.134897478E-01
 2.450767979E-01 -4.911126383E-02 -4.322621506E-01
 2.578416467E-01 -4.997139052E-02 -4.515960197E-01
 2.699736357E-01 -5.070999265E-02 -4.767737125E-01
 2.821325362E-01 -5.136254430E-02 -4.887113705E-01
 2.948709875E-01 -5.196117423E-02 -5.106128379E-01
 3.077362031E-01 -5.246735923E-02 -5.276536033E-01
 3.204613626E-01 -5.287697352E-02 -5.503719853E-01
 3.331199437E-01 -5.317387916E-02 -5.761650457E-01
 3.451795876E-01 -5.334869213E-02 -5.831071880E-01
 3.565829098E-01 -5.342199467E-02 -5.916811817E-01
 3.678004444E-01 -5.339853093E-02 -6.062840578E-01
 3.788380176E-01 -5.327569693E-02 -5.942665301E-01
 3.903296441E-01 -5.305682123E-02 -5.967001524E-01
 4.028625637E-01 -5.268177018E-02 -5.897546967E-01
 4.158368707E-01 -5.215855315E-02 -5.560095205E-01
 4.283332229E-01 -5.152510852E-02 -5.382351197E-01
 4.405952096E-01 -5.077037588E-02 -4.991382706E-01
 4.521944523E-01 -4.995770194E-02 -4.666233764E-01
 4.632460922E-01 -4.909071513E-02 -4.429691636E-01
 4.747439623E-01 -4.808291420E-02 -4.048207133E-01
 4.861497432E-01 -4.699364118E-02 -3.642247284E-01
 4.979715049E-01 -4.578185081E-02 -3.268881320E-01
 5.110146999E-01 -4.435697012E-02 -2.873969031E-01
 5.240688622E-01 -4.284999892E-02 -2.458364317E-01
 5.370728970E-01 -4.128347151E-02 -2.086638712E-01
 5.495209098E-01 -3.973788396E-02 -1.768911286E-01
 5.621055663E-01 -3.812096827E-02 -1.453388634E-01
 5.750783086E-01 -3.641269915E-02 -1.090777436E-01
 5.871452689E-01 -3.479794227E-02 -8.056577228E-02
 5.994009376E-01 -3.314820863E-02 -5.285459182E-02
 6.131463349E-01 -3.127915226E-02 -2.800119146E-02
 6.276629567E-01 -2.928597108E-02 5.526168623E-03
 6.425908804E-01 -2.724553458E-02 3.078745423E-02
 6.564675570E-01 -2.533897385E-02 5.562252411E-02
 6.690332294E-01 -2.362096217E-02 8.195353079E-02
 6.815947294E-01 -2.192481887E-02 9.836176977E-02
 6.938520372E-01 -2.028588019E-02 1.193325393E-01
 7.068775892E-01 -1.856090128E-02 1.360643730E-01
 7.201317251E-01 -1.681767777E-02 1.602537051E-01
 7.327016294E-01 -1.519955136E-02 1.790893457E-01
 7.460391223E-01 -1.353503671E-02 1.935136292E-01
 7.588037550E-01 -1.194828004E-02 2.102383514E-01
 7.712093592E-01 -1.043963945E-02 2.356054859E-01
 7.837104499E-01 -8.983715437E-03 2.485221821E-01
 7.957877815E-01 -7.615464507E-03 2.653473970E-01
 8.076511919E-01 -6.324456073E-03 2.844552804E-01
 8.191377819E-01 -5.149800563E-03 2.952500151E-01
 8.316743374E-01 -3.924167482E-03 3.095724707E-01
 8.446169496E-01 -2.741299686E-03 3.290990268E-01
 8.571003377E-01 -1.702198293E-03 3.412006709E-01
 8.689667881E-01 -8.130264032E-04 3.552439404E-01
 8.805422187E-01 -5.436246283E-05 3.640572678E-01
 8.930554986E-01 6.313919002E-04 3.722945396E-01
 9.048740566E-01 1.162340690E-03 3.805882830E-01
 9.154435098E-01 1.518603996E-03 3.835157254E-01
 9.451863766E-01 1.931198000E-03 3.828920041E-01
 9.568255246E-01 1.865856524E-03 3.806332699E-01
 9.693903029E-01 1.655782049E-03 3.775090932E-01
 9.820140898E-01 1.309820742E-03 3.789036836E-01
 9.939165413E-01 8.097521204E-04 4.056952659E-01
 -5.000000000E-01 9.500000000E-01 2.386548799E-02
 -5.000000000E-01 9.000000000E-01 3.601900692E-02
 -5.000000000E-01 8.500000000E-01 4.550039699E-02
 -5.000000000E-01 8.000000000E-01 5.368225536E-02
 -5.000000000E-01 7.500000000E-01 6.167449742E-02
 -5.000000000E-01 7.000000000E-01 6.943164019E-02
 -5.000000000E-01 6.500000000E-01 7.738008287E-02
 -5.000000000E-01 6.000000000E-01 8.560369514E-02
 -5.000000000E-01 5.500000000E-01 9.388862762E-02
 -5.000000000E-01 5.000000000E-01 1.025447431E-01
 -5.000000000E-01 4.500000000E-01 1.111108942E-01
 -5.000000000E-01 4.000000000E-01 1.197777380E-01
 -5.000000000E-01 3.500000000E-01 1.283616290E-01
 -5.000000000E-01 3.000000000E-01 1.364651280E-01
 -5.000000000E-01 2.500000000E-01 1.440376860E-01
 -5.000000000E-01 2.000000000E-01 1.506572678E-01
 -5.000000000E-01 1.500000000E-01 1.561830457E-01
 -5.000000000E-01 1.000000000E-01 1.601853531E-01
 -5.000000000E-01 5.000000000E-02 1.626134105E-01
 -5.000000000E-01 2.752242878E-12 1.635398273E-01
 -5.000000000E-01 -5.000000000E-02 1.625745424E-01
 -5.000000000E-01 -1.000000000E-01 1.599671108E-01
 -5.000000000E-01 -1.500000000E-01 1.558808675E-01
 -5.000000000E-01 -2.000000000E-01 1.504217667E-01
 -5.000000000E-01 -2.500000000E-01 1.439429169E-01
 -5.000000000E-01 -3.000000000E-01 1.366968278E-01
 -5.000000000E-01 -3.500000000E-01 1.288722303E-01
 -5.000000000E-01 -4.000000000E-01 1.207033972E-01
 -5.000000000E-01 -4.500000000E-01 1.124664047E-01
 -5.000000000E-01 -5.000000000E-01 1.042204222E-01
 -5.000000000E-01 -5.500000000E-01 9.608981871E-02
 -5.000000000E-01 -6.000000000E-01 8.802947639E-02
 -5.000000000E-01 -6.500000000E-01 8.014305145E-02
 -5.000000000E-01 -7.000000000E-01 7.230848081E-02
 -5.000000000E-01 -7.500000000E-01 6.453190213E-02
 -5.000000000E-01 -8.000000000E-01 5.656026125E-02
 -5.000000000E-01 -8.500000000E-01 4.803624812E-02
 -5.000000000E-01 -9.000000000E-01 3.834821913E-02
 -5.000000000E-01 -9.500000000E-01 2.541480165E-02
 -4.500000000E-01 -1.000000000E+00 2.103117212E-02
 -4.000000000E-01 -1.000000000E+00 3.128281052E-02
 -3.500000000E-01 -1.000000000E+00 3.784394643E-02
 -3.000000000E-01 -1.000000000E+00 4.213090215E-02
 -2.500000000E-01 -1.000000000E+00 4.488436942E-02
 -2.000000000E-01 -1.000000000E+00 4.621934661E-02
 -1.500000000E-01 -1.000000000E+00 4.600357350E-02
 -1.000000000E-01 -1.000000000E+00 4.451565165E-02
 -5.000000000E-02 -1.000000000E+00 4.159669954E-02
 -9.424683256E-13 -1.000000000E+00 3.739492719E-02
 5.000000000E-02 -1.000000000E+00 3.214098619E-02
 1.000000000E-01 -1.000000000E+00 2.585032702E-02
 1.500000000E-01 -1.000000000E+00 1.886325571E-02
 2.000000000E-01 -1.000000000E+00 1.144130576E-02
 2.500000000E-01 -1.000000000E+00 4.058528490E-03
 3.000000000E-01 -1.000000000E+00 -2.893067185E-03
 3.500000000E-01 -1.000000000E+00 -9.085701053E-03
 4.000000000E-01 -1.000000000E+00 -1.412492214E-02
 4.500000000E-01 -1.000000000E+00 -1.777612488E-02
 5.000000000E-01 -1.000000000E+00 -1.990431034E-02
 5.500000000E-01 -1.000000000E+00 -2.037395930E-02
 6.000000000E-01 -1.000000000E+00 -1.925096389E-02
 6.500000000E-01 -1.000000000E+00 -1.670224294E-02
 7.000000000E-01 -1.000000000E+00 -1.273959133E-02
 7.500000000E-01 -1.000000000E+00 -7.787113920E-03
 8.000000000E-01 -1.000000000E+00 -2.139424791E-03
 8.500000000E-01 -1.000000000E+00 3.891525074E-03
 9.000000000E-01 -1.000000000E+00 1.003912637E-02
 9.500000000E-01 -1.000000000E+00 1.596559766E-02
 1.000000000E+00 -1.000000000E+00 2.148788571E-02
 1.050000000E+00 -1.000000000E+00 2.661465270E-02
 1.100000000E+00 -1.000000000E+00 3.110708582E-02
 1.150000000E+00 -1.000000000E+00 3.493122846E-02
 1.200000000E+00 -1.000000000E+00 3.804836028E-02
 1.250000000E+00 -1.000000000E+00 4.053779335E-02
 1.300000000E+00 -1.000000000E+00 4.243879747E-02
 1.350000000E+00 -1.000000000E+00 4.372593203E-02
 1.400000000E+00 -1.000000000E+00 4.450658988E-02
 1.450000000E+00 -1.000000000E+00 4.489747605E-02
 1.500000000E+00 -1.000000000E+00 4.489888346E-02
 1.550000000E+00 -1.000000000E+00 4.458582090E-02
 1.600000000E+00 -1.000000000E+00 4.403130025E-02
 1.650000000E+00 -1.000000000E+00 4.327839724E-02
 1.700000000E+00 -1.000000000E+00 4.236258771E-02
 1.750000000E+00 -1.000000000E+00 4.132356865E-02
 1.800000000E+00 -1.000000000E+00 4.021390935E-02
 1.850000000E+00 -1.000000000E+00 3.898711815E-02
 1.900000000E+00 -1.000000000E+00 3.778094215E-02
 1.950000000E+00 -1.000000000E+00 3.656267446E-02
 2.000000000E+00 -1.000000000E+00 3.529090954E-02
 2.050000000E+00 -1.000000000E+00 3.403625159E-02
 2.100000000E+00 -1.000000000E+00 3.284287692E-02
 2.150000000E+00 -1.000000000E+00 3.165304126E-02
 2.200000000E+00 -1.000000000E+00 3.049446530E-02
 2.250000000E+00 -1.000000000E+00 2.943436692E-02
 2.300000000E+00 -1.000000000E+00 2.832079107E-02
 2.350000000E+00 -1.000000000E+00 2.729575184E-02
 2.400000000E+00 -1.000000000E+00 2.634956407E-02
 2.450000000E+00 -1.000000000E+00 2.541309901E-02
 2.500000000E+00 -1.000000000E+00 2.460774405E-02
 2.550000000E+00 -1.000000000E+00 2.377419189E-02
 2.600000000E+00 -1.000000000E+00 2.307185082E-02
 2.650000000E+00 -1.000000000E+00 2.233869689E-02
 2.700000000E+00 -1.000000000E+00 2.169111936E-02
 2.750000000E+00 -1.000000000E+00 2.110360505E-02
 2.800000000E+00 -1.000000000E+00 2.056137951E-02
 2.850000000E+00 -1.000000000E+00 2.007820488E-02
 2.900000000E+00 -1.000000000E+00 1.961866232E-02
 2.950000000E+00 -1.000000000E+00 1.920122588E-02
 3.000000000E+00 -1.000000000E+00 1.883838860E-02
 3.050000000E+00 -1.000000000E+00 1.845188134E-02
 3.100000000E+00 -1.000000000E+00 1.812986758E-02
 3.150000000E+00 -1.000000000E+00 1.775975708E-02
 3.200000000E+00 -1.000000000E+00 1.737114785E-02
 3.250000000E+00 -1.000000000E+00 1.691368209E-02
 3.300000000E+00 -1.000000000E+00 1.636266992E-02
 3.350000000E+00 -1.000000000E+00 1.556505126E-02
 3.400000000E+00 -1.000000000E+00 1.423193866E-02
 3.450000000E+00 -1.000000000E+00 1.160987795E-02
 3.500000000E+00 -9.500000000E-01 6.225393493E-03
 3.500000000E+00 -9.000000000E-01 7.425554100E-03
 3.500000000E+00 -8.500000000E-01 8.652249259E-03
 3.500000000E+00 -8.000000000E-01 1.006478703E-02
 3.500000000E+00 -7.500000000E-01 1.141874576E-02
 3.500000000E+00 -7.000000000E-01 1.268535214E-02
 3.500000000E+00 -6.500000000E-01 1.402464550E-02
 3.500000000E+00 -6.000000000E-01 1.538055454E-02
 3.500000000E+00 -5.500000000E-01 1.677971213E-02
 3.500000000E+00 -5.000000000E-01 1.818270648E-02
 3.500000000E+00 -4.500000000E-01 1.958032799E-02
 3.500000000E+00 -4.000000000E-01 2.102678651E-02
 3.500000000E+00 -3.500000000E-01 2.246658729E-02
 3.500000000E+00 -3.000000000E-01 2.387842783E-02
 3.500000000E+00 -2.500000000E-01 2.486243405E-02
 3.500000000E+00 -2.000000000E-01 2.523903858E-02
 3.500000000E+00 -1.500000000E-01 2.493467999E-02
 3.500000000E+00 -1.000000000E-01 2.429958232E-02
 3.500000000E+00 -5.000000000E-02 2.384675186E-02
 3.500000000E+00 -2.752242878E-12 2.397623146E-02
 3.500000000E+00 5.000000000E-02 2.443358263E-02
 3.500000000E+00 1.000000000E-01 2.480656759E-02
 3.500000000E+00 1.500000000E-01 2.460976311E-02
 3.500000000E+00 2.000000000E-01 2.369505757E-02
 3.500000000E+00 2.500000000E-01 2.226219009E-02
 3.500000000E+00 3.000000000E-01 2.069290618E-02
 3.500000000E+00 3.500000000E-01 1.920169044E-02
 3.500000000E+00 4.000000000E-01 1.769888725E-02
 3.500000000E+00 4.500000000E-01 1.613511996E-02
 3.500000000E+00 5.000000000E-01 1.444385375E-02
 3.500000000E+00 5.500000000E-01 1.314822554E-02
 3.500000000E+00 6.000000000E-01 1.249797314E-02
 3.500000000E+00 6.500000000E-01 1.235792103E-02
 3.500000000E+00 7.000000000E-01 1.177737071E-02
 3.500000000E+00 7.500000000E-01 8.896490371E-03
 3.500000000E+00 8.000000000E-01 1.675706381E-03
 3.500000000E+00 8.500000000E-01 -9.737783020E-03
 3.500000000E+00 9.000000000E-01 -2.515291835E-02
 3.500000000E+00 9.500000000E-01 -3.987688498E-02
 3.450000000E+00 1.000000000E+00 -1.788763451E-02
 3.400000000E+00 1.000000000E+00 -7.504308106E-03
 3.350000000E+00 1.000000000E+00 -3.650207545E-03
 3.300000000E+00 1.000000000E+00 -2.965114921E-03
 3.250000000E+00 1.000000000E+00 -2.703904868E-03
 3.200000000E+00 1.000000000E+00 -3.144317348E-03
 3.150000000E+00 1.000000000E+00 -3.684221022E-03
 3.100000000E+00 1.000000000E+00 -4.534788074E-03
 3.050000000E+00 1.000000000E+00 -5.432838397E-03
 3.000000000E+00 1.000000000E+00 -6.307538554E-03
 2.950000000E+00 1.000000000E+00 -7.447988854E-03
 2.900000000E+00 1.000000000E+00 -8.408141631E-03
 2.850000000E+00 1.000000000E+00 -9.700312917E-03
 2.800000000E+00 1.000000000E+00 -1.071691060E-02
 2.750000000E+00 1.000000000E+00 -1.217040077E-02
 2.700000000E+00 1.000000000E+00 -1.328528061E-02
 2.650000000E+00 1.000000000E+00 -1.465444650E-02
 2.600000000E+00 1.000000000E+00 -1.624217054E-02
 2.550000000E+00 1.000000000E+00 -1.726998765E-02
 2.500000000E+00 1.000000000E+00 -1.896483074E-02
 2.450000000E+00 1.000000000E+00 -2.052537543E-02
 2.400000000E+00 1.000000000E+00 -2.205333233E-02
 2.350000000E+00 1.000000000E+00 -2.377416546E-02
 2.300000000E+00 1.000000000E+00 -2.584536946E-02
 2.250000000E+00 1.000000000E+00 -2.777791404E-02
 2.200000000E+00 1.000000000E+00 -2.979291433E-02
 2.150000000E+00 1.000000000E+00 -3.197149973E-02
 2.100000000E+00 1.000000000E+00 -3.397667558E-02
 2.050000000E+00 1.000000000E+00 -3.699697264E-02
 2.000000000E+00 1.000000000E+00 -3.941063620E-02
 1.950000000E+00 1.000000000E+00 -4.226925451E-02
 1.900000000E+00 1.000000000E+00 -4.543783049E-02
 1.850000000E+00 1.000000000E+00 -4.855179819E-02
 1.800000000E+00 1.000000000E+00 -5.260252105E-02
 1.750000000E+00 1.000000000E+00 -5.622114084E-02
 1.700000000E+00 1.000000000E+00 -6.083403524E-02
 1.650000000E+00 1.000000000E+00 -6.546637214E-02
 1.600000000E+00 1.000000000E+00 -7.014731585E-02
 1.550000000E+00 1.000000000E+00 -7.594685598E-02
 1.500000000E+00 1.000000000E+00 -8.178290288E-02
 1.450000000E+00 1.000000000E+00 -8.870058771E-02
 1.400000000E+00 1.000000000E+00 -9.562315294E-02
 1.350000000E+00 1.000000000E+00 -1.031861968E-01
 1.300000000E+00 1.000000000E+00 -1.108462335E-01
 1.250000000E+00 1.000000000E+00 -1.196202088E-01
 1.200000000E+00 1.000000000E+00 -1.286672862E-01
 1.150000000E+00 1.000000000E+00 -1.365954747E-01
 1.100000000E+00 1.000000000E+00 -1.459371881E-01
 1.050000000E+00 1.000000000E+00 -1.541003450E-01
 1.000000000E+00 1.000000000E+00 -1.604105325E-01
 9.500000000E-01 1.000000000E+00 -1.681086968E-01
 9.000000000E-01 1.000000000E+00 -1.725677112E-01
 8.500000000E-01 1.000000000E+00 -1.751120185E-01
 8.000000000E-01 1.000000000E+00 -1.761641800E-01
 7.500000000E-01 1.000000000E+00 -1.732270552E-01
 7.000000000E-01 1.000000000E+00 -1.683668106E-01
 6.500000000E-01 1.000000000E+00 -1.604785690E-01
 6.000000000E-01 1.000000000E+00 -1.501382709E-01
 5.500000000E-01 1.000000000E+00 -1.367069132E-01
 5.000000000E-01 1.000000000E+00 -1.232068085E-01
 4.500000000E-01 1.000000000E+00 -1.063761967E-01
 4.000000000E-01 1.000000000E+00 -9.053664642E-02
 3.500000000E-01 1.000000000E+00 -7.266282992E-02
 3.000000000E-01 1.000000000E+00 -5.671008539E-02
 2.500000000E-01 1.000000000E+00 -4.017286910E-02
 2.000000000E-01 1.000000000E+00 -2.480404050E-02
 1.500000000E-01 1.000000000E+00 -1.060095299E-02
 1.000000000E-01 1.000000000E+00 1.994710441E-03
 5.000000000E-02 1.000000000E+00 1.318614537E-02
 1.733724275E-12 1.000000000E+00 2.244418730E-02
 -5.000000000E-02 1.000000000E+00 2.972511269E-02
 -1.000000000E-01 1.000000000E+00 3.520718323E-02
 -1.500000000E-01 1.000000000E+00 3.873851042E-02
 -2.000000000E-01 1.000000000E+00 4.041413931E-02
 -2.500000000E-01 1.000000000E+00 4.029486728E-02
 -3.000000000E-01 1.000000000E+00 3.853752805E-02
 -3.500000000E-01 1.000000000E+00 3.504237331E-02
 -4.000000000E-01 1.000000000E+00 2.918528993E-02
 -4.500000000E-01 1.000000000E+00 1.971830013E-02
 9.076042169E-01 -3.546524887E-03 3.743322962E-01
 8.289274354E-01 -9.812554380E-03 3.017040044E-01
 7.565266770E-01 -1.749725357E-02 2.048366608E-01
 6.855444551E-01 -2.653901494E-02 1.045126129E-01
 9.787452592E-01 -3.457232129E-03 3.707770355E-01
 6.181642179E-01 -3.705490654E-02 -1.580460177E-02
 5.472476819E-01 -4.513798774E-02 -1.804356820E-01
 4.894482131E-01 -5.130493367E-02 -3.483056244E-01
 4.388085253E-01 -5.593122503E-02 -4.958326902E-01
 3.814585726E-01 -5.802180336E-02 -5.843543515E-01