TITLE     = "Visualization of the solution"
VARIABLES = "x"
"y"
"Pressure_Coefficient"
ZONE T="Zone"
 STRANDID=0, SOLUTIONTIME=0
 Nodes=12085, Elements=23592, ZONETYPE=FEQuadrilateral
 DATAPACKING=POINT
 DT=(DOUBLE DOUBLE DOUBLE )
 9.999154806E-01 5.120345159E-04 3.373475979E-01
 9.869501591E-01 2.970709465E-03 2.251881306E-01
 9.739670157E-01 5.421915557E-03 1.585554506E-01
 9.578325748E-01 8.456689306E-03 9.867554880E-02
 9.428396821E-01 1.123230066E-02 6.053597469E-02
 9.285549521E-01 1.390603837E-02 1.739785185E-02
 9.168753624E-01 1.609082893E-02 -2.555233062E-02
 9.043599367E-01 1.835705712E-02 -5.209040014E-02
 8.924997449E-01 2.050106227E-02 -9.227080218E-02
 8.800237775E-01 2.264698595E-02 -1.043196745E-01
 8.677475452E-01 2.478755452E-02 -1.478821594E-01
 8.554080725E-01 2.682798170E-02 -1.649321032E-01
 8.428803086E-01 2.883985080E-02 -1.747263783E-01
 8.319689035E-01 3.061557747E-02 -2.121716486E-01
 8.203037977E-01 3.240027651E-02 -2.130676915E-01
 8.078384399E-01 3.432048857E-02 -2.390590400E-01
 7.952444553E-01 3.621948138E-02 -2.659271413E-01
 7.830260992E-01 3.798417747E-02 -2.710954725E-01
 7.709665895E-01 3.971304372E-02 -2.888713492E-01
 7.595032454E-01 4.136371985E-02 -3.247928711E-01
 7.464527488E-01 4.312555864E-02 -3.236138980E-01
 7.331275940E-01 4.494773597E-02 -3.619350211E-01
 7.226601243E-01 4.633591697E-02 -3.877310114E-01
 7.115718126E-01 4.773462564E-02 -3.907132346E-01
 7.001198530E-01 4.916189238E-02 -4.106082803E-01
 6.869839430E-01 5.077582225E-02 -4.433750054E-01
 6.740642190E-01 5.227809027E-02 -4.725280196E-01
 6.640589237E-01 5.342024565E-02 -4.920036654E-01
 6.525375247E-01 5.466027930E-02 -5.021665644E-01
 6.411603093E-01 5.583050102E-02 -5.147558790E-01
 6.295930147E-01 5.702105165E-02 -5.615917775E-01
 6.182578802E-01 5.808825418E-02 -5.759518005E-01
 6.076627374E-01 5.904891342E-02 -5.961574215E-01
 5.952774882E-01 6.009710953E-02 -6.086927729E-01
 5.837368369E-01 6.102886423E-02 -6.029827030E-01
 5.703787208E-01 6.200935319E-02 -6.339395046E-01
 5.579166412E-01 6.285943091E-02 -7.521109741E-01
 5.454617143E-01 6.360849738E-02 -7.994410982E-01
 5.343601108E-01 6.419511139E-02 -7.998098135E-01
 5.226450562E-01 6.478270888E-02 -8.029735520E-01
 5.101162195E-01 6.532976776E-02 -7.850726967E-01
 4.988932014E-01 6.573409587E-02 -7.672614294E-01
 4.855916202E-01 6.614562869E-02 -7.581976957E-01
 4.721131623E-01 6.644736230E-02 -7.486938583E-01
 4.580469131E-01 6.671374291E-02 -7.457079654E-01
 4.444286823E-01 6.685487181E-02 -7.153795397E-01
 4.314019978E-01 6.690829992E-02 -6.984570314E-01
 4.184268117E-01 6.689585000E-02 -6.858793153E-01
 4.059259593E-01 6.680049002E-02 -6.656584207E-01
 3.933458626E-01 6.663949043E-02 -6.617360254E-01
 3.811348677E-01 6.643213332E-02 -6.562950483E-01
 3.695484996E-01 6.614941359E-02 -6.331878064E-01
 3.563129008E-01 6.577678770E-02 -6.223878170E-01
 3.436488509E-01 6.532779336E-02 -6.040082635E-01
 3.307588696E-01 6.481887400E-02 -6.018289900E-01
 3.198402226E-01 6.431347877E-02 -5.796327321E-01
 3.072242737E-01 6.366827339E-02 -5.633271311E-01
 2.939464450E-01 6.291839480E-02 -5.512130978E-01
 2.800656557E-01 6.204900146E-02 -5.419434289E-01
 2.677389681E-01 6.119440868E-02 -5.268646047E-01
 2.559024394E-01 6.029953063E-02 -5.082035387E-01
 2.434522212E-01 5.929213390E-02 -4.955067145E-01
 2.311679721E-01 5.821951851E-02 -4.814363418E-01
 2.189215273E-01 5.707311258E-02 -4.696730691E-01
 2.072651088E-01 5.590048060E-02 -4.533651497E-01
 1.957911402E-01 5.466610938E-02 -4.347416499E-01
 1.836425811E-01 5.328625441E-02 -4.228168411E-01
 1.719061136E-01 5.185262486E-02 -4.042094322E-01
 1.605325788E-01 5.038502067E-02 -3.890329572E-01
 1.487556100E-01 4.875924438E-02 -3.718417338E-01
 1.382122189E-01 4.721636325E-02 -3.518602674E-01
 1.268007606E-01 4.544346035E-02 -3.328109213E-01
 1.155421883E-01 4.357803985E-02 -3.142592985E-01
 1.050089449E-01 4.171720520E-02 -2.880800191E-01
 9.541381150E-02 3.991544619E-02 -2.705603427E-01
 8.446525037E-02 3.772005811E-02 -2.422140481E-01
 7.281832397E-02 3.519969434E-02 -2.120337636E-01
 6.305070221E-02 3.290668875E-02 -1.791392730E-01
 5.335898325E-02 3.043108620E-02 -1.437420635E-01
 4.467655346E-02 2.801223658E-02 -1.083137962E-01
 3.715978935E-02 2.572206594E-02 -6.355447610E-02
 3.053688072E-02 2.351776697E-02 -2.253799691E-02
 2.488156967E-02 2.145242319E-02 1.687863407E-02
 2.076696232E-02 1.980422437E-02 6.445758063E-02
 1.684574224E-02 1.809991710E-02 1.057867736E-01
 1.389770117E-02 1.669868641E-02 1.561668628E-01
 1.120351255E-02 1.530099101E-02 2.058237445E-01
 9.214258753E-03 1.417387649E-02 2.496936248E-01
 7.459790912E-03 1.310343761E-02 2.926771433E-01
 5.829939153E-03 1.200979482E-02 3.730463770E-01
 3.709473880E-03 1.040384360E-02 4.731510159E-01
 1.884465222E-03 8.754444309E-03 5.781794110E-01
 3.544715873E-04 7.038526237E-03 7.799277912E-01
 -1.107377349E-03 4.689216614E-03 9.895678166E-01
 -1.746473601E-03 2.879876643E-03 1.126353243E+00
 -1.958273817E-03 1.433701953E-03 1.194847991E+00
 -1.890156185E-03 -1.778375299E-04 1.181384271E+00
 -1.472507021E-03 -1.879158779E-03 1.089810036E+00
 -5.515902885E-04 -3.877023235E-03 9.470337098E-01
 8.827007841E-04 -5.943263881E-03 7.371416094E-01
 2.888674848E-03 -8.094665594E-03 5.706628867E-01
 4.711217713E-03 -9.680420160E-03 4.236698358E-01
 6.799325347E-03 -1.125225425E-02 3.372105480E-01
 8.437583223E-03 -1.235407125E-02 2.526700026E-01
 1.050357707E-02 -1.362054143E-02 1.993503462E-01
 1.287406124E-02 -1.494325045E-02 1.360415878E-01
 1.613479108E-02 -1.658704132E-02 7.740911487E-02
 1.911176369E-02 -1.795337535E-02 1.414466475E-02
 2.295370027E-02 -1.956444606E-02 -2.821871900E-02
 2.827945352E-02 -2.157243714E-02 -7.126689141E-02
 3.398595750E-02 -2.350962535E-02 -1.171620547E-01
 4.106078297E-02 -2.566953935E-02 -1.517972228E-01
 4.852141067E-02 -2.773694135E-02 -1.847656370E-01
 5.733386427E-02 -2.994355559E-02 -2.085382099E-01
 6.599157304E-02 -3.192804009E-02 -2.339845194E-01
 7.606593519E-02 -3.404097259E-02 -2.513021716E-01
 8.593198657E-02 -3.596317396E-02 -2.670481996E-01
 9.622891992E-02 -3.781541437E-02 -2.882444933E-01
 1.071497649E-01 -3.965102136E-02 -3.019793349E-01
 1.184585616E-01 -4.142556340E-02 -3.175478933E-01
 1.300347298E-01 -4.312795401E-02 -3.349835326E-01
 1.406046450E-01 -4.458396882E-02 -3.498418223E-01
 1.516634673E-01 -4.602221027E-02 -3.645409373E-01
 1.636768878E-01 -4.748939723E-02 -3.801306565E-01
 1.752703637E-01 -4.881925136E-02 -3.984138147E-01
 1.871600598E-01 -5.009755120E-02 -4.158668310E-01
 1.977417171E-01 -5.116062984E-02 -4.324084135E-01
 2.090137601E-01 -5.222680047E-02 -4.509681371E-01
 2.212386578E-01 -5.329196900E-02 -4.680852136E-01
 2.336937487E-01 -5.429579690E-02 -4.910201750E-01
 2.458014190E-01 -5.517257750E-02 -5.074686087E-01
 2.582288384E-01 -5.598938838E-02 -5.251019851E-01
 2.694419324E-01 -5.665612593E-02 -5.535935046E-01
 2.821852863E-01 -5.731036142E-02 -5.743618388E-01
 2.946219742E-01 -5.784148723E-02 -5.900832435E-01
 3.074045479E-01 -5.829633400E-02 -6.161983469E-01
 3.191425502E-01 -5.860372633E-02 -6.392769353E-01
 3.316867948E-01 -5.882860720E-02 -6.550403343E-01
 3.424155116E-01 -5.891806260E-02 -6.653273005E-01
 3.539738357E-01 -5.893829837E-02 -6.831960944E-01
 3.648818433E-01 -5.883780494E-02 -6.885567560E-01
 3.757173717E-01 -5.865156651E-02 -6.753097706E-01
 3.874037862E-01 -5.834281445E-02 -6.562537022E-01
 4.004543722E-01 -5.786675960E-02 -6.325758612E-01
 4.128440619E-01 -5.727031827E-02 -5.995397917E-01
 4.260264933E-01 -5.651999265E-02 -5.733976730E-01
 4.385705888E-01 -5.564575270E-02 -5.316073596E-01
 4.510916770E-01 -5.466641113E-02 -4.925207500E-01
 4.631921351E-01 -5.359350890E-02 -4.482414347E-01
 4.756616354E-01 -5.240247399E-02 -4.131483396E-01
 4.873735011E-01 -5.118237436E-02 -3.748117424E-01
 4.998956919E-01 -4.978842661E-02 -3.311787119E-01
 5.137887001E-01 -4.815665632E-02 -2.908919933E-01
 5.273883939E-01 -4.646528885E-02 -2.487378140E-01
 5.406385064E-01 -4.475264624E-02 -2.098157890E-01
 5.536402464E-01 -4.302155599E-02 -1.748327253E-01
 5.668455362E-01 -4.121687636E-02 -1.398184692E-01
 5.800587535E-01 -3.939272463E-02 -1.144795535E-01
 5.921663046E-01 -3.765276819E-02 -7.454102435E-02
 6.047256589E-01 -3.586596251E-02 -4.933081270E-02
 6.186683774E-01 -3.387799859E-02 -2.351648445E-02
 6.331477761E-01 -3.180466220E-02 2.119321675E-03
 6.474214196E-01 -2.973423526E-02 3.313935937E-02
 6.605388522E-01 -2.784581855E-02 5.753437454E-02
 6.741663218E-01 -2.591294236E-02 7.628152701E-02
 6.867195964E-01 -2.413148619E-02 9.769975081E-02
 6.991076469E-01 -2.237893455E-02 1.204344998E-01
 7.136415839E-01 -2.035680786E-02 1.418708427E-01
 7.267225385E-01 -1.856344007E-02 1.627602075E-01
 7.388096452E-01 -1.696783677E-02 1.708677927E-01
 7.514176965E-01 -1.524259895E-02 2.058239857E-01
 7.640287280E-01 -1.363845821E-02 2.131778034E-01
 7.771497965E-01 -1.199099328E-02 2.313000899E-01
 7.891630530E-01 -1.052125171E-02 2.474259741E-01
 8.018766642E-01 -8.998255245E-03 2.669582811E-01
 8.128059506E-01 -7.741086185E-03 2.840488976E-01
 8.243005872E-01 -6.487684790E-03 2.973933713E-01
 8.370157480E-01 -5.181915592E-03 3.096341185E-01
 8.490841389E-01 -3.985071555E-03 3.305601355E-01
 8.611440659E-01 -2.901393455E-03 3.436060885E-01
 8.728337884E-01 -1.963091781E-03 3.531195639E-01
 8.843151927E-01 -1.116697444E-03 3.683727799E-01
 8.974462152E-01 -3.197001643E-04 3.730591762E-01
 9.074088335E-01 1.941004739E-04 3.810963711E-01
 9.178710580E-01 6.209314452E-04 3.843207239E-01
 9.274020195E-01 9.211245342E-04 3.858698664E-01
 9.362792969E-01 1.123952679E-03 3.891041510E-01
 9.483516812E-01 1.279317890E-03 3.874220191E-01
 9.613530040E-01 1.303901547E-03 3.873361997E-01
 9.762290120E-01 1.159525011E-03 3.920240355E-01
 9.890567660E-01 8.787773550E-04 4.086710444E-01
 -5.000000000E-01 -1.000000000E+00 1.525753846E-02
 3.500000000E+00 -1.000000000E+00 7.179919022E-03
 3.500000000E+00 1.000000000E+00 -2.864168523E-02
 -5.000000000E-01 1.000000000E+00 1.410457885E-02
 9.934328198E-01 1.741371991E-03 3.062968668E-01
 9.804585874E-01 4.196312511E-03 1.901978129E-01
 9.658997953E-01 6.939302431E-03 1.246620881E-01
 9.503361285E-01 9.844494984E-03 7.982277614E-02
 9.356973171E-01 1.256916951E-02 3.889535777E-02
 9.227151573E-01 1.499843365E-02 -7.428096708E-03
 9.106176496E-01 1.722394302E-02 -3.648085787E-02
 8.984298408E-01 1.942905970E-02 -7.703665004E-02
 8.862617612E-01 2.157402411E-02 -9.334008347E-02
 8.738856614E-01 2.371727023E-02 -1.302154253E-01
 8.615778089E-01 2.580776811E-02 -1.581384778E-01
 8.491441905E-01 2.783391625E-02 -1.643526344E-01
 8.374246061E-01 2.972771414E-02 -2.001401882E-01
 8.261363506E-01 3.150792699E-02 -2.089878088E-01
 8.140711188E-01 3.336038254E-02 -2.254812885E-01
 8.015414476E-01 3.526998498E-02 -2.556156912E-01
 7.891352773E-01 3.710182942E-02 -2.680185923E-01
 7.769963443E-01 3.884861059E-02 -2.748342249E-01
 7.652349174E-01 4.053838179E-02 -3.152012430E-01
 7.529779971E-01 4.224463925E-02 -3.183878383E-01
 7.397901714E-01 4.403664730E-02 -3.420593286E-01
 7.278938591E-01 4.564182647E-02 -3.795868894E-01
 7.171159685E-01 4.703527130E-02 -3.877621899E-01
 7.058458328E-01 4.844825901E-02 -3.972535832E-01
 6.935518980E-01 4.996885732E-02 -4.310544041E-01
 6.805240810E-01 5.152695626E-02 -4.515133120E-01
 6.582982242E-01 5.404026248E-02 -5.012512482E-01
 6.468489170E-01 5.524539016E-02 -4.997749944E-01
 6.353766620E-01 5.642577633E-02 -5.449871826E-01
 6.239254475E-01 5.755465291E-02 -5.661629670E-01
 6.129603088E-01 5.856858380E-02 -5.888577577E-01
 6.014701128E-01 5.957301147E-02 -6.013709100E-01
 5.895071626E-01 6.056298688E-02 -6.118075016E-01
 5.770577788E-01 6.151910871E-02 -6.026952075E-01
 5.641476810E-01 6.243439205E-02 -6.949033883E-01
 5.516891778E-01 6.323396415E-02 -7.865332498E-01
 5.399109125E-01 6.390180439E-02 -7.972280716E-01
 5.285025835E-01 6.448891014E-02 -8.054431423E-01
 5.163806379E-01 6.505623832E-02 -7.960609843E-01
 5.045047104E-01 6.553193182E-02 -7.724862718E-01
 4.922424108E-01 6.593986228E-02 -7.668680449E-01
 4.788523912E-01 6.629649550E-02 -7.472127258E-01
 4.650800377E-01 6.658055261E-02 -7.539334259E-01
 4.512377977E-01 6.678430736E-02 -7.291075396E-01
 4.379153401E-01 6.688158587E-02 -7.044809136E-01
 4.249144047E-01 6.690207496E-02 -6.941430315E-01
 4.121763855E-01 6.684817001E-02 -6.744544160E-01
 3.996359110E-01 6.671999022E-02 -6.607306055E-01
 3.872403651E-01 6.653581187E-02 -6.639379243E-01
 3.753416836E-01 6.629077345E-02 -6.413838161E-01
 3.629307002E-01 6.596310064E-02 -6.309756804E-01
 3.499808758E-01 6.555229053E-02 -6.093584248E-01
 3.372038603E-01 6.507333368E-02 -6.047761618E-01
 3.252995461E-01 6.456617638E-02 -5.911326001E-01
 3.135322481E-01 6.399087608E-02 -5.708869278E-01
 3.005853593E-01 6.329333410E-02 -5.574889631E-01
 2.870060503E-01 6.248369813E-02 -5.463642838E-01
 2.739023119E-01 6.162170507E-02 -5.349285475E-01
 2.618207037E-01 6.074696966E-02 -5.169490620E-01
 2.496773303E-01 5.979583226E-02 -5.020504114E-01
 2.373100966E-01 5.875582621E-02 -4.883143261E-01
 2.250447497E-01 5.764631554E-02 -4.756815907E-01
 2.130933180E-01 5.648679659E-02 -4.621834550E-01
 2.015281245E-01 5.528329499E-02 -4.430278526E-01
 1.897168607E-01 5.397618189E-02 -4.303132352E-01
 1.777743474E-01 5.256943963E-02 -4.120035549E-01
 1.662193462E-01 5.111882277E-02 -3.985942508E-01
 1.546440944E-01 4.957213253E-02 -3.789975225E-01
 1.434839144E-01 4.798780382E-02 -3.631121967E-01
 1.325064898E-01 4.632991180E-02 -3.429014121E-01
 1.211714745E-01 4.451075010E-02 -3.228527827E-01
 1.102755666E-01 4.264762253E-02 -3.046436190E-01
 8.993953094E-02 3.881775215E-02 -2.577702201E-01
 7.864178717E-02 3.645987622E-02 -2.310545728E-01
 7.102875412E-02 -3.298450634E-02 -2.485285421E-01
 9.108045325E-02 -3.688929416E-02 -2.849154891E-01
 1.016893424E-01 -3.873321787E-02 -2.935148123E-01
 1.128041632E-01 -4.053829238E-02 -3.103093939E-01
 1.242466457E-01 -4.227675870E-02 -3.262442408E-01
 1.353196874E-01 -4.385596141E-02 -3.441282757E-01
 1.461340562E-01 -4.530308954E-02 -3.562146969E-01
 1.576701775E-01 -4.675580375E-02 -3.719552001E-01
 1.694736257E-01 -4.815432429E-02 -3.896444076E-01
 1.812152117E-01 -4.945840128E-02 -4.069481210E-01
 1.924508885E-01 -5.062909052E-02 -4.254168407E-01
 2.033777386E-01 -5.169371516E-02 -4.402663997E-01
 2.151262090E-01 -5.275938474E-02 -4.596258113E-01
 2.274662033E-01 -5.379388295E-02 -4.784418133E-01
 2.397475839E-01 -5.473418720E-02 -5.014071284E-01
 2.520151287E-01 -5.558098294E-02 -5.148351814E-01
 2.638353854E-01 -5.632275715E-02 -5.389410462E-01
 2.758136094E-01 -5.698324367E-02 -5.640417218E-01
 2.884036303E-01 -5.757592432E-02 -5.836028594E-01
 3.010132611E-01 -5.806891061E-02 -5.998112312E-01
 3.132735491E-01 -5.845003016E-02 -6.311103762E-01
 3.254146725E-01 -5.871616676E-02 -6.457616856E-01
 3.370511532E-01 -5.887333490E-02 -6.639912004E-01
 3.481946737E-01 -5.892818049E-02 -6.694337014E-01
 3.594278395E-01 -5.888805166E-02 -6.923888505E-01
 3.702996075E-01 -5.874468572E-02 -6.813335821E-01
 3.815605789E-01 -5.849719048E-02 -6.661423674E-01
 3.939290792E-01 -5.810478702E-02 -6.432501073E-01
 4.066492170E-01 -5.756853893E-02 -6.196537163E-01
 4.194352776E-01 -5.689515546E-02 -5.826190084E-01
 4.322985411E-01 -5.608287267E-02 -5.579991890E-01
 4.448311329E-01 -5.515608191E-02 -5.090716409E-01
 4.571419060E-01 -5.412996002E-02 -4.732620091E-01
 4.694268852E-01 -5.299799144E-02 -4.281630618E-01
 4.815175682E-01 -5.179242417E-02 -3.963269471E-01
 4.936345965E-01 -5.048540048E-02 -3.527008333E-01
 5.068421960E-01 -4.897254147E-02 -3.102337406E-01
 5.205885470E-01 -4.731097259E-02 -2.710538503E-01
 5.340134501E-01 -4.560896754E-02 -2.288529616E-01
 5.471393764E-01 -4.388710111E-02 -1.923646487E-01
 5.602428913E-01 -4.211921617E-02 -1.573784959E-01
 5.734521449E-01 -4.030480050E-02 -1.258127857E-01
 5.861125290E-01 -3.852274641E-02 -9.762941894E-02
 5.984459817E-01 -3.675936535E-02 -5.988117482E-02
 6.116970181E-01 -3.487198055E-02 -3.658277035E-02
 6.259080768E-01 -3.284133039E-02 -1.065671788E-02
 6.402845979E-01 -3.076944873E-02 1.654716657E-02
 6.539801359E-01 -2.879002690E-02 4.613475982E-02
 6.673525870E-01 -2.687938046E-02 6.765644948E-02
 6.804429591E-01 -2.502221428E-02 8.661317000E-02
 6.929136217E-01 -2.325521037E-02 1.083990228E-01
 7.063746154E-01 -2.136787120E-02 1.307907329E-01
 7.201820612E-01 -1.946012396E-02 1.527969641E-01
 7.327660918E-01 -1.776563842E-02 1.687375525E-01
 7.451136708E-01 -1.610521786E-02 1.833413611E-01
 7.577232122E-01 -1.444052858E-02 2.126568365E-01
 7.705892622E-01 -1.281472575E-02 2.212947290E-01
 7.831564248E-01 -1.125612250E-02 2.394890813E-01
 7.955198586E-01 -9.759753477E-03 2.562210206E-01
 8.073413074E-01 -8.369670715E-03 2.763416381E-01
 8.185532689E-01 -7.114385488E-03 2.906052350E-01
 8.306581676E-01 -5.834800191E-03 3.033451479E-01
 8.430499434E-01 -4.583493574E-03 3.187734989E-01
 8.551141024E-01 -3.443232505E-03 3.379014358E-01
 8.669889271E-01 -2.432242618E-03 3.488212511E-01
 8.785744905E-01 -1.539894613E-03 3.595902062E-01
 8.908807039E-01 -7.181988040E-04 3.712011815E-01
 9.126399457E-01 4.075159595E-04 3.858216804E-01
 9.423154891E-01 1.201635285E-03 3.871736782E-01
 9.548523426E-01 1.291609718E-03 3.867511859E-01
 9.687910080E-01 1.231713279E-03 3.874319746E-01
 9.826428890E-01 1.019151183E-03 3.980074342E-01
 9.944861233E-01 6.954059354E-04 4.531646571E-01
 -5.000000000E-01 9.500000000E-01 2.307364720E-02
 -5.000000000E-01 9.000000000E-01 3.489364555E-02
 -5.000000000E-01 8.500000000E-01 4.390445457E-02
 -5.000000000E-01 8.000000000E-01 5.197709534E-02
 -5.000000000E-01 7.500000000E-01 5.959058810E-02
 -5.000000000E-01 7.000000000E-01 6.730537857E-02
 -5.000000000E-01 6.500000000E-01 7.499698043E-02
 -5.000000000E-01 6.000000000E-01 8.302322244E-02
 -5.000000000E-01 5.500000000E-01 9.122964254E-02
 -5.000000000E-01 5.000000000E-01 9.968421074E-02
 -5.000000000E-01 4.500000000E-01 1.082748692E-01
 -5.000000000E-01 4.000000000E-01 1.169401218E-01
 -5.000000000E-01 3.500000000E-01 1.253877216E-01
 -5.000000000E-01 3.000000000E-01 1.336534331E-01
 -5.000000000E-01 2.500000000E-01 1.411804783E-01
 -5.000000000E-01 2.000000000E-01 1.481466006E-01
 -5.000000000E-01 1.500000000E-01 1.537349103E-01
 -5.000000000E-01 1.000000000E-01 1.580706273E-01
 -5.000000000E-01 5.000000000E-02 1.608099498E-01
 -5.000000000E-01 2.752242878E-12 1.618848755E-01
 -5.000000000E-01 -5.000000000E-02 1.611733667E-01
 -5.000000000E-01 -1.000000000E-01 1.588138451E-01
 -5.000000000E-01 -1.500000000E-01 1.548837208E-01
 -5.000000000E-01 -2.000000000E-01 1.495323449E-01
 -5.000000000E-01 -2.500000000E-01 1.431698686E-01
 -5.000000000E-01 -3.000000000E-01 1.358820941E-01
 -5.000000000E-01 -3.500000000E-01 1.280082187E-01
 -5.000000000E-01 -4.000000000E-01 1.199642831E-01
 -5.000000000E-01 -4.500000000E-01 1.116150076E-01
 -5.000000000E-01 -5.000000000E-01 1.032253443E-01
 -5.000000000E-01 -5.500000000E-01 9.504100402E-02
 -5.000000000E-01 -6.000000000E-01 8.692346438E-02
 -5.000000000E-01 -6.500000000E-01 7.899353920E-02
 -5.000000000E-01 -7.000000000E-01 7.125026985E-02
 -5.000000000E-01 -7.500000000E-01 6.339463604E-02
 -5.000000000E-01 -8.000000000E-01 5.550156583E-02
 -5.000000000E-01 -8.500000000E-01 4.711467666E-02
 -5.000000000E-01 -9.000000000E-01 3.752252681E-02
 -5.000000000E-01 -9.500000000E-01 2.482386850E-02
 -4.500000000E-01 -1.000000000E+00 2.054293349E-02
 -4.000000000E-01 -1.000000000E+00 3.058610722E-02
 -3.500000000E-01 -1.000000000E+00 3.685433271E-02
 -3.000000000E-01 -1.000000000E+00 4.085927002E-02
 -2.500000000E-01 -1.000000000E+00 4.341831149E-02
 -2.000000000E-01 -1.000000000E+00 4.438530734E-02
 -1.500000000E-01 -1.000000000E+00 4.386897635E-02
 -1.000000000E-01 -1.000000000E+00 4.180094567E-02
 -5.000000000E-02 -1.000000000E+00 3.828815583E-02
 -9.424683256E-13 -1.000000000E+00 3.338235238E-02
 5.000000000E-02 -1.000000000E+00 2.721920991E-02
 1.000000000E-01 -1.000000000E+00 2.003612136E-02
 1.500000000E-01 -1.000000000E+00 1.207386218E-02
 2.000000000E-01 -1.000000000E+00 3.632833927E-03
 2.500000000E-01 -1.000000000E+00 -4.785948285E-03
 3.000000000E-01 -1.000000000E+00 -1.287570958E-02
 3.500000000E-01 -1.000000000E+00 -2.001837466E-02
 4.000000000E-01 -1.000000000E+00 -2.599907000E-02
 4.500000000E-01 -1.000000000E+00 -3.047335055E-02
 5.000000000E-01 -1.000000000E+00 -3.302254433E-02
 5.500000000E-01 -1.000000000E+00 -3.395698877E-02
 6.000000000E-01 -1.000000000E+00 -3.290402041E-02
 6.500000000E-01 -1.000000000E+00 -3.031739175E-02
 7.000000000E-01 -1.000000000E+00 -2.624595021E-02
 7.500000000E-01 -1.000000000E+00 -2.108764229E-02
 8.000000000E-01 -1.000000000E+00 -1.494335734E-02
 8.500000000E-01 -1.000000000E+00 -8.405845985E-03
 9.000000000E-01 -1.000000000E+00 -1.780908890E-03
 9.500000000E-01 -1.000000000E+00 4.718703592E-03
 1.000000000E+00 -1.000000000E+00 1.083305481E-02
 1.050000000E+00 -1.000000000E+00 1.648158692E-02
 1.100000000E+00 -1.000000000E+00 2.144658448E-02
 1.150000000E+00 -1.000000000E+00 2.575126849E-02
 1.200000000E+00 -1.000000000E+00 2.937192315E-02
 1.250000000E+00 -1.000000000E+00 3.222825211E-02
 1.300000000E+00 -1.000000000E+00 3.455282544E-02
 1.350000000E+00 -1.000000000E+00 3.617328669E-02
 1.400000000E+00 -1.000000000E+00 3.737266142E-02
 1.450000000E+00 -1.000000000E+00 3.808406115E-02
 1.500000000E+00 -1.000000000E+00 3.839182804E-02
 1.550000000E+00 -1.000000000E+00 3.840244679E-02
 1.600000000E+00 -1.000000000E+00 3.811378569E-02
 1.650000000E+00 -1.000000000E+00 3.764510637E-02
 1.700000000E+00 -1.000000000E+00 3.698568111E-02
 1.750000000E+00 -1.000000000E+00 3.619513424E-02
 1.800000000E+00 -1.000000000E+00 3.531103065E-02
 1.850000000E+00 -1.000000000E+00 3.434035218E-02
 1.900000000E+00 -1.000000000E+00 3.333331086E-02
 1.950000000E+00 -1.000000000E+00 3.228270036E-02
 2.000000000E+00 -1.000000000E+00 3.129727730E-02
 2.050000000E+00 -1.000000000E+00 3.017468596E-02
 2.100000000E+00 -1.000000000E+00 2.922393287E-02
 2.150000000E+00 -1.000000000E+00 2.819630937E-02
 2.200000000E+00 -1.000000000E+00 2.717306315E-02
 2.250000000E+00 -1.000000000E+00 2.628793648E-02
 2.300000000E+00 -1.000000000E+00 2.532168498E-02
 2.350000000E+00 -1.000000000E+00 2.443524685E-02
 2.400000000E+00 -1.000000000E+00 2.366105381E-02
 2.450000000E+00 -1.000000000E+00 2.288257604E-02
 2.500000000E+00 -1.000000000E+00 2.215831655E-02
 2.550000000E+00 -1.000000000E+00 2.149276929E-02
 2.600000000E+00 -1.000000000E+00 2.085508406E-02
 2.650000000E+00 -1.000000000E+00 2.026965379E-02
 2.700000000E+00 -1.000000000E+00 1.976222912E-02
 2.750000000E+00 -1.000000000E+00 1.924240578E-02
 2.800000000E+00 -1.000000000E+00 1.881638845E-02
 2.850000000E+00 -1.000000000E+00 1.840498624E-02
 2.900000000E+00 -1.000000000E+00 1.803514746E-02
 2.950000000E+00 -1.000000000E+00 1.770433724E-02
 3.000000000E+00 -1.000000000E+00 1.742985404E-02
 3.050000000E+00 -1.000000000E+00 1.713258672E-02
 3.100000000E+00 -1.000000000E+00 1.687716134E-02
 3.150000000E+00 -1.000000000E+00 1.660614674E-02
 3.200000000E+00 -1.000000000E+00 1.626871749E-02
 3.250000000E+00 -1.000000000E+00 1.592139865E-02
 3.300000000E+00 -1.000000000E+00 1.539266215E-02
 3.350000000E+00 -1.000000000E+00 1.468436863E-02
 3.400000000E+00 -1.000000000E+00 1.343201898E-02
 3.450000000E+00 -1.000000000E+00 1.076320562E-02
 3.500000000E+00 -9.500000000E-01 5.338980857E-03
 3.500000000E+00 -9.000000000E-01 6.673047690E-03
 3.500000000E+00 -8.500000000E-01 8.262165946E-03
 3.500000000E+00 -8.000000000E-01 9.868134116E-03
 3.500000000E+00 -7.500000000E-01 1.107813379E-02
 3.500000000E+00 -7.000000000E-01 1.226227639E-02
 3.500000000E+00 -6.500000000E-01 1.360472782E-02
 3.500000000E+00 -6.000000000E-01 1.494217232E-02
 3.500000000E+00 -5.500000000E-01 1.637062127E-02
 3.500000000E+00 -5.000000000E-01 1.780115011E-02
 3.500000000E+00 -4.500000000E-01 1.924718560E-02
 3.500000000E+00 -4.000000000E-01 2.071195584E-02
 3.500000000E+00 -3.500000000E-01 2.218459572E-02
 3.500000000E+00 -3.000000000E-01 2.358900765E-02
 3.500000000E+00 -2.500000000E-01 2.452522745E-02
 3.500000000E+00 -2.000000000E-01 2.504581019E-02
 3.500000000E+00 -1.500000000E-01 2.511489753E-02
 3.500000000E+00 -1.000000000E-01 2.482781771E-02
 3.500000000E+00 -5.000000000E-02 2.460029388E-02
 3.500000000E+00 -2.752242878E-12 2.468581842E-02
 3.500000000E+00 5.000000000E-02 2.496702653E-02
 3.500000000E+00 1.000000000E-01 2.495243515E-02
 3.500000000E+00 1.500000000E-01 2.436568449E-02
 3.500000000E+00 2.000000000E-01 2.333490138E-02
 3.500000000E+00 2.500000000E-01 2.195726480E-02
 3.500000000E+00 3.000000000E-01 2.048414506E-02
 3.500000000E+00 3.500000000E-01 1.896529758E-02
 3.500000000E+00 4.000000000E-01 1.741642798E-02
 3.500000000E+00 4.500000000E-01 1.596091659E-02
 3.500000000E+00 5.000000000E-01 1.440983403E-02
 3.500000000E+00 5.500000000E-01 1.305867523E-02
 3.500000000E+00 6.000000000E-01 1.223159378E-02
 3.500000000E+00 6.500000000E-01 1.200583813E-02
 3.500000000E+00 7.000000000E-01 1.144821934E-02
 3.500000000E+00 7.500000000E-01 9.201167677E-03
 3.500000000E+00 8.000000000E-01 3.790522766E-03
 3.500000000E+00 8.500000000E-01 -6.150173067E-03
 3.500000000E+00 9.000000000E-01 -1.895064278E-02
 3.500000000E+00 9.500000000E-01 -3.246011685E-02
 3.450000000E+00 1.000000000E+00 -1.423648212E-02
 3.400000000E+00 1.000000000E+00 -4.916397307E-03
 3.350000000E+00 1.000000000E+00 -1.904141235E-03
 3.300000000E+00 1.000000000E+00 -1.257548042E-03
 3.250000000E+00 1.000000000E+00 -1.372399901E-03
 3.200000000E+00 1.000000000E+00 -1.634333467E-03
 3.150000000E+00 1.000000000E+00 -2.301918900E-03
 3.100000000E+00 1.000000000E+00 -3.060285768E-03
 3.050000000E+00 1.000000000E+00 -3.930463557E-03
 3.000000000E+00 1.000000000E+00 -4.868978687E-03
 2.950000000E+00 1.000000000E+00 -5.765844160E-03
 2.900000000E+00 1.000000000E+00 -6.767295909E-03
 2.850000000E+00 1.000000000E+00 -7.810119545E-03
 2.800000000E+00 1.000000000E+00 -8.949001104E-03
 2.750000000E+00 1.000000000E+00 -1.006345262E-02
 2.700000000E+00 1.000000000E+00 -1.129059820E-02
 2.650000000E+00 1.000000000E+00 -1.250022359E-02
 2.600000000E+00 1.000000000E+00 -1.365166755E-02
 2.550000000E+00 1.000000000E+00 -1.499527418E-02
 2.500000000E+00 1.000000000E+00 -1.636495795E-02
 2.450000000E+00 1.000000000E+00 -1.771008317E-02
 2.400000000E+00 1.000000000E+00 -1.926184059E-02
 2.350000000E+00 1.000000000E+00 -2.088977305E-02
 2.300000000E+00 1.000000000E+00 -2.244206416E-02
 2.250000000E+00 1.000000000E+00 -2.411421915E-02
 2.200000000E+00 1.000000000E+00 -2.610970080E-02
 2.150000000E+00 1.000000000E+00 -2.805758623E-02
 2.100000000E+00 1.000000000E+00 -3.037662049E-02
 2.050000000E+00 1.000000000E+00 -3.258774761E-02
 2.000000000E+00 1.000000000E+00 -3.480142348E-02
 1.950000000E+00 1.000000000E+00 -3.754907573E-02
 1.900000000E+00 1.000000000E+00 -4.026102610E-02
 1.850000000E+00 1.000000000E+00 -4.338495677E-02
 1.800000000E+00 1.000000000E+00 -4.657620652E-02
 1.750000000E+00 1.000000000E+00 -5.022620367E-02
 1.700000000E+00 1.000000000E+00 -5.376610446E-02
 1.650000000E+00 1.000000000E+00 -5.832882124E-02
 1.600000000E+00 1.000000000E+00 -6.261119724E-02
 1.550000000E+00 1.000000000E+00 -6.812566648E-02
 1.500000000E+00 1.000000000E+00 -7.307502080E-02
 1.450000000E+00 1.000000000E+00 -7.913679722E-02
 1.400000000E+00 1.000000000E+00 -8.550017031E-02
 1.350000000E+00 1.000000000E+00 -9.211578331E-02
 1.300000000E+00 1.000000000E+00 -9.930182051E-02
 1.250000000E+00 1.000000000E+00 -1.069444360E-01
 1.200000000E+00 1.000000000E+00 -1.148244020E-01
 1.150000000E+00 1.000000000E+00 -1.225764696E-01
 1.100000000E+00 1.000000000E+00 -1.300276264E-01
 1.050000000E+00 1.000000000E+00 -1.384240086E-01
 1.000000000E+00 1.000000000E+00 -1.439272661E-01
 9.500000000E-01 1.000000000E+00 -1.508119534E-01
 9.000000000E-01 1.000000000E+00 -1.545343748E-01
 8.500000000E-01 1.000000000E+00 -1.578776456E-01
 8.000000000E-01 1.000000000E+00 -1.576016071E-01
 7.500000000E-01 1.000000000E+00 -1.560612290E-01
 7.000000000E-01 1.000000000E+00 -1.520432307E-01
 6.500000000E-01 1.000000000E+00 -1.454204611E-01
 6.000000000E-01 1.000000000E+00 -1.365613616E-01
 5.500000000E-01 1.000000000E+00 -1.256719458E-01
 5.000000000E-01 1.000000000E+00 -1.126722114E-01
 4.500000000E-01 1.000000000E+00 -9.904968490E-02
 4.000000000E-01 1.000000000E+00 -8.391109974E-02
 3.500000000E-01 1.000000000E+00 -6.864243971E-02
 3.000000000E-01 1.000000000E+00 -5.306890123E-02
 2.500000000E-01 1.000000000E+00 -3.818557686E-02
 2.000000000E-01 1.000000000E+00 -2.404867678E-02
 1.500000000E-01 1.000000000E+00 -1.039900388E-02
 1.000000000E-01 1.000000000E+00 2.079747844E-03
 5.000000000E-02 1.000000000E+00 1.246644569E-02
 1.733724275E-12 1.000000000E+00 2.141866550E-02
 -5.000000000E-02 1.000000000E+00 2.840568395E-02
 -1.000000000E-01 1.000000000E+00 3.366912396E-02
 -1.500000000E-01 1.000000000E+00 3.719807424E-02
 -2.000000000E-01 1.000000000E+00 3.890787574E-02
 -2.500000000E-01 1.000000000E+00 3.881354713E-02
 -3.000000000E-01 1.000000000E+00 3.707509925E-02
 -3.500000000E-01 1.000000000E+00 3.382231457E-02
 -4.000000000E-01 1.000000000E+00 2.818775151E-02
 -4.500000000E-01 1.000000000E+00 1.898288270E-02
 9.855590266E-01 -4.160855509E-03 3.983539329E-01
 8.880842698E-01 -6.082066187E-03 3.623516030E-01
 8.059822818E-01 -1.338931891E-02 2.695507255E-01
 7.364505110E-01 -2.292891492E-02 1.688192117E-01
 6.644048314E-01 -3.406362016E-02 6.045413189E-02
 5.960660115E-01 -4.254713724E-02 -6.755091727E-02
 5.314081799E-01 -5.157724950E-02 -2.341663136E-01
 4.670014782E-01 -5.829558788E-02 -4.302594232E-01
 4.096314332E-01 -6.288262184E-02 -5.982945215E-01
 3.510257486E-01 -6.367491126E-02 -6.650024334E-01
 2.976767027E-01 -6.290717857E-02 -5.860874652E-01
 2.364696817E-01 -5.882309766E-02 -4.891039940E-01
 1.778441136E-01 -5.419867731E-02 -3.950013921E-01
 1.206234322E-01 -4.680948914E-02 -3.117716715E-01
 6.759523696E-02 -3.681859999E-02 -2.205563534E-01