TITLE     = "Visualization of the solution"
VARIABLES = "x"
"y"
"Pressure_Coefficient"
ZONE T="Zone"
 STRANDID=0, SOLUTIONTIME=0
 Nodes=11873, Elements=23164, ZONETYPE=FEQuadrilateral
 DATAPACKING=POINT
 DT=(DOUBLE DOUBLE DOUBLE )
 1.000020385E+00 5.096455570E-04 3.756358237E-01
 9.854729772E-01 3.400480142E-03 2.617375655E-01
 9.726477265E-01 6.030245684E-03 1.814082650E-01
 9.565318823E-01 9.249935858E-03 1.225500102E-01
 9.418057203E-01 1.215085480E-02 8.598215010E-02
 9.289554954E-01 1.473054197E-02 3.617439347E-02
 9.172946215E-01 1.701848023E-02 1.903161592E-03
 9.054135084E-01 1.929878257E-02 -1.682357035E-02
 8.938422799E-01 2.158188634E-02 -7.458109226E-02
 8.816337585E-01 2.384376526E-02 -9.007908912E-02
 8.695655465E-01 2.607179433E-02 -1.212046223E-01
 8.573077917E-01 2.828095481E-02 -1.483754361E-01
 8.451474905E-01 3.040818684E-02 -1.632425684E-01
 8.342618942E-01 3.234351426E-02 -2.118783415E-01
 8.226332664E-01 3.428039700E-02 -2.204324526E-01
 8.102862239E-01 3.631334752E-02 -2.449624540E-01
 7.977103591E-01 3.831546009E-02 -2.607731574E-01
 7.856562734E-01 4.020024091E-02 -2.801479282E-01
 7.734312415E-01 4.207830131E-02 -3.031396486E-01
 7.620564699E-01 4.377068952E-02 -3.149732038E-01
 7.494863868E-01 4.564233869E-02 -3.499535610E-01
 7.361696959E-01 4.753821343E-02 -3.727557201E-01
 7.253978252E-01 4.902909324E-02 -3.888774155E-01
 7.141699195E-01 5.053301901E-02 -3.985590679E-01
 7.026053071E-01 5.207296461E-02 -4.291172668E-01
 6.897396445E-01 5.372563004E-02 -4.567863162E-01
 6.771325469E-01 5.527924746E-02 -4.835217886E-01
 6.662046909E-01 5.657858029E-02 -5.019511963E-01
 6.545154452E-01 5.789634958E-02 -5.134893029E-01
 6.432961822E-01 5.914501473E-02 -5.503171987E-01
 6.313137412E-01 6.039267033E-02 -5.638766982E-01
 6.196234226E-01 6.154219434E-02 -5.704437112E-01
 6.091827750E-01 6.254618615E-02 -5.413807381E-01
 5.970038176E-01 6.359156221E-02 -5.176055401E-01
 5.853161812E-01 6.456969678E-02 -7.849711247E-01
 5.717325211E-01 6.562201679E-02 -9.079266296E-01
 5.589624643E-01 6.652121246E-02 -8.764687111E-01
 5.461837649E-01 6.734153628E-02 -8.615401719E-01
 5.347399116E-01 6.797578186E-02 -8.519059739E-01
 5.226690769E-01 6.859719008E-02 -8.443383038E-01
 5.100129843E-01 6.913612038E-02 -8.284009739E-01
 4.991188347E-01 6.955640018E-02 -8.251121035E-01
 4.860981703E-01 6.998913735E-02 -8.093813603E-01
 4.731328785E-01 7.031033933E-02 -7.937036897E-01
 4.596361816E-01 7.059399039E-02 -7.838763015E-01
 4.460016191E-01 7.075587660E-02 -7.584601592E-01
 4.333280027E-01 7.083628327E-02 -7.476767456E-01
 4.202947617E-01 7.083784789E-02 -7.402426385E-01
 4.078282714E-01 7.077901810E-02 -7.240813659E-01
 3.947421908E-01 7.061059028E-02 -7.050396547E-01
 3.827532828E-01 7.041380554E-02 -6.964763012E-01
 3.708635271E-01 7.013034075E-02 -6.685822344E-01
 3.573859632E-01 6.973773986E-02 -6.583301601E-01
 3.447085917E-01 6.929590553E-02 -6.525378492E-01
 3.318310678E-01 6.877216697E-02 -6.418079952E-01
 3.211481869E-01 6.826304644E-02 -6.186776268E-01
 3.086516261E-01 6.761382520E-02 -6.065888689E-01
 2.960282564E-01 6.687156856E-02 -5.889244587E-01
 2.822936177E-01 6.598800421E-02 -5.815667262E-01
 2.701190710E-01 6.511330605E-02 -5.647077025E-01
 2.583373785E-01 6.419617683E-02 -5.485469141E-01
 2.458568513E-01 6.314116716E-02 -5.285104227E-01
 2.333881408E-01 6.200274080E-02 -5.119401705E-01
 2.212346643E-01 6.082491949E-02 -5.044232969E-01
 2.093412429E-01 5.957642943E-02 -4.876181967E-01
 1.974841803E-01 5.824271217E-02 -4.689073966E-01
 1.851853132E-01 5.676551908E-02 -4.512096747E-01
 1.733709425E-01 5.524278060E-02 -4.280723307E-01
 1.617038250E-01 5.365629867E-02 -4.147169207E-01
 1.500358284E-01 5.196660385E-02 -3.994820388E-01
 1.391196102E-01 5.026721582E-02 -3.726179632E-01
 1.277685016E-01 4.841047153E-02 -3.575082616E-01
 1.166717261E-01 4.645990580E-02 -3.308838388E-01
 1.060220078E-01 4.447904229E-02 -3.134963528E-01
 9.610331804E-02 4.250930995E-02 -2.886558144E-01
 8.535741270E-02 4.022887722E-02 -2.591354041E-01
 7.413049787E-02 3.766436502E-02 -2.326012859E-01
 6.424546242E-02 3.521800786E-02 -1.953738217E-01
 5.473390594E-02 3.267503530E-02 -1.619537398E-01
 4.582452774E-02 3.008353524E-02 -1.228334567E-01
 3.809785470E-02 2.761607431E-02 -8.296752154E-02
 3.126593679E-02 2.524477057E-02 -4.315199387E-02
 2.546142228E-02 2.302733064E-02 -6.675149845E-03
 2.118843049E-02 2.124349400E-02 3.911772241E-02
 1.710406505E-02 1.938002743E-02 8.475846562E-02
 1.394842193E-02 1.780414768E-02 1.381814787E-01
 1.114393119E-02 1.627451181E-02 1.821311789E-01
 9.084169753E-03 1.504889317E-02 2.232522041E-01
 7.213325705E-03 1.383354422E-02 2.669795700E-01
 5.478710867E-03 1.258584950E-02 3.569723286E-01
 3.276753239E-03 1.077165361E-02 4.617208980E-01
 1.481108251E-03 8.982451633E-03 5.586444865E-01
 3.112723061E-05 7.151196711E-03 7.804962400E-01
 -1.345233992E-03 4.605382215E-03 9.963188655E-01
 -1.913207932E-03 2.618203172E-03 1.127633066E+00
 -2.067473484E-03 1.016599126E-03 1.191729085E+00
 -1.922528143E-03 -8.419481455E-04 1.214241046E+00
 -1.396410866E-03 -2.853097860E-03 1.132628526E+00
 -3.006108454E-04 -5.245117936E-03 1.013113326E+00
 1.358829439E-03 -7.744157687E-03 8.545697956E-01
 3.549358342E-03 -1.028039772E-02 6.937482917E-01
 5.536588840E-03 -1.219535898E-02 5.635377785E-01
 7.853505202E-03 -1.414592192E-02 4.719826341E-01
 9.643425234E-03 -1.550121047E-02 3.852718517E-01
 1.182959508E-02 -1.701972075E-02 3.286605236E-01
 1.433054823E-02 -1.862360910E-02 2.599858107E-01
 1.765444130E-02 -2.056759410E-02 1.860440486E-01
 2.081779949E-02 -2.225418203E-02 1.148862330E-01
 2.488982305E-02 -2.425311133E-02 5.940693610E-02
 3.023931757E-02 -2.663442120E-02 -2.410543414E-03
 3.588300571E-02 -2.890998311E-02 -6.949232806E-02
 4.270358011E-02 -3.139609471E-02 -1.167273436E-01
 5.016461760E-02 -3.387266397E-02 -1.626186694E-01
 5.895683914E-02 -3.652298450E-02 -2.030239124E-01
 6.762327999E-02 -3.890736774E-02 -2.433679230E-01
 7.786872238E-02 -4.148034379E-02 -2.756975109E-01
 8.768858016E-02 -4.375416785E-02 -2.966982411E-01
 9.823931754E-02 -4.601592198E-02 -3.335626121E-01
 1.094797999E-01 -4.823793098E-02 -3.531594700E-01
 1.208193749E-01 -5.031798035E-02 -3.740781635E-01
 1.325833648E-01 -5.233398825E-02 -3.981158171E-01
 1.430023313E-01 -5.399901047E-02 -4.221887968E-01
 1.543709487E-01 -5.569809303E-02 -4.380819566E-01
 1.663883179E-01 -5.737585202E-02 -4.561675889E-01
 1.779406369E-01 -5.889241397E-02 -4.860538101E-01
 1.895820200E-01 -6.029940769E-02 -5.014763250E-01
 2.002559751E-01 -6.151447818E-02 -5.258575717E-01
 2.115981430E-01 -6.271014363E-02 -5.470434187E-01
 2.237688601E-01 -6.388669461E-02 -5.631500773E-01
 2.358103096E-01 -6.497079879E-02 -6.004477831E-01
 2.476097792E-01 -6.590338051E-02 -6.159975389E-01
 2.598292530E-01 -6.679344922E-02 -6.405604829E-01
 2.708743811E-01 -6.749145687E-02 -6.701788025E-01
 2.832940519E-01 -6.818401068E-02 -6.970329995E-01
 2.953225374E-01 -6.873647869E-02 -7.295928089E-01
 3.081591129E-01 -6.920383126E-02 -7.586984326E-01
 3.198664188E-01 -6.951414794E-02 -7.850636997E-01
 3.324494064E-01 -6.973835826E-02 -8.063436510E-01
 3.430736363E-01 -6.981996447E-02 -8.314857165E-01
 3.546592593E-01 -6.980945170E-02 -8.561478669E-01
 3.656932116E-01 -6.967885792E-02 -8.826465529E-01
 3.766935766E-01 -6.945012510E-02 -9.011670013E-01
 3.885933161E-01 -6.909412146E-02 -9.207598763E-01
 4.017663300E-01 -6.854480505E-02 -9.513419879E-01
 4.141075015E-01 -6.789709628E-02 -9.828906018E-01
 4.267548025E-01 -6.708507985E-02 -6.606555695E-01
 4.392383397E-01 -6.616620719E-02 -4.655001711E-01
 4.517962039E-01 -6.509749591E-02 -5.191912416E-01
 4.639225900E-01 -6.397002190E-02 -5.063546051E-01
 4.763419628E-01 -6.270430982E-02 -4.706529631E-01
 4.884210527E-01 -6.136251613E-02 -4.304228729E-01
 5.008009672E-01 -5.988827720E-02 -3.836738109E-01
 5.144392252E-01 -5.818216130E-02 -3.408794074E-01
 5.276213288E-01 -5.646702647E-02 -3.108046851E-01
 5.400326252E-01 -5.475874990E-02 -2.697942273E-01
 5.531944633E-01 -5.290016532E-02 -2.372032060E-01
 5.663173199E-01 -5.095273629E-02 -1.890259140E-01
 5.794388056E-01 -4.900389537E-02 -1.622535722E-01
 5.923103094E-01 -4.703320563E-02 -1.257692936E-01
 6.054080129E-01 -4.502298310E-02 -9.909463569E-02
 6.189852357E-01 -4.291959852E-02 -7.439913040E-02
 6.326820254E-01 -4.074569792E-02 -4.031284945E-02
 6.465796828E-01 -3.854262456E-02 -1.526592740E-02
 6.592224240E-01 -3.651312366E-02 1.349908032E-02
 6.725504994E-01 -3.437005728E-02 4.207000306E-02
 6.850536466E-01 -3.240257129E-02 5.569201981E-02
 6.971948147E-01 -3.046195954E-02 8.073389102E-02
 7.118648887E-01 -2.812005393E-02 1.082532043E-01
 7.249994278E-01 -2.605982125E-02 1.264179385E-01
 7.365835905E-01 -2.424616367E-02 1.458070577E-01
 7.498262525E-01 -2.215294540E-02 1.772899321E-01
 7.628762722E-01 -2.020016685E-02 1.832384852E-01
 7.760510445E-01 -1.815942116E-02 2.185548064E-01
 7.883531451E-01 -1.633398980E-02 2.368835672E-01
 8.015866280E-01 -1.445853058E-02 2.471252434E-01
 8.127152920E-01 -1.288328040E-02 2.642580369E-01
 8.235569596E-01 -1.132439263E-02 2.961965387E-01
 8.359318972E-01 -9.658912197E-03 3.139342915E-01
 8.483493924E-01 -8.080163971E-03 3.318519233E-01
 8.609396815E-01 -6.593474187E-03 3.430281844E-01
 8.715049028E-01 -5.364934914E-03 3.693410010E-01
 8.828336000E-01 -4.195473157E-03 3.782153185E-01
 8.954802752E-01 -3.007383784E-03 3.920810089E-01
 9.055074453E-01 -2.155617345E-03 4.041469010E-01
 9.164026380E-01 -1.372130238E-03 4.125263028E-01
 9.266077280E-01 -7.507503033E-04 4.189172829E-01
 9.366336465E-01 -2.627070935E-04 4.210817766E-01
 9.486401081E-01 1.981360401E-04 4.264969659E-01
 9.624843597E-01 5.280161276E-04 4.278857305E-01
 9.766682982E-01 6.715190830E-04 4.356745526E-01
 9.891562462E-01 6.348911556E-04 4.565698553E-01
 -5.000000000E-01 -1.000000000E+00 1.747931885E-02
 3.500000000E+00 -1.000000000E+00 6.345855314E-03
 3.500000000E+00 1.000000000E+00 -2.919413859E-02
 -5.000000000E-01 1.000000000E+00 1.661341410E-02
 9.927466810E-01 1.955062849E-03 3.443337572E-01
 9.790603518E-01 4.715362913E-03 2.165191618E-01
 9.645898044E-01 7.640090771E-03 1.491996395E-01
 9.491688013E-01 1.070039533E-02 1.052931018E-01
 9.353806078E-01 1.344069839E-02 5.854114251E-02
 9.231250584E-01 1.587451110E-02 1.644057784E-02
 9.113540649E-01 1.815863140E-02 -1.848655278E-03
 8.996278942E-01 2.044033445E-02 -5.264828196E-02
 8.877380192E-01 2.271282580E-02 -7.970294906E-02
 8.755996525E-01 2.495777979E-02 -1.058065497E-01
 8.634366691E-01 2.717637457E-02 -1.373619069E-01
 8.512276411E-01 2.934457082E-02 -1.496272516E-01
 8.397046924E-01 3.137585055E-02 -1.952066996E-01
 8.284475803E-01 3.331195563E-02 -2.135410690E-01
 8.164597452E-01 3.529687226E-02 -2.337450157E-01
 8.039982915E-01 3.731440380E-02 -2.523638271E-01
 7.916833162E-01 3.925785050E-02 -2.693640877E-01
 7.795437574E-01 4.113927111E-02 -2.939522821E-01
 7.677438557E-01 4.292449541E-02 -3.049959940E-01
 7.557714283E-01 4.470651411E-02 -3.354280852E-01
 7.428280413E-01 4.659027606E-02 -3.605863900E-01
 7.307837605E-01 4.828365333E-02 -3.831841901E-01
 7.197838724E-01 4.978105612E-02 -3.900659341E-01
 7.083876133E-01 5.130299181E-02 -4.147758856E-01
 6.961724758E-01 5.289929733E-02 -4.437865651E-01
 6.834360957E-01 5.450243875E-02 -4.686606623E-01
 6.716686189E-01 5.592891388E-02 -4.970826853E-01
 6.603600681E-01 5.723746493E-02 -5.019177032E-01
 6.489058137E-01 5.852068216E-02 -5.350936174E-01
 6.373049617E-01 5.976884253E-02 -5.593795400E-01
 6.254685819E-01 6.096743234E-02 -5.644978920E-01
 6.144030988E-01 6.204419024E-02 -5.715659765E-01
 6.030932963E-01 6.306887418E-02 -5.028805502E-01
 5.911599994E-01 6.408062950E-02 -6.253170491E-01
 5.785243511E-01 6.509585679E-02 -8.861718293E-01
 5.653474927E-01 6.607161462E-02 -8.919893321E-01
 5.525731146E-01 6.693137437E-02 -8.697109719E-01
 5.404618382E-01 6.765865907E-02 -8.513345955E-01
 5.287044942E-01 6.828648597E-02 -8.545198416E-01
 5.163410306E-01 6.886665523E-02 -8.308462716E-01
 5.045659095E-01 6.934626028E-02 -8.284143378E-01
 4.926085025E-01 6.977276877E-02 -8.214194571E-01
 4.796155244E-01 7.014973834E-02 -7.954105212E-01
 4.663845301E-01 7.045216486E-02 -7.956417117E-01
 4.528189003E-01 7.067493349E-02 -7.668781680E-01
 4.396648109E-01 7.079607993E-02 -7.535905635E-01
 4.268113822E-01 7.083706558E-02 -7.419941891E-01
 4.140615165E-01 7.080843300E-02 -7.372942528E-01
 4.012852311E-01 7.069480419E-02 -7.087938363E-01
 3.887477368E-01 7.051219791E-02 -7.053572149E-01
 3.768084049E-01 7.027207315E-02 -6.813137442E-01
 3.641247451E-01 6.993404031E-02 -6.618061423E-01
 3.510472775E-01 6.951682270E-02 -6.553871081E-01
 3.382698298E-01 6.903403625E-02 -6.492147471E-01
 3.264896274E-01 6.851760671E-02 -6.281588306E-01
 3.148999065E-01 6.793843582E-02 -6.144995454E-01
 3.023399413E-01 6.724269688E-02 -5.963172744E-01
 2.891609371E-01 6.642978638E-02 -5.862023509E-01
 2.762063444E-01 6.555065513E-02 -5.724787417E-01
 2.642282248E-01 6.465474144E-02 -5.573477210E-01
 2.520971149E-01 6.366867200E-02 -5.392924293E-01
 2.396224961E-01 6.257195398E-02 -5.178795651E-01
 2.273114026E-01 6.141383015E-02 -5.094077878E-01
 2.152879536E-01 6.020067446E-02 -4.964578592E-01
 2.034127116E-01 5.890957080E-02 -4.783356505E-01
 1.913347468E-01 5.750411563E-02 -4.611573142E-01
 1.792781278E-01 5.600414984E-02 -4.381343330E-01
 1.675373837E-01 5.444953963E-02 -4.212522290E-01
 1.558698267E-01 5.281145126E-02 -4.091034123E-01
 1.445777193E-01 5.111690983E-02 -3.841488818E-01
 1.334440559E-01 4.933884367E-02 -3.673342059E-01
 1.222201139E-01 4.743518867E-02 -3.431157154E-01
 1.113468669E-01 4.546947405E-02 -3.220488438E-01
 1.010626629E-01 4.349417612E-02 -3.027582554E-01
 9.073036537E-02 4.136909358E-02 -2.760729101E-01
 7.974395528E-02 3.894662112E-02 -2.441335217E-01
 6.918798015E-02 3.644118644E-02 -2.198899944E-01
 7.274600118E-02 -4.019385576E-02 -2.652868703E-01
 9.296394885E-02 -4.488504492E-02 -3.206556115E-01
 1.038595587E-01 -4.712692648E-02 -3.431915560E-01
 1.151495874E-01 -4.927795567E-02 -3.645993106E-01
 1.267013699E-01 -5.132598430E-02 -3.852845739E-01
 1.377928481E-01 -5.316649936E-02 -4.130297282E-01
 1.486866400E-01 -5.484855175E-02 -4.293892869E-01
 1.603796333E-01 -5.653697252E-02 -4.464334537E-01
 1.721644774E-01 -5.813413300E-02 -4.705436675E-01
 1.837613285E-01 -5.959591083E-02 -4.961982875E-01
 1.949189976E-01 -6.090694293E-02 -5.120679029E-01
 2.059270591E-01 -6.211231090E-02 -5.372063728E-01
 2.176835015E-01 -6.329841912E-02 -5.548596625E-01
 2.297895849E-01 -6.442874670E-02 -5.781546318E-01
 2.417100444E-01 -6.543708965E-02 -6.146055862E-01
 2.537195161E-01 -6.634841487E-02 -6.225274067E-01
 2.653518170E-01 -6.714245304E-02 -6.590048262E-01
 2.770842165E-01 -6.783773378E-02 -6.802719115E-01
 2.893082947E-01 -6.846024469E-02 -7.145836697E-01
 3.017408252E-01 -6.897015497E-02 -7.432384099E-01
 3.140127659E-01 -6.935898960E-02 -7.744790624E-01
 3.261579126E-01 -6.962625310E-02 -7.936230825E-01
 3.377615213E-01 -6.977916136E-02 -8.215700197E-01
 3.488664478E-01 -6.981470808E-02 -8.405817222E-01
 3.601762354E-01 -6.974415481E-02 -8.721872469E-01
 3.711933941E-01 -6.956449151E-02 -8.919224039E-01
 3.826434463E-01 -6.927212328E-02 -9.093061859E-01
 3.951798230E-01 -6.881946325E-02 -9.314650109E-01
 4.079369158E-01 -6.822095066E-02 -9.813354041E-01
 4.204311520E-01 -6.749108806E-02 -8.807504823E-01
 4.329965711E-01 -6.662564352E-02 -4.981616383E-01
 4.455172718E-01 -6.563185155E-02 -4.974341774E-01
 4.578593969E-01 -6.453375891E-02 -5.186065762E-01
 4.701322764E-01 -6.333716586E-02 -4.890078077E-01
 4.823815078E-01 -6.203341298E-02 -4.519392260E-01
 4.946110100E-01 -6.062539667E-02 -4.075510465E-01
 5.076200962E-01 -5.903521925E-02 -3.611228176E-01
 5.210302770E-01 -5.732459389E-02 -3.250039799E-01
 5.338269770E-01 -5.561288819E-02 -2.925266108E-01
 5.466135442E-01 -5.382945761E-02 -2.517159015E-01
 5.597558916E-01 -5.192645080E-02 -2.162136300E-01
 5.728780627E-01 -4.997831583E-02 -1.722774736E-01
 5.858745575E-01 -4.801855050E-02 -1.463415492E-01
 5.988591611E-01 -4.602809437E-02 -1.107312425E-01
 6.121966243E-01 -4.397129081E-02 -8.638369354E-02
 6.258336306E-01 -4.183264822E-02 -5.886176845E-02
 6.396308541E-01 -3.964416124E-02 -2.637572692E-02
 6.529010534E-01 -3.752787411E-02 -1.830053440E-03
 6.658864617E-01 -3.544159047E-02 2.732440040E-02
 6.788020730E-01 -3.338631429E-02 5.134759589E-02
 6.911242306E-01 -3.143226542E-02 6.630464622E-02
 7.045298517E-01 -2.929100674E-02 9.393677477E-02
 7.184321582E-01 -2.708993759E-02 1.191016912E-01
 7.307915092E-01 -2.515299246E-02 1.359148261E-01
 7.432049215E-01 -2.319955453E-02 1.593351394E-01
 7.563512623E-01 -2.117655613E-02 1.843134407E-01
 7.694636583E-01 -1.917979401E-02 1.965344227E-01
 7.822020948E-01 -1.724670548E-02 2.294720591E-01
 7.949698865E-01 -1.539626019E-02 2.437990172E-01
 8.071509600E-01 -1.367090549E-02 2.550613224E-01
 8.181361258E-01 -1.210383652E-02 2.766032353E-01
 8.297444284E-01 -1.049165241E-02 3.055425118E-01
 8.421406448E-01 -8.869538084E-03 3.230190023E-01
 8.546445370E-01 -7.336819079E-03 3.381491391E-01
 8.662222922E-01 -5.979204550E-03 3.540832661E-01
 8.771692514E-01 -4.780204035E-03 3.752497314E-01
 8.891569376E-01 -3.601428471E-03 3.846436920E-01
 9.109550416E-01 -1.763873792E-03 4.122472698E-01
 9.215051830E-01 -1.061440271E-03 4.167481958E-01
 9.426368773E-01 -3.228552669E-05 4.232967244E-01
 9.555622339E-01 3.630760839E-04 4.262084209E-01
 9.695763290E-01 5.997676053E-04 4.305191109E-01
 9.829122722E-01 6.532051193E-04 4.447446401E-01
 9.945883155E-01 5.722683563E-04 5.065599704E-01
 -5.000000000E-01 9.500000000E-01 2.710075849E-02
 -5.000000000E-01 9.000000000E-01 4.096146835E-02
 -5.000000000E-01 8.500000000E-01 5.156657689E-02
 -5.000000000E-01 8.000000000E-01 6.086586915E-02
 -5.000000000E-01 7.500000000E-01 6.974481524E-02
 -5.000000000E-01 7.000000000E-01 7.854844938E-02
 -5.000000000E-01 6.500000000E-01 8.760560041E-02
 -5.000000000E-01 6.000000000E-01 9.668307404E-02
 -5.000000000E-01 5.500000000E-01 1.061356982E-01
 -5.000000000E-01 5.000000000E-01 1.156268944E-01
 -5.000000000E-01 4.500000000E-01 1.256580859E-01
 -5.000000000E-01 4.000000000E-01 1.353729588E-01
 -5.000000000E-01 3.500000000E-01 1.453253370E-01
 -5.000000000E-01 3.000000000E-01 1.545891697E-01
 -5.000000000E-01 2.500000000E-01 1.634346654E-01
 -5.000000000E-01 2.000000000E-01 1.712603978E-01
 -5.000000000E-01 1.500000000E-01 1.777754052E-01
 -5.000000000E-01 1.000000000E-01 1.827952080E-01
 -5.000000000E-01 5.000000000E-02 1.860349559E-01
 -5.000000000E-01 2.752242878E-12 1.874002028E-01
 -5.000000000E-01 -5.000000000E-02 1.866696463E-01
 -5.000000000E-01 -1.000000000E-01 1.838796273E-01
 -5.000000000E-01 -1.500000000E-01 1.792807307E-01
 -5.000000000E-01 -2.000000000E-01 1.731686620E-01
 -5.000000000E-01 -2.500000000E-01 1.656961014E-01
 -5.000000000E-01 -3.000000000E-01 1.572992708E-01
 -5.000000000E-01 -3.500000000E-01 1.481263536E-01
 -5.000000000E-01 -4.000000000E-01 1.386339318E-01
 -5.000000000E-01 -4.500000000E-01 1.289600445E-01
 -5.000000000E-01 -5.000000000E-01 1.192324153E-01
 -5.000000000E-01 -5.500000000E-01 1.096402009E-01
 -5.000000000E-01 -6.000000000E-01 1.000819508E-01
 -5.000000000E-01 -6.500000000E-01 9.093023694E-02
 -5.000000000E-01 -7.000000000E-01 8.193302085E-02
 -5.000000000E-01 -7.500000000E-01 7.283175016E-02
 -5.000000000E-01 -8.000000000E-01 6.378275795E-02
 -5.000000000E-01 -8.500000000E-01 5.414890766E-02
 -5.000000000E-01 -9.000000000E-01 4.290011758E-02
 -5.000000000E-01 -9.500000000E-01 2.858576329E-02
 -4.500000000E-01 -1.000000000E+00 2.366278464E-02
 -4.000000000E-01 -1.000000000E+00 3.496375985E-02
 -3.500000000E-01 -1.000000000E+00 4.206986837E-02
 -3.000000000E-01 -1.000000000E+00 4.656987347E-02
 -2.500000000E-01 -1.000000000E+00 4.926123188E-02
 -2.000000000E-01 -1.000000000E+00 5.012558062E-02
 -1.500000000E-01 -1.000000000E+00 4.912292339E-02
 -1.000000000E-01 -1.000000000E+00 4.635670228E-02
 -5.000000000E-02 -1.000000000E+00 4.177563760E-02
 -9.424683256E-13 -1.000000000E+00 3.547887644E-02
 5.000000000E-02 -1.000000000E+00 2.761269186E-02
 1.000000000E-01 -1.000000000E+00 1.823078545E-02
 1.500000000E-01 -1.000000000E+00 7.607798040E-03
 2.000000000E-01 -1.000000000E+00 -3.516494705E-03
 2.500000000E-01 -1.000000000E+00 -1.467870823E-02
 3.000000000E-01 -1.000000000E+00 -2.551893072E-02
 3.500000000E-01 -1.000000000E+00 -3.519528259E-02
 4.000000000E-01 -1.000000000E+00 -4.377831731E-02
 4.500000000E-01 -1.000000000E+00 -5.038050832E-02
 5.000000000E-01 -1.000000000E+00 -5.498678765E-02
 5.500000000E-01 -1.000000000E+00 -5.703180705E-02
 6.000000000E-01 -1.000000000E+00 -5.699021536E-02
 6.500000000E-01 -1.000000000E+00 -5.449665076E-02
 7.000000000E-01 -1.000000000E+00 -5.062967370E-02
 7.500000000E-01 -1.000000000E+00 -4.480679690E-02
 8.000000000E-01 -1.000000000E+00 -3.791980817E-02
 8.500000000E-01 -1.000000000E+00 -3.019827463E-02
 9.000000000E-01 -1.000000000E+00 -2.211038656E-02
 9.500000000E-01 -1.000000000E+00 -1.408200228E-02
 1.000000000E+00 -1.000000000E+00 -6.493805142E-03
 1.050000000E+00 -1.000000000E+00 7.413549982E-04
 1.100000000E+00 -1.000000000E+00 7.185379399E-03
 1.150000000E+00 -1.000000000E+00 1.293608281E-02
 1.200000000E+00 -1.000000000E+00 1.774360526E-02
 1.250000000E+00 -1.000000000E+00 2.201148535E-02
 1.300000000E+00 -1.000000000E+00 2.496580947E-02
 1.350000000E+00 -1.000000000E+00 2.784929763E-02
 1.400000000E+00 -1.000000000E+00 2.990928307E-02
 1.450000000E+00 -1.000000000E+00 3.131865025E-02
 1.500000000E+00 -1.000000000E+00 3.237667832E-02
 1.550000000E+00 -1.000000000E+00 3.296712137E-02
 1.600000000E+00 -1.000000000E+00 3.318986399E-02
 1.650000000E+00 -1.000000000E+00 3.318863533E-02
 1.700000000E+00 -1.000000000E+00 3.294031344E-02
 1.750000000E+00 -1.000000000E+00 3.249324812E-02
 1.800000000E+00 -1.000000000E+00 3.199382860E-02
 1.850000000E+00 -1.000000000E+00 3.130672800E-02
 1.900000000E+00 -1.000000000E+00 3.056209977E-02
 1.950000000E+00 -1.000000000E+00 2.992336640E-02
 2.000000000E+00 -1.000000000E+00 2.891567426E-02
 2.050000000E+00 -1.000000000E+00 2.821311164E-02
 2.100000000E+00 -1.000000000E+00 2.734303353E-02
 2.150000000E+00 -1.000000000E+00 2.646547979E-02
 2.200000000E+00 -1.000000000E+00 2.567368186E-02
 2.250000000E+00 -1.000000000E+00 2.493829586E-02
 2.300000000E+00 -1.000000000E+00 2.410863030E-02
 2.350000000E+00 -1.000000000E+00 2.342150271E-02
 2.400000000E+00 -1.000000000E+00 2.268661316E-02
 2.450000000E+00 -1.000000000E+00 2.203626853E-02
 2.500000000E+00 -1.000000000E+00 2.140346806E-02
 2.550000000E+00 -1.000000000E+00 2.084765800E-02
 2.600000000E+00 -1.000000000E+00 2.042571676E-02
 2.650000000E+00 -1.000000000E+00 1.986169652E-02
 2.700000000E+00 -1.000000000E+00 1.949986999E-02
 2.750000000E+00 -1.000000000E+00 1.905800258E-02
 2.800000000E+00 -1.000000000E+00 1.875119088E-02
 2.850000000E+00 -1.000000000E+00 1.843360229E-02
 2.900000000E+00 -1.000000000E+00 1.821570367E-02
 2.950000000E+00 -1.000000000E+00 1.795982106E-02
 3.000000000E+00 -1.000000000E+00 1.781924331E-02
 3.050000000E+00 -1.000000000E+00 1.758589933E-02
 3.100000000E+00 -1.000000000E+00 1.743363580E-02
 3.150000000E+00 -1.000000000E+00 1.721432245E-02
 3.200000000E+00 -1.000000000E+00 1.704100364E-02
 3.250000000E+00 -1.000000000E+00 1.671678039E-02
 3.300000000E+00 -1.000000000E+00 1.632158056E-02
 3.350000000E+00 -1.000000000E+00 1.558684476E-02
 3.400000000E+00 -1.000000000E+00 1.420508028E-02
 3.450000000E+00 -1.000000000E+00 1.094467259E-02
 3.500000000E+00 -9.500000000E-01 4.364411919E-03
 3.500000000E+00 -9.000000000E-01 6.788001340E-03
 3.500000000E+00 -8.500000000E-01 9.045383157E-03
 3.500000000E+00 -8.000000000E-01 1.106010737E-02
 3.500000000E+00 -7.500000000E-01 1.264463434E-02
 3.500000000E+00 -7.000000000E-01 1.412256373E-02
 3.500000000E+00 -6.500000000E-01 1.553146739E-02
 3.500000000E+00 -6.000000000E-01 1.709100616E-02
 3.500000000E+00 -5.500000000E-01 1.872890966E-02
 3.500000000E+00 -5.000000000E-01 2.042461117E-02
 3.500000000E+00 -4.500000000E-01 2.207879822E-02
 3.500000000E+00 -4.000000000E-01 2.387054935E-02
 3.500000000E+00 -3.500000000E-01 2.563313453E-02
 3.500000000E+00 -3.000000000E-01 2.724548567E-02
 3.500000000E+00 -2.500000000E-01 2.846616935E-02
 3.500000000E+00 -2.000000000E-01 2.905800024E-02
 3.500000000E+00 -1.500000000E-01 2.894737291E-02
 3.500000000E+00 -1.000000000E-01 2.846019848E-02
 3.500000000E+00 -5.000000000E-02 2.816545014E-02
 3.500000000E+00 -2.752242878E-12 2.836903947E-02
 3.500000000E+00 5.000000000E-02 2.881879557E-02
 3.500000000E+00 1.000000000E-01 2.898831433E-02
 3.500000000E+00 1.500000000E-01 2.850590176E-02
 3.500000000E+00 2.000000000E-01 2.735762285E-02
 3.500000000E+00 2.500000000E-01 2.577641075E-02
 3.500000000E+00 3.000000000E-01 2.400075038E-02
 3.500000000E+00 3.500000000E-01 2.226232320E-02
 3.500000000E+00 4.000000000E-01 2.047028627E-02
 3.500000000E+00 4.500000000E-01 1.868387213E-02
 3.500000000E+00 5.000000000E-01 1.691001100E-02
 3.500000000E+00 5.500000000E-01 1.534690885E-02
 3.500000000E+00 6.000000000E-01 1.430515646E-02
 3.500000000E+00 6.500000000E-01 1.386069148E-02
 3.500000000E+00 7.000000000E-01 1.317002592E-02
 3.500000000E+00 7.500000000E-01 1.041251964E-02
 3.500000000E+00 8.000000000E-01 3.721873473E-03
 3.500000000E+00 8.500000000E-01 -6.680402948E-03
 3.500000000E+00 9.000000000E-01 -1.922444319E-02
 3.500000000E+00 9.500000000E-01 -3.316511375E-02
 3.450000000E+00 1.000000000E+00 -1.413982654E-02
 3.400000000E+00 1.000000000E+00 -4.129785732E-03
 3.350000000E+00 1.000000000E+00 -6.529876513E-04
 3.300000000E+00 1.000000000E+00 1.331257434E-04
 3.250000000E+00 1.000000000E+00 5.124686512E-04
 3.200000000E+00 1.000000000E+00 -2.576457799E-04
 3.150000000E+00 1.000000000E+00 -4.136790289E-04
 3.100000000E+00 1.000000000E+00 -1.456124270E-03
 3.050000000E+00 1.000000000E+00 -2.212413544E-03
 3.000000000E+00 1.000000000E+00 -3.284840206E-03
 2.950000000E+00 1.000000000E+00 -4.075891212E-03
 2.900000000E+00 1.000000000E+00 -5.483075592E-03
 2.850000000E+00 1.000000000E+00 -6.137426911E-03
 2.800000000E+00 1.000000000E+00 -7.530119598E-03
 2.750000000E+00 1.000000000E+00 -8.431687627E-03
 2.700000000E+00 1.000000000E+00 -9.656664177E-03
 2.650000000E+00 1.000000000E+00 -1.094372743E-02
 2.600000000E+00 1.000000000E+00 -1.203735245E-02
 2.550000000E+00 1.000000000E+00 -1.325202729E-02
 2.500000000E+00 1.000000000E+00 -1.458786419E-02
 2.450000000E+00 1.000000000E+00 -1.613728781E-02
 2.400000000E+00 1.000000000E+00 -1.760235681E-02
 2.350000000E+00 1.000000000E+00 -1.909456746E-02
 2.300000000E+00 1.000000000E+00 -2.076413669E-02
 2.250000000E+00 1.000000000E+00 -2.248621479E-02
 2.200000000E+00 1.000000000E+00 -2.419700112E-02
 2.150000000E+00 1.000000000E+00 -2.623976378E-02
 2.100000000E+00 1.000000000E+00 -2.813606747E-02
 2.050000000E+00 1.000000000E+00 -3.051109133E-02
 2.000000000E+00 1.000000000E+00 -3.299359588E-02
 1.950000000E+00 1.000000000E+00 -3.557707099E-02
 1.900000000E+00 1.000000000E+00 -3.846245066E-02
 1.850000000E+00 1.000000000E+00 -4.120352256E-02
 1.800000000E+00 1.000000000E+00 -4.475136984E-02
 1.750000000E+00 1.000000000E+00 -4.842906672E-02
 1.700000000E+00 1.000000000E+00 -5.222752904E-02
 1.650000000E+00 1.000000000E+00 -5.661697494E-02
 1.600000000E+00 1.000000000E+00 -6.114510380E-02
 1.550000000E+00 1.000000000E+00 -6.657583512E-02
 1.500000000E+00 1.000000000E+00 -7.215714629E-02
 1.450000000E+00 1.000000000E+00 -7.834462243E-02
 1.400000000E+00 1.000000000E+00 -8.524268548E-02
 1.350000000E+00 1.000000000E+00 -9.221138897E-02
 1.300000000E+00 1.000000000E+00 -9.990812022E-02
 1.250000000E+00 1.000000000E+00 -1.082394034E-01
 1.200000000E+00 1.000000000E+00 -1.163812166E-01
 1.150000000E+00 1.000000000E+00 -1.252330530E-01
 1.100000000E+00 1.000000000E+00 -1.338825999E-01
 1.050000000E+00 1.000000000E+00 -1.418567689E-01
 1.000000000E+00 1.000000000E+00 -1.495131169E-01
 9.500000000E-01 1.000000000E+00 -1.560672316E-01
 9.000000000E-01 1.000000000E+00 -1.607298699E-01
 8.500000000E-01 1.000000000E+00 -1.643849047E-01
 8.000000000E-01 1.000000000E+00 -1.651673798E-01
 7.500000000E-01 1.000000000E+00 -1.634648404E-01
 7.000000000E-01 1.000000000E+00 -1.594498116E-01
 6.500000000E-01 1.000000000E+00 -1.519067148E-01
 6.000000000E-01 1.000000000E+00 -1.425633815E-01
 5.500000000E-01 1.000000000E+00 -1.306298617E-01
 5.000000000E-01 1.000000000E+00 -1.167057221E-01
 4.500000000E-01 1.000000000E+00 -1.016062878E-01
 4.000000000E-01 1.000000000E+00 -8.506791541E-02
 3.500000000E-01 1.000000000E+00 -6.887429470E-02
 3.000000000E-01 1.000000000E+00 -5.171450483E-02
 2.500000000E-01 1.000000000E+00 -3.550204287E-02
 2.000000000E-01 1.000000000E+00 -2.015394092E-02
 1.500000000E-01 1.000000000E+00 -5.606580407E-03
 1.000000000E-01 1.000000000E+00 7.266094980E-03
 5.000000000E-02 1.000000000E+00 1.851450325E-02
 1.733724275E-12 1.000000000E+00 2.815674702E-02
 -5.000000000E-02 1.000000000E+00 3.565486644E-02
 -1.000000000E-01 1.000000000E+00 4.120641115E-02
 -1.500000000E-01 1.000000000E+00 4.474945233E-02
 -2.000000000E-01 1.000000000E+00 4.637708349E-02
 -2.500000000E-01 1.000000000E+00 4.600219197E-02
 -3.000000000E-01 1.000000000E+00 4.392201941E-02
 -3.500000000E-01 1.000000000E+00 3.987244589E-02
 -4.000000000E-01 1.000000000E+00 3.317109314E-02
 -4.500000000E-01 1.000000000E+00 2.239807113E-02
 9.138229025E-01 -6.316799726E-03 4.038158865E-01
 8.336356753E-01 -1.509783928E-02 3.045692618E-01
 7.604593452E-01 -2.633918580E-02 1.821255267E-01
 6.888289061E-01 -3.689226001E-02 6.186956706E-02
 9.859387473E-01 -4.332628064E-03 4.438861332E-01
 6.224833827E-01 -4.813523927E-02 -6.654288792E-02
 5.580263995E-01 -5.787881614E-02 -2.185367792E-01
 4.913414899E-01 -6.606051772E-02 -4.138801418E-01
 4.365554935E-01 -7.155367288E-02 -4.538126313E-01
 3.793223960E-01 -7.412293226E-02 -8.925961952E-01
 3.233904953E-01 -7.485656787E-02 -7.790972754E-01