TITLE     = "Visualization of the solution"
VARIABLES = "x"
"y"
"Pressure_Coefficient"
ZONE T="Zone"
 STRANDID=0, SOLUTIONTIME=0
 Nodes=11918, Elements=23256, ZONETYPE=FEQuadrilateral
 DATAPACKING=POINT
 DT=(DOUBLE DOUBLE DOUBLE )
 9.997286797E-01 5.217997241E-04 2.800224509E-01
 9.886749983E-01 2.339122351E-03 1.981906213E-01
 9.782185555E-01 4.069041926E-03 1.228825919E-01
 9.657612443E-01 6.053734105E-03 7.936474506E-02
 9.535403848E-01 8.035198785E-03 2.683123541E-02
 9.413642287E-01 9.960652329E-03 -1.408865291E-02
 9.307239652E-01 1.161530521E-02 -4.858966421E-02
 9.182152152E-01 1.354177576E-02 -1.005866038E-01
 9.066619277E-01 1.521176472E-02 -1.318255478E-01
 8.938658237E-01 1.696345583E-02 -1.601339178E-01
 8.807598352E-01 1.864025369E-02 -1.769554918E-01
 8.686444759E-01 2.011165954E-02 -1.871231800E-01
 8.555027246E-01 2.166843787E-02 -2.120736118E-01
 8.430895209E-01 2.302001789E-02 -2.089016121E-01
 8.308669925E-01 2.433728613E-02 -2.205488293E-01
 8.168205023E-01 2.578420378E-02 -2.253739973E-01
 8.033335209E-01 2.715017460E-02 -2.378138156E-01
 7.911614180E-01 2.835669182E-02 -2.519139142E-01
 7.783464193E-01 2.957301028E-02 -2.571816310E-01
 7.655442953E-01 3.077048250E-02 -2.700679211E-01
 7.521950603E-01 3.198150918E-02 -2.814174657E-01
 7.377486229E-01 3.325362504E-02 -2.953030093E-01
 7.265021801E-01 3.421044722E-02 -3.050470195E-01
 7.151879072E-01 3.515615687E-02 -3.193828949E-01
 7.031012177E-01 3.611642495E-02 -3.237219105E-01
 6.889971495E-01 3.722710535E-02 -3.470260239E-01
 6.752189994E-01 3.823920339E-02 -3.575753194E-01
 6.650696993E-01 3.895062953E-02 -3.623429378E-01
 6.533262134E-01 3.976492956E-02 -3.840280522E-01
 6.421300173E-01 4.048561677E-02 -3.909110272E-01
 6.298779845E-01 4.123049602E-02 -3.994434942E-01
 6.187892556E-01 4.187848791E-02 -4.152514889E-01
 6.072748303E-01 4.250017554E-02 -4.236997501E-01
 5.938690305E-01 4.316761717E-02 -4.352528827E-01
 5.813544989E-01 4.372704029E-02 -4.385582384E-01
 5.673214793E-01 4.429732636E-02 -4.480480804E-01
 5.544076562E-01 4.476686195E-02 -4.588544825E-01
 5.417290330E-01 4.515853524E-02 -4.648584088E-01
 5.307847261E-01 4.544557258E-02 -4.646795163E-01
 5.184867382E-01 4.570899904E-02 -4.621137001E-01
 5.052477717E-01 4.594094306E-02 -4.667957532E-01
 4.940398633E-01 4.607334733E-02 -4.581155383E-01
 4.806894660E-01 4.618752375E-02 -4.612773103E-01
 4.675637484E-01 4.623064771E-02 -4.550461179E-01
 4.527640939E-01 4.618873447E-02 -4.412277993E-01
 4.386811256E-01 4.610064253E-02 -4.390232829E-01
 4.253889620E-01 4.594851285E-02 -4.303519362E-01
 4.122524261E-01 4.573925585E-02 -4.208844054E-01
 4.001408219E-01 4.549708217E-02 -4.106813477E-01
 3.881075680E-01 4.521576688E-02 -4.020284004E-01
 3.760173619E-01 4.488996044E-02 -3.940284680E-01
 3.655416071E-01 4.457376152E-02 -3.842780254E-01
 3.528113961E-01 4.415487498E-02 -3.793343217E-01
 3.414276838E-01 4.373573884E-02 -3.698121089E-01
 3.294183910E-01 4.325574636E-02 -3.626976985E-01
 3.191320598E-01 4.280824587E-02 -3.516128241E-01
 3.072949350E-01 4.226071015E-02 -3.409909996E-01
 2.943810821E-01 4.163196683E-02 -3.342135975E-01
 2.807760537E-01 4.092181474E-02 -3.265688136E-01
 2.678400874E-01 4.019983858E-02 -3.190384738E-01
 2.560098469E-01 3.949863091E-02 -3.102348745E-01
 2.435081005E-01 3.871527687E-02 -3.005486661E-01
 2.307845354E-01 3.788159415E-02 -2.947592268E-01
 2.187760174E-01 3.704994917E-02 -2.870093654E-01
 2.075295299E-01 3.623395413E-02 -2.804270510E-01
 1.969968230E-01 3.543945029E-02 -2.752652800E-01
 1.850411296E-01 3.449236229E-02 -2.689276761E-01
 1.733779907E-01 3.352307156E-02 -2.634754337E-01
 1.621162295E-01 3.253549710E-02 -2.539255874E-01
 1.502382159E-01 3.144970164E-02 -2.490490406E-01
 1.399433762E-01 3.047196008E-02 -2.482395407E-01
 1.288149357E-01 2.934754826E-02 -2.398865374E-01
 1.173099428E-01 2.812558599E-02 -2.359538850E-01
 1.067865863E-01 2.694719285E-02 -2.321436450E-01
 9.719065577E-02 2.580712177E-02 -2.282393459E-01
 8.588255942E-02 2.437904105E-02 -2.236660195E-01
 7.361403108E-02 2.269768715E-02 -2.194564045E-01
 6.387792528E-02 2.125069685E-02 -2.145897477E-01
 5.419994146E-02 1.968098804E-02 -2.120681790E-01
 4.527767003E-02 1.809347421E-02 -2.095510878E-01
 3.773462400E-02 1.659182832E-02 -2.055039863E-01
 3.130754456E-02 1.518332399E-02 -1.963015216E-01
 2.562049776E-02 1.378118247E-02 -1.873261098E-01
 2.157494612E-02 1.267333794E-02 -1.780997769E-01
 1.790026389E-02 1.156410947E-02 -1.668423216E-01
 1.533567626E-02 1.070768945E-02 -1.388631166E-01
 1.304336730E-02 9.868693538E-03 -1.187551651E-01
 1.135797799E-02 9.202654473E-03 -1.009575733E-01
 9.804626927E-03 8.535151370E-03 -8.167293269E-02
 8.310581557E-03 7.843457162E-03 -2.923904354E-02
 6.297227927E-03 6.791575346E-03 2.797340852E-02
 4.496793263E-03 5.693344399E-03 1.076681864E-01
 2.832097700E-03 4.467486404E-03 3.040981927E-01
 1.179841813E-03 2.866467694E-03 5.150777395E-01
 2.185687044E-04 1.533313305E-03 7.281890898E-01
 -2.805101685E-04 4.879174812E-04 9.220879027E-01
 -6.091760006E-04 -7.951294538E-04 1.109735021E+00
 -6.029814249E-04 -2.347498666E-03 1.189793632E+00
 -1.193435091E-04 -4.042159766E-03 1.101606364E+00
 9.748741868E-04 -5.925728474E-03 9.137010427E-01
 2.737587085E-03 -7.901151665E-03 6.985448288E-01
 4.353688098E-03 -9.295854717E-03 5.121455075E-01
 6.303021684E-03 -1.070632599E-02 4.303247317E-01
 7.729558274E-03 -1.161207724E-02 3.392475860E-01
 9.560844861E-03 -1.266863197E-02 2.807385857E-01
 1.179835200E-02 -1.383151207E-02 2.175686019E-01
 1.484985463E-02 -1.525900140E-02 1.537243747E-01
 1.784723066E-02 -1.651949063E-02 9.051481624E-02
 2.169692330E-02 -1.798477024E-02 4.546955700E-02
 2.705317177E-02 -1.981264353E-02 -1.712357407E-03
 3.269001842E-02 -2.153452858E-02 -4.717608801E-02
 4.040289298E-02 -2.364455909E-02 -8.337369328E-02
 4.781140015E-02 -2.547237463E-02 -1.151920682E-01
 5.670021102E-02 -2.746559866E-02 -1.377928185E-01
 6.523233652E-02 -2.922029048E-02 -1.620489265E-01
 7.555219531E-02 -3.117727116E-02 -1.811612492E-01
 8.550158888E-02 -3.293000162E-02 -2.010526233E-01
 9.591450542E-02 -3.463874757E-02 -2.171857038E-01
 1.065962538E-01 -3.628074005E-02 -2.317555235E-01
 1.182928830E-01 -3.797294945E-02 -2.487083481E-01
 1.295861155E-01 -3.950912133E-02 -2.654487687E-01
 1.402254701E-01 -4.088138416E-02 -2.824028730E-01
 1.510177553E-01 -4.219381511E-02 -2.942823362E-01
 1.629670709E-01 -4.358100146E-02 -3.136258849E-01
 1.745431721E-01 -4.483895749E-02 -3.272418113E-01
 1.865859032E-01 -4.608450457E-02 -3.466294369E-01
 1.972117573E-01 -4.711973295E-02 -3.639716307E-01
 2.082893401E-01 -4.813794047E-02 -3.799327192E-01
 2.206746489E-01 -4.920144379E-02 -3.967105827E-01
 2.334200740E-01 -5.021829531E-02 -4.149249819E-01
 2.461847514E-01 -5.116970837E-02 -4.428196304E-01
 2.594929039E-01 -5.205390230E-02 -4.608706769E-01
 2.710465789E-01 -5.275179446E-02 -4.821332668E-01
 2.843601108E-01 -5.346598476E-02 -5.026517644E-01
 2.979151011E-01 -5.409400538E-02 -5.294278100E-01
 3.111101985E-01 -5.459965765E-02 -5.550740174E-01
 3.230166733E-01 -5.495723709E-02 -5.773695027E-01
 3.353788257E-01 -5.522610247E-02 -5.910383146E-01
 3.463810682E-01 -5.538745597E-02 -6.160308734E-01
 3.575987518E-01 -5.544846877E-02 -6.263168465E-01
 3.686917126E-01 -5.542824417E-02 -6.393961643E-01
 3.792839944E-01 -5.531245470E-02 -6.502167811E-01
 3.905214667E-01 -5.508962274E-02 -6.447376217E-01
 4.031236470E-01 -5.471749231E-02 -6.334873773E-01
 4.151840210E-01 -5.422753096E-02 -6.128137981E-01
 4.284425974E-01 -5.355870351E-02 -5.863975711E-01
 4.414617419E-01 -5.274519697E-02 -5.542205155E-01
 4.544053674E-01 -5.180481076E-02 -5.206756272E-01
 4.669616222E-01 -5.074471608E-02 -4.772949448E-01
 4.794176519E-01 -4.957466945E-02 -4.306464444E-01
 4.908303916E-01 -4.843065888E-02 -4.062817667E-01
 5.027083755E-01 -4.710442573E-02 -3.503399056E-01
 5.163237453E-01 -4.552611709E-02 -3.105175611E-01
 5.302689075E-01 -4.379619285E-02 -2.635390252E-01
 5.437954068E-01 -4.205350205E-02 -2.235607864E-01
 5.574302077E-01 -4.025123641E-02 -1.918815185E-01
 5.694492459E-01 -3.858673945E-02 -1.511905283E-01
 5.825718641E-01 -3.675711155E-02 -1.200343757E-01
 5.941504240E-01 -3.512151912E-02 -9.335880739E-02
 6.056169868E-01 -3.346654773E-02 -5.930930262E-02
 6.186814904E-01 -3.161147237E-02 -3.877999842E-02
 6.324782372E-01 -2.961487882E-02 -5.458845057E-03
 6.458599567E-01 -2.770199254E-02 1.826146901E-02
 6.590552330E-01 -2.582165971E-02 4.340798649E-02
 6.725243926E-01 -2.393573150E-02 6.109210029E-02
 6.851575971E-01 -2.216685750E-02 8.224125992E-02
 6.976327896E-01 -2.042920329E-02 1.036441057E-01
 7.118226290E-01 -1.848149672E-02 1.243238411E-01
 7.244007587E-01 -1.675913110E-02 1.507830935E-01
 7.358120084E-01 -1.525797229E-02 1.655164568E-01
 7.477244735E-01 -1.374675520E-02 1.749290732E-01
 7.601172924E-01 -1.218549628E-02 1.913493968E-01
 7.722689509E-01 -1.066100039E-02 2.153794769E-01
 7.839258909E-01 -9.273738600E-03 2.281119244E-01
 7.962953448E-01 -7.846828550E-03 2.456570323E-01
 8.075381517E-01 -6.606385112E-03 2.611361848E-01
 8.193176985E-01 -5.399088375E-03 2.682827348E-01
 8.314265609E-01 -4.179917742E-03 2.886274515E-01
 8.434052467E-01 -3.070457140E-03 3.024765935E-01
 8.556481600E-01 -2.048650524E-03 3.126088230E-01
 8.682705760E-01 -1.097786357E-03 3.228112627E-01
 8.807562590E-01 -2.618831058E-04 3.356301003E-01
 8.942079544E-01 4.734808754E-04 3.425004844E-01
 9.045718908E-01 9.138959576E-04 3.435259954E-01
 9.141557217E-01 1.248259679E-03 3.459703808E-01
 9.232595563E-01 1.482202322E-03 3.476322834E-01
 9.321538806E-01 1.634378801E-03 3.467893514E-01
 9.451901913E-01 1.732417149E-03 3.418755218E-01
 9.590893388E-01 1.679211971E-03 3.373668497E-01
 9.753266573E-01 1.417896943E-03 3.338258573E-01
 9.889656305E-01 1.010347391E-03 3.351466853E-01
 -5.000000000E-01 -1.000000000E+00 1.126644848E-02
 3.500000000E+00 -1.000000000E+00 4.307383872E-03
 3.500000000E+00 1.000000000E+00 -1.277381889E-02
 -5.000000000E-01 1.000000000E+00 1.026132668E-02
 9.942018390E-01 1.430461038E-03 2.698532638E-01
 9.834467769E-01 3.204082139E-03 1.508666203E-01
 9.719898999E-01 5.061388016E-03 1.012000146E-01
 9.596508145E-01 7.044466445E-03 5.058181590E-02
 9.474523067E-01 8.997925557E-03 5.458861634E-03
 9.360440969E-01 1.078797877E-02 -2.961859441E-02
 9.244695902E-01 1.257854048E-02 -7.726712062E-02
 9.124385715E-01 1.437677024E-02 -1.175749569E-01
 9.002638757E-01 1.608761027E-02 -1.472918970E-01
 8.873128295E-01 1.780185476E-02 -1.691281679E-01
 8.747021556E-01 1.937595662E-02 -1.794727329E-01
 8.620736003E-01 2.089004871E-02 -2.038414049E-01
 8.492961228E-01 2.234422788E-02 -2.074035849E-01
 8.369782567E-01 2.367865201E-02 -2.164848341E-01
 8.238437474E-01 2.506074496E-02 -2.217772347E-01
 8.100770116E-01 2.646718919E-02 -2.306253711E-01
 7.972474694E-01 2.775343321E-02 -2.467480769E-01
 7.847539186E-01 2.896485105E-02 -2.533144560E-01
 7.719453573E-01 3.017174639E-02 -2.638813485E-01
 7.588696778E-01 3.137599584E-02 -2.757906095E-01
 7.449718416E-01 3.261756711E-02 -2.885553844E-01
 7.321254015E-01 3.373203613E-02 -2.989163589E-01
 7.208450437E-01 3.468330204E-02 -3.145794796E-01
 7.091445625E-01 3.563629091E-02 -3.189283782E-01
 6.960491836E-01 3.667176515E-02 -3.372936344E-01
 6.821080744E-01 3.773315437E-02 -3.527804612E-01
 6.701443493E-01 3.859491646E-02 -3.572993361E-01
 6.591979563E-01 3.935777955E-02 -3.747815923E-01
 6.477281153E-01 4.012527317E-02 -3.886533374E-01
 6.360040009E-01 4.085805640E-02 -3.930603186E-01
 6.243336201E-01 4.155449197E-02 -4.086031738E-01
 6.130320430E-01 4.218933173E-02 -4.198712103E-01
 6.005719304E-01 4.283389635E-02 -4.300369478E-01
 5.876117647E-01 4.344732873E-02 -4.370156776E-01
 5.743379891E-01 4.401218332E-02 -4.422468400E-01
 5.608645678E-01 4.453209415E-02 -4.546129785E-01
 5.480683446E-01 4.496269859E-02 -4.613763436E-01
 5.362568796E-01 4.530205391E-02 -4.662737662E-01
 5.246357322E-01 4.557728581E-02 -4.622412741E-01
 5.118672550E-01 4.582497105E-02 -4.655918825E-01
 4.996438175E-01 4.600714520E-02 -4.616693385E-01
 4.873646647E-01 4.613043554E-02 -4.596516137E-01
 4.741266072E-01 4.620908573E-02 -4.612751590E-01
 4.601639211E-01 4.620969109E-02 -4.457213360E-01
 4.457226098E-01 4.614468850E-02 -4.406683391E-01
 4.320350438E-01 4.602457769E-02 -4.350210921E-01
 4.188206941E-01 4.584388435E-02 -4.253193266E-01
 4.061966240E-01 4.561816901E-02 -4.153198341E-01
 3.941241950E-01 4.535642453E-02 -4.064900617E-01
 3.820624650E-01 4.505286366E-02 -3.975248955E-01
 3.707794845E-01 4.473186098E-02 -3.891560595E-01
 3.591765016E-01 4.436431825E-02 -3.819753228E-01
 3.471195400E-01 4.394530691E-02 -3.746331535E-01
 3.354230374E-01 4.349574260E-02 -3.659152146E-01
 3.242752254E-01 4.303199612E-02 -3.575763623E-01
 3.132134974E-01 4.253447801E-02 -3.457942478E-01
 3.008380085E-01 4.194633849E-02 -3.382044076E-01
 2.875785679E-01 4.127689078E-02 -3.304181579E-01
 2.743080705E-01 4.056082666E-02 -3.223544424E-01
 2.619249672E-01 3.984923474E-02 -3.151630286E-01
 2.497589737E-01 3.910695389E-02 -3.048283869E-01
 2.371463180E-01 3.829843551E-02 -2.977964107E-01
 2.247802764E-01 3.746577166E-02 -2.907600341E-01
 2.131527737E-01 3.664195165E-02 -2.830273440E-01
 2.022631764E-01 3.583670221E-02 -2.786915358E-01
 1.910189763E-01 3.496590629E-02 -2.719409900E-01
 1.792095602E-01 3.400771692E-02 -2.666046634E-01
 1.677471101E-01 3.302928433E-02 -2.588068918E-01
 1.561772227E-01 3.199259937E-02 -2.499555505E-01
 1.450907961E-01 3.096083086E-02 -2.504655608E-01
 1.343791559E-01 2.990975417E-02 -2.440343858E-01
 1.230624393E-01 2.873656712E-02 -2.369580619E-01
 1.120482646E-01 2.753638942E-02 -2.354928586E-01
 9.153660759E-02 2.509308141E-02 -2.282995178E-01
 7.974829525E-02 2.353836410E-02 -2.214883220E-01
 7.039226592E-02 -3.019878082E-02 -1.739860749E-01
 8.052689210E-02 -3.205363639E-02 -1.921119796E-01
 9.070804715E-02 -3.378437459E-02 -2.095448123E-01
 1.012553796E-01 -3.545974381E-02 -2.247743744E-01
 1.124445684E-01 -3.712684475E-02 -2.395352451E-01
 1.239394993E-01 -3.874103539E-02 -2.581277988E-01
 1.349057928E-01 -4.019525275E-02 -2.740913835E-01
 1.456216127E-01 -4.153759964E-02 -2.892519346E-01
 1.569924131E-01 -4.288740829E-02 -3.019134963E-01
 1.687551215E-01 -4.420997947E-02 -3.222272333E-01
 1.805645376E-01 -4.546173103E-02 -3.349112126E-01
 1.918988302E-01 -4.660211876E-02 -3.569054647E-01
 2.027505487E-01 -4.762883671E-02 -3.712697776E-01
 2.144819945E-01 -4.866969213E-02 -3.879035183E-01
 2.270473614E-01 -4.970986955E-02 -4.055376195E-01
 2.398024127E-01 -5.069400184E-02 -4.270727952E-01
 2.528388277E-01 -5.161180533E-02 -4.536541073E-01
 2.652697414E-01 -5.240284838E-02 -4.712428430E-01
 2.777033448E-01 -5.310888961E-02 -4.911587839E-01
 2.911376059E-01 -5.377999507E-02 -5.155669666E-01
 3.045126498E-01 -5.434683152E-02 -5.425848338E-01
 3.170634359E-01 -5.477844737E-02 -5.678914140E-01
 3.291977495E-01 -5.509166978E-02 -5.842298247E-01
 3.408799469E-01 -5.530677922E-02 -6.026911686E-01
 3.519899100E-01 -5.541796237E-02 -6.240696299E-01
 3.631452322E-01 -5.543835647E-02 -6.303890233E-01
 3.739878535E-01 -5.537034944E-02 -6.473901616E-01
 3.849027306E-01 -5.520103872E-02 -6.482670067E-01
 3.968225569E-01 -5.490355752E-02 -6.383340668E-01
 4.091538340E-01 -5.447251163E-02 -6.259758483E-01
 4.218133092E-01 -5.389311723E-02 -5.977172954E-01
 4.349521697E-01 -5.315195024E-02 -5.729857250E-01
 4.479335546E-01 -5.227500387E-02 -5.363422712E-01
 4.606834948E-01 -5.127476342E-02 -5.021687743E-01
 4.731896371E-01 -5.015969276E-02 -4.533148050E-01
 4.851240218E-01 -4.900266416E-02 -4.163117115E-01
 4.967693835E-01 -4.776754230E-02 -3.840297473E-01
 5.095160604E-01 -4.631527141E-02 -3.259530112E-01
 5.232963264E-01 -4.466115497E-02 -2.899031297E-01
 5.370321572E-01 -4.292484745E-02 -2.423061865E-01
 5.506128073E-01 -4.115236923E-02 -2.066476513E-01
 5.634397268E-01 -3.941898793E-02 -1.741694676E-01
 5.760105550E-01 -3.767192550E-02 -1.337173788E-01
 5.883611441E-01 -3.593931533E-02 -1.065714870E-01
 5.998837054E-01 -3.429403342E-02 -7.796579786E-02
 6.121492386E-01 -3.253901005E-02 -4.737150229E-02
 6.255798638E-01 -3.061317559E-02 -2.401092183E-02
 6.391690969E-01 -2.865843568E-02 7.609564555E-03
 6.524575949E-01 -2.676182613E-02 3.038671649E-02
 6.657898128E-01 -2.487869561E-02 5.319485885E-02
 6.788409948E-01 -2.305129450E-02 7.111654991E-02
 6.913951933E-01 -2.129803039E-02 9.293283102E-02
 7.047277093E-01 -1.945535000E-02 1.137265487E-01
 7.181116939E-01 -1.762031391E-02 1.367444393E-01
 7.301063836E-01 -1.600855170E-02 1.600237343E-01
 7.417682409E-01 -1.450236375E-02 1.710386066E-01
 7.539208829E-01 -1.296612574E-02 1.821110801E-01
 7.661931217E-01 -1.142324833E-02 2.018201996E-01
 7.780974209E-01 -9.967369493E-03 2.230952421E-01
 7.901106179E-01 -8.560283575E-03 2.359650720E-01
 8.019167483E-01 -7.226606831E-03 2.537200778E-01
 8.134279251E-01 -6.002736744E-03 2.657535185E-01
 8.253721297E-01 -4.789503058E-03 2.762282940E-01
 8.374159038E-01 -3.625187441E-03 2.959853396E-01
 8.495267034E-01 -2.559553832E-03 3.076914364E-01
 8.619593680E-01 -1.573218440E-03 3.172173317E-01
 8.745134175E-01 -6.798347313E-04 3.290459156E-01
 8.874821067E-01 1.057988848E-04 3.390008519E-01
 8.993899226E-01 6.936884165E-04 3.463363100E-01
 9.386720359E-01 1.683397975E-03 3.425781332E-01
 9.521397650E-01 1.705814560E-03 3.392245204E-01
 9.672079980E-01 1.548554457E-03 3.338397247E-01
 9.821461439E-01 1.214122167E-03 3.353588884E-01
 9.943471551E-01 7.660735573E-04 3.631214210E-01
 -5.000000000E-01 9.500000000E-01 1.678785685E-02
 -5.000000000E-01 9.000000000E-01 2.537753955E-02
 -5.000000000E-01 8.500000000E-01 3.195877006E-02
 -5.000000000E-01 8.000000000E-01 3.783859187E-02
 -5.000000000E-01 7.500000000E-01 4.342390735E-02
 -5.000000000E-01 7.000000000E-01 4.907209297E-02
 -5.000000000E-01 6.500000000E-01 5.476886794E-02
 -5.000000000E-01 6.000000000E-01 6.050466314E-02
 -5.000000000E-01 5.500000000E-01 6.660557232E-02
 -5.000000000E-01 5.000000000E-01 7.280614865E-02
 -5.000000000E-01 4.500000000E-01 7.915530450E-02
 -5.000000000E-01 4.000000000E-01 8.551457656E-02
 -5.000000000E-01 3.500000000E-01 9.187249658E-02
 -5.000000000E-01 3.000000000E-01 9.798627882E-02
 -5.000000000E-01 2.500000000E-01 1.037875860E-01
 -5.000000000E-01 2.000000000E-01 1.090603049E-01
 -5.000000000E-01 1.500000000E-01 1.134274056E-01
 -5.000000000E-01 1.000000000E-01 1.169099147E-01
 -5.000000000E-01 5.000000000E-02 1.192301413E-01
 -5.000000000E-01 2.752242878E-12 1.203791114E-01
 -5.000000000E-01 -5.000000000E-02 1.201663473E-01
 -5.000000000E-01 -1.000000000E-01 1.186925566E-01
 -5.000000000E-01 -1.500000000E-01 1.160614835E-01
 -5.000000000E-01 -2.000000000E-01 1.122776897E-01
 -5.000000000E-01 -2.500000000E-01 1.076242066E-01
 -5.000000000E-01 -3.000000000E-01 1.023381380E-01
 -5.000000000E-01 -3.500000000E-01 9.652061842E-02
 -5.000000000E-01 -4.000000000E-01 9.041017745E-02
 -5.000000000E-01 -4.500000000E-01 8.412021002E-02
 -5.000000000E-01 -5.000000000E-01 7.781979156E-02
 -5.000000000E-01 -5.500000000E-01 7.153917746E-02
 -5.000000000E-01 -6.000000000E-01 6.538503219E-02
 -5.000000000E-01 -6.500000000E-01 5.933323221E-02
 -5.000000000E-01 -7.000000000E-01 5.337459007E-02
 -5.000000000E-01 -7.500000000E-01 4.749348617E-02
 -5.000000000E-01 -8.000000000E-01 4.150616196E-02
 -5.000000000E-01 -8.500000000E-01 3.520467987E-02
 -5.000000000E-01 -9.000000000E-01 2.790132727E-02
 -5.000000000E-01 -9.500000000E-01 1.850318537E-02
 -4.500000000E-01 -1.000000000E+00 1.528271327E-02
 -4.000000000E-01 -1.000000000E+00 2.267789488E-02
 -3.500000000E-01 -1.000000000E+00 2.734768858E-02
 -3.000000000E-01 -1.000000000E+00 3.033579927E-02
 -2.500000000E-01 -1.000000000E+00 3.203717369E-02
 -2.000000000E-01 -1.000000000E+00 3.253534715E-02
 -1.500000000E-01 -1.000000000E+00 3.181217089E-02
 -1.000000000E-01 -1.000000000E+00 2.983284754E-02
 -5.000000000E-02 -1.000000000E+00 2.659030836E-02
 -9.424683256E-13 -1.000000000E+00 2.213840280E-02
 5.000000000E-02 -1.000000000E+00 1.655222495E-02
 1.000000000E-01 -1.000000000E+00 1.000485133E-02
 1.500000000E-01 -1.000000000E+00 2.787825052E-03
 2.000000000E-01 -1.000000000E+00 -4.822046549E-03
 2.500000000E-01 -1.000000000E+00 -1.250200827E-02
 3.000000000E-01 -1.000000000E+00 -1.992641803E-02
 3.500000000E-01 -1.000000000E+00 -2.679460617E-02
 4.000000000E-01 -1.000000000E+00 -3.248636893E-02
 4.500000000E-01 -1.000000000E+00 -3.681823316E-02
 5.000000000E-01 -1.000000000E+00 -3.954204765E-02
 5.500000000E-01 -1.000000000E+00 -4.073880998E-02
 6.000000000E-01 -1.000000000E+00 -4.026881805E-02
 6.500000000E-01 -1.000000000E+00 -3.814834583E-02
 7.000000000E-01 -1.000000000E+00 -3.482365017E-02
 7.500000000E-01 -1.000000000E+00 -3.031693917E-02
 8.000000000E-01 -1.000000000E+00 -2.502439790E-02
 8.500000000E-01 -1.000000000E+00 -1.926409409E-02
 9.000000000E-01 -1.000000000E+00 -1.318744566E-02
 9.500000000E-01 -1.000000000E+00 -7.341293982E-03
 1.000000000E+00 -1.000000000E+00 -1.663886630E-03
 1.050000000E+00 -1.000000000E+00 3.497776286E-03
 1.100000000E+00 -1.000000000E+00 8.093721256E-03
 1.150000000E+00 -1.000000000E+00 1.215472827E-02
 1.200000000E+00 -1.000000000E+00 1.560057910E-02
 1.250000000E+00 -1.000000000E+00 1.837493955E-02
 1.300000000E+00 -1.000000000E+00 2.061650512E-02
 1.350000000E+00 -1.000000000E+00 2.233387657E-02
 1.400000000E+00 -1.000000000E+00 2.362428432E-02
 1.450000000E+00 -1.000000000E+00 2.450849244E-02
 1.500000000E+00 -1.000000000E+00 2.507441597E-02
 1.550000000E+00 -1.000000000E+00 2.532817847E-02
 1.600000000E+00 -1.000000000E+00 2.532123770E-02
 1.650000000E+00 -1.000000000E+00 2.522009414E-02
 1.700000000E+00 -1.000000000E+00 2.485548078E-02
 1.750000000E+00 -1.000000000E+00 2.447067677E-02
 1.800000000E+00 -1.000000000E+00 2.394664030E-02
 1.850000000E+00 -1.000000000E+00 2.336488241E-02
 1.900000000E+00 -1.000000000E+00 2.267624066E-02
 1.950000000E+00 -1.000000000E+00 2.213522531E-02
 2.000000000E+00 -1.000000000E+00 2.135686388E-02
 2.050000000E+00 -1.000000000E+00 2.078193872E-02
 2.100000000E+00 -1.000000000E+00 2.005906882E-02
 2.150000000E+00 -1.000000000E+00 1.934831486E-02
 2.200000000E+00 -1.000000000E+00 1.871125271E-02
 2.250000000E+00 -1.000000000E+00 1.810696039E-02
 2.300000000E+00 -1.000000000E+00 1.749530374E-02
 2.350000000E+00 -1.000000000E+00 1.692658012E-02
 2.400000000E+00 -1.000000000E+00 1.637771073E-02
 2.450000000E+00 -1.000000000E+00 1.584607964E-02
 2.500000000E+00 -1.000000000E+00 1.538041404E-02
 2.550000000E+00 -1.000000000E+00 1.490335749E-02
 2.600000000E+00 -1.000000000E+00 1.452821424E-02
 2.650000000E+00 -1.000000000E+00 1.412326766E-02
 2.700000000E+00 -1.000000000E+00 1.379620204E-02
 2.750000000E+00 -1.000000000E+00 1.347850448E-02
 2.800000000E+00 -1.000000000E+00 1.319070105E-02
 2.850000000E+00 -1.000000000E+00 1.293025033E-02
 2.900000000E+00 -1.000000000E+00 1.270126060E-02
 2.950000000E+00 -1.000000000E+00 1.246415727E-02
 3.000000000E+00 -1.000000000E+00 1.230368302E-02
 3.050000000E+00 -1.000000000E+00 1.209979365E-02
 3.100000000E+00 -1.000000000E+00 1.194393281E-02
 3.150000000E+00 -1.000000000E+00 1.177393043E-02
 3.200000000E+00 -1.000000000E+00 1.156081922E-02
 3.250000000E+00 -1.000000000E+00 1.132101445E-02
 3.300000000E+00 -1.000000000E+00 1.095126542E-02
 3.350000000E+00 -1.000000000E+00 1.043511073E-02
 3.400000000E+00 -1.000000000E+00 9.436743190E-03
 3.450000000E+00 -1.000000000E+00 7.282956310E-03
 3.500000000E+00 -9.500000000E-01 2.971007858E-03
 3.500000000E+00 -9.000000000E-01 4.438400867E-03
 3.500000000E+00 -8.500000000E-01 5.755684725E-03
 3.500000000E+00 -8.000000000E-01 6.961624260E-03
 3.500000000E+00 -7.500000000E-01 8.028385144E-03
 3.500000000E+00 -7.000000000E-01 8.951147620E-03
 3.500000000E+00 -6.500000000E-01 9.871943767E-03
 3.500000000E+00 -6.000000000E-01 1.087682322E-02
 3.500000000E+00 -5.500000000E-01 1.190002902E-02
 3.500000000E+00 -5.000000000E-01 1.297066376E-02
 3.500000000E+00 -4.500000000E-01 1.400824347E-02
 3.500000000E+00 -4.000000000E-01 1.507329614E-02
 3.500000000E+00 -3.500000000E-01 1.613633410E-02
 3.500000000E+00 -3.000000000E-01 1.715121207E-02
 3.500000000E+00 -2.500000000E-01 1.796957132E-02
 3.500000000E+00 -2.000000000E-01 1.837617983E-02
 3.500000000E+00 -1.500000000E-01 1.837725283E-02
 3.500000000E+00 -1.000000000E-01 1.808177479E-02
 3.500000000E+00 -5.000000000E-02 1.772707582E-02
 3.500000000E+00 -2.752242878E-12 1.770812864E-02
 3.500000000E+00 5.000000000E-02 1.803589171E-02
 3.500000000E+00 1.000000000E-01 1.816871846E-02
 3.500000000E+00 1.500000000E-01 1.799521833E-02
 3.500000000E+00 2.000000000E-01 1.740147965E-02
 3.500000000E+00 2.500000000E-01 1.636483127E-02
 3.500000000E+00 3.000000000E-01 1.526187655E-02
 3.500000000E+00 3.500000000E-01 1.416767531E-02
 3.500000000E+00 4.000000000E-01 1.309786736E-02
 3.500000000E+00 4.500000000E-01 1.202678530E-02
 3.500000000E+00 5.000000000E-01 1.090868869E-02
 3.500000000E+00 5.500000000E-01 9.834547735E-03
 3.500000000E+00 6.000000000E-01 8.987901802E-03
 3.500000000E+00 6.500000000E-01 8.435000831E-03
 3.500000000E+00 7.000000000E-01 8.114235027E-03
 3.500000000E+00 7.500000000E-01 7.158044648E-03
 3.500000000E+00 8.000000000E-01 4.826379945E-03
 3.500000000E+00 8.500000000E-01 3.682537535E-05
 3.500000000E+00 9.000000000E-01 -6.737744852E-03
 3.500000000E+00 9.500000000E-01 -1.434106403E-02
 3.450000000E+00 1.000000000E+00 -5.267378747E-03
 3.400000000E+00 1.000000000E+00 -4.941887206E-04
 3.350000000E+00 1.000000000E+00 5.974683274E-04
 3.300000000E+00 1.000000000E+00 6.996992056E-04
 3.250000000E+00 1.000000000E+00 2.408606823E-04
 3.200000000E+00 1.000000000E+00 -2.182025052E-04
 3.150000000E+00 1.000000000E+00 -7.208071751E-04
 3.100000000E+00 1.000000000E+00 -1.285529899E-03
 3.050000000E+00 1.000000000E+00 -1.923824881E-03
 3.000000000E+00 1.000000000E+00 -2.688440677E-03
 2.950000000E+00 1.000000000E+00 -3.306341113E-03
 2.900000000E+00 1.000000000E+00 -4.238075427E-03
 2.850000000E+00 1.000000000E+00 -4.942231795E-03
 2.800000000E+00 1.000000000E+00 -5.731845138E-03
 2.750000000E+00 1.000000000E+00 -6.512704857E-03
 2.700000000E+00 1.000000000E+00 -7.275314833E-03
 2.650000000E+00 1.000000000E+00 -8.236830710E-03
 2.600000000E+00 1.000000000E+00 -8.935882269E-03
 2.550000000E+00 1.000000000E+00 -9.964325353E-03
 2.500000000E+00 1.000000000E+00 -1.089163490E-02
 2.450000000E+00 1.000000000E+00 -1.195939656E-02
 2.400000000E+00 1.000000000E+00 -1.291004172E-02
 2.350000000E+00 1.000000000E+00 -1.409287290E-02
 2.300000000E+00 1.000000000E+00 -1.523149840E-02
 2.250000000E+00 1.000000000E+00 -1.648761819E-02
 2.200000000E+00 1.000000000E+00 -1.767833790E-02
 2.150000000E+00 1.000000000E+00 -1.912055422E-02
 2.100000000E+00 1.000000000E+00 -2.056967872E-02
 2.050000000E+00 1.000000000E+00 -2.215597248E-02
 2.000000000E+00 1.000000000E+00 -2.388267967E-02
 1.950000000E+00 1.000000000E+00 -2.565248444E-02
 1.900000000E+00 1.000000000E+00 -2.761117743E-02
 1.850000000E+00 1.000000000E+00 -2.977292070E-02
 1.800000000E+00 1.000000000E+00 -3.201714132E-02
 1.750000000E+00 1.000000000E+00 -3.451010869E-02
 1.700000000E+00 1.000000000E+00 -3.719580741E-02
 1.650000000E+00 1.000000000E+00 -4.009263562E-02
 1.600000000E+00 1.000000000E+00 -4.328556258E-02
 1.550000000E+00 1.000000000E+00 -4.673965010E-02
 1.500000000E+00 1.000000000E+00 -5.040265817E-02
 1.450000000E+00 1.000000000E+00 -5.447529554E-02
 1.400000000E+00 1.000000000E+00 -5.864220190E-02
 1.350000000E+00 1.000000000E+00 -6.329745236E-02
 1.300000000E+00 1.000000000E+00 -6.820849343E-02
 1.250000000E+00 1.000000000E+00 -7.287563319E-02
 1.200000000E+00 1.000000000E+00 -7.826757046E-02
 1.150000000E+00 1.000000000E+00 -8.318323589E-02
 1.100000000E+00 1.000000000E+00 -8.812020982E-02
 1.050000000E+00 1.000000000E+00 -9.262416694E-02
 1.000000000E+00 1.000000000E+00 -9.668873148E-02
 9.500000000E-01 1.000000000E+00 -9.958484322E-02
 9.000000000E-01 1.000000000E+00 -1.021488501E-01
 8.500000000E-01 1.000000000E+00 -1.031476384E-01
 8.000000000E-01 1.000000000E+00 -1.026842061E-01
 7.500000000E-01 1.000000000E+00 -1.009394837E-01
 7.000000000E-01 1.000000000E+00 -9.788302332E-02
 6.500000000E-01 1.000000000E+00 -9.320907266E-02
 6.000000000E-01 1.000000000E+00 -8.712969524E-02
 5.500000000E-01 1.000000000E+00 -8.025402921E-02
 5.000000000E-01 1.000000000E+00 -7.185817836E-02
 4.500000000E-01 1.000000000E+00 -6.292661003E-02
 4.000000000E-01 1.000000000E+00 -5.306825456E-02
 3.500000000E-01 1.000000000E+00 -4.318239035E-02
 3.000000000E-01 1.000000000E+00 -3.306948315E-02
 2.500000000E-01 1.000000000E+00 -2.321336431E-02
 2.000000000E-01 1.000000000E+00 -1.347573009E-02
 1.500000000E-01 1.000000000E+00 -4.653409167E-03
 1.000000000E-01 1.000000000E+00 3.502418475E-03
 5.000000000E-02 1.000000000E+00 1.060188353E-02
 1.733724275E-12 1.000000000E+00 1.664994392E-02
 -5.000000000E-02 1.000000000E+00 2.152338173E-02
 -1.000000000E-01 1.000000000E+00 2.509585037E-02
 -1.500000000E-01 1.000000000E+00 2.745625827E-02
 -2.000000000E-01 1.000000000E+00 2.856987569E-02
 -2.500000000E-01 1.000000000E+00 2.845479472E-02
 -3.000000000E-01 1.000000000E+00 2.715008922E-02
 -3.500000000E-01 1.000000000E+00 2.464702691E-02
 -4.000000000E-01 1.000000000E+00 2.051457851E-02
 -4.500000000E-01 1.000000000E+00 1.381246907E-02
 8.967543546E-01 -4.552734085E-03 3.365489837E-01
 8.228658505E-01 -9.974003184E-03 2.697874121E-01
 7.519571705E-01 -1.919243483E-02 1.778632467E-01
 9.786549917E-01 -4.750501030E-03 3.241706799E-01
 6.828392208E-01 -2.799592335E-02 7.612395411E-02
 6.166039109E-01 -3.873510208E-02 -4.244186428E-02
 5.487004569E-01 -4.726944815E-02 -2.097036690E-01
 4.826590770E-01 -5.427755799E-02 -4.149977885E-01
 4.325152209E-01 -5.894571286E-02 -5.651829826E-01
 3.714198483E-01 -5.977406163E-02 -6.331486257E-01
 3.139319808E-01 -5.984470735E-02 -5.518846090E-01
 2.558082996E-01 -5.721464385E-02 -4.498477438E-01
 1.943313818E-01 -5.166359579E-02 -3.547025235E-01