TITLE     = "Visualization of the solution"
VARIABLES = "x"
"y"
"Pressure_Coefficient"
ZONE T="Zone"
 STRANDID=0, SOLUTIONTIME=0
 Nodes=11589, Elements=22601, ZONETYPE=FEQuadrilateral
 DATAPACKING=POINT
 DT=(DOUBLE DOUBLE DOUBLE )
 9.997687340E-01 5.298755132E-04 3.389878955E-01
 9.853059053E-01 3.251463640E-03 3.097669318E-01
 9.732774496E-01 5.489181727E-03 2.243255978E-01
 9.593424797E-01 8.046177216E-03 1.668357587E-01
 9.465701580E-01 1.044779737E-02 1.009895154E-01
 9.353173971E-01 1.249660552E-02 5.871476655E-02
 9.245973825E-01 1.440581586E-02 2.647680333E-02
 9.128479958E-01 1.649412885E-02 -2.473674214E-02
 9.014819860E-01 1.841620356E-02 -5.801425966E-02
 8.890985250E-01 2.040619031E-02 -7.767248795E-02
 8.770253062E-01 2.232752927E-02 -1.186245437E-01
 8.647674322E-01 2.413135208E-02 -1.246645393E-01
 8.522001505E-01 2.595979534E-02 -1.480735187E-01
 8.403013945E-01 2.763123997E-02 -1.663830143E-01
 8.283027411E-01 2.925993502E-02 -1.809558914E-01
 8.148325086E-01 3.101148643E-02 -1.856910600E-01
 8.015530705E-01 3.272829577E-02 -2.042989636E-01
 7.894977927E-01 3.424124047E-02 -2.145502278E-01
 7.769027352E-01 3.582471237E-02 -2.416691391E-01
 7.644080520E-01 3.730548918E-02 -2.417362974E-01
 7.515834570E-01 3.885583207E-02 -2.725487790E-01
 7.374933958E-01 4.046490043E-02 -2.814842234E-01
 7.263876200E-01 4.172345996E-02 -3.002769937E-01
 7.149310708E-01 4.299387336E-02 -3.202892308E-01
 7.028512955E-01 4.427743331E-02 -3.292149019E-01
 6.892894506E-01 4.569468275E-02 -3.510694149E-01
 6.760517955E-01 4.703911766E-02 -3.772371896E-01
 6.650562286E-01 4.809679464E-02 -3.859266022E-01
 6.532884240E-01 4.920513183E-02 -4.068459199E-01
 6.423484683E-01 5.020107701E-02 -4.275916504E-01
 6.299870610E-01 5.126402527E-02 -4.423107479E-01
 6.185321212E-01 5.220608786E-02 -4.592683331E-01
 6.076508164E-01 5.305992067E-02 -4.761306603E-01
 5.951934457E-01 5.398745090E-02 -4.997851356E-01
 5.830809474E-01 5.482050404E-02 -5.107155239E-01
 5.691552162E-01 5.570174754E-02 -5.257668368E-01
 5.559358597E-01 5.648504943E-02 -5.477593127E-01
 5.426847339E-01 5.717757344E-02 -5.626214576E-01
 5.312496424E-01 5.772697553E-02 -5.792484389E-01
 5.189563632E-01 5.823814869E-02 -5.894807260E-01
 5.058976412E-01 5.871569365E-02 -5.986283240E-01
 4.948286414E-01 5.903699622E-02 -5.905805912E-01
 4.816815257E-01 5.937936902E-02 -6.093649487E-01
 4.687658846E-01 5.963049829E-02 -6.024979697E-01
 4.544074535E-01 5.980622396E-02 -5.927737593E-01
 4.402348995E-01 5.991637334E-02 -6.039690044E-01
 4.270709753E-01 5.993434042E-02 -5.954197575E-01
 4.136441350E-01 5.985439196E-02 -5.808688099E-01
 4.012536705E-01 5.973625928E-02 -5.792520415E-01
 3.882524967E-01 5.952498689E-02 -5.705672033E-01
 3.764774203E-01 5.928247795E-02 -5.689354172E-01
 3.654200435E-01 5.898342282E-02 -5.451161392E-01
 3.520961404E-01 5.856127292E-02 -5.357344493E-01
 3.401962221E-01 5.814062804E-02 -5.354703981E-01
 3.278625906E-01 5.761918426E-02 -5.162190967E-01
 3.179056942E-01 5.715407804E-02 -5.070384688E-01
 3.060583472E-01 5.655236542E-02 -4.976117891E-01
 2.937563658E-01 5.586690456E-02 -4.882643405E-01
 2.800224423E-01 5.501683429E-02 -4.744259682E-01
 2.675680518E-01 5.416378751E-02 -4.535225068E-01
 2.556919158E-01 5.330366641E-02 -4.442341245E-01
 2.432036102E-01 5.234010145E-02 -4.370122716E-01
 2.302294225E-01 5.124669150E-02 -4.211155688E-01
 2.182190865E-01 5.016348511E-02 -4.042593752E-01
 2.064326555E-01 4.903796688E-02 -3.906373888E-01
 1.952074617E-01 4.790950939E-02 -3.792237864E-01
 1.829031557E-01 4.660299048E-02 -3.687892761E-01
 1.710940003E-01 4.526101798E-02 -3.519836709E-01
 1.594219506E-01 4.386756197E-02 -3.397708425E-01
 1.477658749E-01 4.238707945E-02 -3.224610605E-01
 1.369656175E-01 4.095029458E-02 -3.111315438E-01
 1.259453148E-01 3.940460086E-02 -2.993152539E-01
 1.147151813E-01 3.772947565E-02 -2.832637306E-01
 1.040360034E-01 3.604302183E-02 -2.654339708E-01
 9.441830218E-02 3.444235399E-02 -2.546107208E-01
 8.357898891E-02 3.252897784E-02 -2.395249360E-01
 7.201505452E-02 3.033181652E-02 -2.204084078E-01
 6.226981804E-02 2.833258733E-02 -1.997830253E-01
 5.281531811E-02 2.624180168E-02 -1.834874365E-01
 4.376718402E-02 2.406056970E-02 -1.646054587E-01
 3.586249053E-02 2.196047269E-02 -1.419267754E-01
 2.908812463E-02 1.998341829E-02 -1.196041082E-01
 2.333006449E-02 1.813184284E-02 -9.862346960E-02
 1.914370991E-02 1.663571969E-02 -7.138546527E-02
 1.522955298E-02 1.510187145E-02 -5.026340045E-02
 1.248713490E-02 1.390905026E-02 -1.631130693E-02
 1.011971477E-02 1.278280560E-02 1.216660678E-02
 8.394141681E-03 1.188721694E-02 4.006921525E-02
 6.753424648E-03 1.096608769E-02 6.945959637E-02
 5.245096982E-03 1.002721768E-02 1.482641743E-01
 3.290629713E-03 8.646124974E-03 2.265362550E-01
 1.653807936E-03 7.262788713E-03 3.279064220E-01
 2.540938149E-04 5.789888091E-03 5.375370707E-01
 -1.108659315E-03 3.803812433E-03 7.608207388E-01
 -1.792403054E-03 2.197562018E-03 9.449533045E-01
 -2.089243382E-03 9.037374984E-04 1.090632105E+00
 -2.170008840E-03 -7.354796981E-04 1.201784056E+00
 -1.840192126E-03 -2.784348559E-03 1.194506911E+00
 -9.256135672E-04 -5.119123962E-03 1.087176541E+00
 6.376371020E-04 -7.638598792E-03 9.163762591E-01
 2.865988063E-03 -1.026943047E-02 7.664170758E-01
 4.876505118E-03 -1.220208686E-02 6.253661833E-01
 7.282080594E-03 -1.420147717E-02 5.306028953E-01
 9.005228989E-03 -1.548876148E-02 4.369922414E-01
 1.114222594E-02 -1.695587672E-02 3.796749377E-01
 1.369348168E-02 -1.856094785E-02 3.073130173E-01
 1.703362726E-02 -2.047623508E-02 2.310541036E-01
 2.036964335E-02 -2.222709917E-02 1.547709513E-01
 2.464375272E-02 -2.426841110E-02 9.438966709E-02
 3.029162809E-02 -2.671748586E-02 2.862206393E-02
 3.616629913E-02 -2.901387773E-02 -3.935722465E-02
 4.357816279E-02 -3.163864836E-02 -9.299677261E-02
 5.119007826E-02 -3.407906741E-02 -1.454576651E-01
 5.997190252E-02 -3.664422780E-02 -1.848479164E-01
 6.871857494E-02 -3.897826374E-02 -2.239083115E-01
 7.935243100E-02 -4.158178717E-02 -2.611934921E-01
 8.917897940E-02 -4.379931837E-02 -2.866793650E-01
 9.998823702E-02 -4.604941979E-02 -3.190816805E-01
 1.111223698E-01 -4.820200428E-02 -3.429098916E-01
 1.229895055E-01 -5.033423007E-02 -3.695040077E-01
 1.344629377E-01 -5.224597082E-02 -3.918133342E-01
 1.447471380E-01 -5.385597423E-02 -4.154251368E-01
 1.558337361E-01 -5.547974631E-02 -4.328605512E-01
 1.674410999E-01 -5.708109960E-02 -4.590810042E-01
 1.788149476E-01 -5.853471905E-02 -4.786070034E-01
 1.903191060E-01 -5.991528928E-02 -5.016603722E-01
 2.004208118E-01 -6.103836372E-02 -5.191972424E-01
 2.113014162E-01 -6.218193844E-02 -5.422769394E-01
 2.232024223E-01 -6.332909316E-02 -5.627984855E-01
 2.349905819E-01 -6.438104063E-02 -5.929060833E-01
 2.466502041E-01 -6.531246006E-02 -6.139050476E-01
 2.589855790E-01 -6.621296704E-02 -6.434706870E-01
 2.699123323E-01 -6.690590084E-02 -6.710277512E-01
 2.823124528E-01 -6.760364771E-02 -6.979475265E-01
 2.944211662E-01 -6.816307455E-02 -7.211995731E-01
 3.071595132E-01 -6.865063310E-02 -7.467267465E-01
 3.185209334E-01 -6.897187233E-02 -7.864711933E-01
 3.305693269E-01 -6.919401139E-02 -8.051228905E-01
 3.407084942E-01 -6.930544227E-02 -8.388767785E-01
 3.518703878E-01 -6.931180507E-02 -8.741894274E-01
 3.628969789E-01 -6.921099126E-02 -8.915344097E-01
 3.735281825E-01 -6.903604418E-02 -9.195862844E-01
 3.850386739E-01 -6.871771067E-02 -9.513769282E-01
 3.974985778E-01 -6.823979318E-02 -9.700413361E-01
 4.094659686E-01 -6.765794009E-02 -9.825661573E-01
 4.225705564E-01 -6.689451635E-02 -1.036364518E+00
 4.350556433E-01 -6.601120532E-02 -9.760863336E-01
 4.483806789E-01 -6.492082775E-02 -4.443414312E-01
 4.611738026E-01 -6.374563277E-02 -4.397343893E-01
 4.737182558E-01 -6.249337643E-02 -4.870765906E-01
 4.857416749E-01 -6.117543206E-02 -4.497711072E-01
 4.979225099E-01 -5.975262448E-02 -4.127942238E-01
 5.113657117E-01 -5.808704719E-02 -3.733834561E-01
 5.250784755E-01 -5.630480498E-02 -3.359439553E-01
 5.378462076E-01 -5.457694456E-02 -3.035800711E-01
 5.519069433E-01 -5.257878825E-02 -2.567389114E-01
 5.648212433E-01 -5.071233958E-02 -2.271543331E-01
 5.783738494E-01 -4.869694263E-02 -1.925437266E-01
 5.913074613E-01 -4.672690108E-02 -1.568372757E-01
 6.042073965E-01 -4.475783929E-02 -1.327442674E-01
 6.170611382E-01 -4.274788871E-02 -9.829652957E-02
 6.310676336E-01 -4.057193920E-02 -7.543126570E-02
 6.443764567E-01 -3.846664354E-02 -4.391594016E-02
 6.579421163E-01 -3.634416685E-02 -2.503459453E-02
 6.715512276E-01 -3.417905420E-02 4.929121108E-03
 6.842803955E-01 -3.217439726E-02 2.430496796E-02
 6.967687607E-01 -3.020645864E-02 4.590074965E-02
 7.118059993E-01 -2.782035805E-02 7.757809161E-02
 7.252886891E-01 -2.576038428E-02 8.666894530E-02
 7.366786003E-01 -2.397456765E-02 1.140382435E-01
 7.493176460E-01 -2.202794887E-02 1.347402395E-01
 7.625662088E-01 -2.003019303E-02 1.523944999E-01
 7.758358121E-01 -1.805814728E-02 1.704423513E-01
 7.878462076E-01 -1.625766978E-02 2.004183870E-01
 8.009739518E-01 -1.441701036E-02 2.065486704E-01
 8.120185733E-01 -1.285056770E-02 2.311932097E-01
 8.233056068E-01 -1.132262032E-02 2.421897162E-01
 8.349824548E-01 -9.722729214E-03 2.750601763E-01
 8.474642634E-01 -8.179389872E-03 2.819291191E-01
 8.595572710E-01 -6.740230136E-03 2.988413926E-01
 8.706952333E-01 -5.479713902E-03 3.155107490E-01
 8.820747137E-01 -4.268513992E-03 3.351179956E-01
 8.947922587E-01 -3.080984810E-03 3.435333140E-01
 9.047203660E-01 -2.247485798E-03 3.535189625E-01
 9.148854613E-01 -1.505293301E-03 3.607483739E-01
 9.245901704E-01 -9.043150931E-04 3.624794611E-01
 9.342439175E-01 -4.104056570E-04 3.654144509E-01
 9.469009042E-01 9.424045857E-05 3.630065849E-01
 9.613490105E-01 4.669325426E-04 3.569407088E-01
 9.764940143E-01 6.422689185E-04 3.500445503E-01
 9.898514748E-01 6.173884030E-04 3.703151542E-01
 -5.000000000E-01 -1.000000000E+00 1.513652383E-02
 3.500000000E+00 -1.000000000E+00 1.555184151E-03
 3.500000000E+00 1.000000000E+00 -1.388659499E-02
 -5.000000000E-01 1.000000000E+00 1.470498172E-02
 9.925373197E-01 1.890669577E-03 4.023352798E-01
 9.792916775E-01 4.370322684E-03 2.609950227E-01
 9.663099647E-01 6.767679472E-03 1.957231594E-01
 9.529563189E-01 9.246987291E-03 1.299682687E-01
 9.409437776E-01 1.147220144E-02 7.820251476E-02
 9.299573898E-01 1.345121069E-02 4.476355347E-02
 9.187226892E-01 1.544997236E-02 -1.564900297E-03
 9.071649909E-01 1.745516621E-02 -4.426224077E-02
 8.952902555E-01 1.941119693E-02 -6.364909636E-02
 8.830619156E-01 2.136685979E-02 -1.038151422E-01
 8.708963692E-01 2.322944067E-02 -1.188978452E-01
 8.584837914E-01 2.504557371E-02 -1.366525552E-01
 8.462507725E-01 2.679551765E-02 -1.574678611E-01
 8.343020678E-01 2.844558749E-02 -1.759819038E-01
 8.215676248E-01 3.013571072E-02 -1.806135767E-01
 8.081927896E-01 3.186989110E-02 -1.965290919E-01
 7.955254316E-01 3.348476812E-02 -2.058571575E-01
 7.832002640E-01 3.503297642E-02 -2.334343329E-01
 7.706553936E-01 3.656510077E-02 -2.359082760E-01
 7.579957545E-01 3.808066063E-02 -2.615357363E-01
 7.445384264E-01 3.966036625E-02 -2.752791809E-01
 7.319405079E-01 4.109418020E-02 -2.902394085E-01
 7.206593454E-01 4.235866666E-02 -3.126313943E-01
 7.088911831E-01 4.363565333E-02 -3.234691379E-01
 6.960703731E-01 4.498605803E-02 -3.388077295E-01
 6.826706231E-01 4.636690021E-02 -3.663213334E-01
 6.705540121E-01 4.756795615E-02 -3.805232199E-01
 6.591723263E-01 4.865096323E-02 -3.951395025E-01
 6.478184462E-01 4.970310442E-02 -4.194200528E-01
 6.361677647E-01 5.073255114E-02 -4.342204452E-01
 6.242595911E-01 5.173505656E-02 -4.507212725E-01
 6.130914688E-01 5.263300426E-02 -4.673004926E-01
 6.014221311E-01 5.352368578E-02 -4.887597535E-01
 5.891371965E-01 5.440397747E-02 -5.071681612E-01
 5.761180818E-01 5.526112579E-02 -5.150441102E-01
 5.625455379E-01 5.609339848E-02 -5.399413622E-01
 5.493102968E-01 5.683131143E-02 -5.523844932E-01
 5.369671881E-01 5.745227449E-02 -5.737608978E-01
 5.251030028E-01 5.798256211E-02 -5.826446203E-01
 5.124270022E-01 5.847692117E-02 -5.980851956E-01
 5.003631413E-01 5.887634493E-02 -5.901733431E-01
 4.882550836E-01 5.920818262E-02 -6.015125773E-01
 4.752237052E-01 5.950493366E-02 -6.102875426E-01
 4.615866691E-01 5.971836112E-02 -5.932670150E-01
 4.473211765E-01 5.986129865E-02 -5.990682809E-01
 4.336529374E-01 5.992535688E-02 -6.037936557E-01
 4.203575552E-01 5.989436619E-02 -5.835706060E-01
 4.074489027E-01 5.979532562E-02 -5.830905404E-01
 3.947530836E-01 5.963062309E-02 -5.721626072E-01
 3.823649585E-01 5.940373242E-02 -5.720646809E-01
 3.709487319E-01 5.913295038E-02 -5.580229373E-01
 3.587580919E-01 5.877234787E-02 -5.362136194E-01
 3.461461812E-01 5.835095048E-02 -5.390424833E-01
 3.340294063E-01 5.787990615E-02 -5.262766830E-01
 3.119820207E-01 5.685322173E-02 -5.021780946E-01
 2.999073565E-01 5.620963499E-02 -4.942151969E-01
 2.868894041E-01 5.544186942E-02 -4.825031652E-01
 2.737952471E-01 5.459031090E-02 -4.621087280E-01
 2.616299838E-01 5.373372696E-02 -4.481155893E-01
 2.494477630E-01 5.282188393E-02 -4.429606685E-01
 2.367165163E-01 5.179339647E-02 -4.286227060E-01
 2.242242545E-01 5.070508830E-02 -4.123636818E-01
 2.123258710E-01 4.960072599E-02 -3.966235516E-01
 2.008200586E-01 4.847373813E-02 -3.852380301E-01
 1.890553087E-01 4.725624993E-02 -3.752320941E-01
 1.769985780E-01 4.593200423E-02 -3.593436819E-01
 1.652579755E-01 4.456428997E-02 -3.473090928E-01
 1.535939127E-01 4.312732071E-02 -3.297070679E-01
 1.423657462E-01 4.166868702E-02 -3.168820555E-01
 1.314554662E-01 4.017744772E-02 -3.066537550E-01
 1.203302480E-01 3.856703825E-02 -2.906069979E-01
 1.093755923E-01 3.688624874E-02 -2.762335988E-01
 8.899864554E-02 3.348566592E-02 -2.494492904E-01
 7.779702172E-02 3.143039718E-02 -2.320596847E-01
 7.403550297E-02 -4.028002545E-02 -2.469531791E-01
 9.458360821E-02 -4.492436908E-02 -3.100018963E-01
 1.055553034E-01 -4.712571204E-02 -3.295066021E-01
 1.170559376E-01 -4.926811717E-02 -3.559878939E-01
 1.287262216E-01 -5.129010044E-02 -3.826338870E-01
 1.396050379E-01 -5.305097252E-02 -4.043588826E-01
 1.502904370E-01 -5.466786027E-02 -4.243292461E-01
 1.616374180E-01 -5.628042296E-02 -4.440225451E-01
 1.731280237E-01 -5.780790932E-02 -4.712967423E-01
 1.845670268E-01 -5.922500417E-02 -4.884263722E-01
 1.953699589E-01 -6.047682650E-02 -5.137756681E-01
 2.058611140E-01 -6.161015108E-02 -5.274582403E-01
 2.172519192E-01 -6.275551580E-02 -5.535171259E-01
 2.290965021E-01 -6.385506690E-02 -5.760794755E-01
 2.408203930E-01 -6.484675035E-02 -6.062032613E-01
 2.528178915E-01 -6.576271355E-02 -6.248521262E-01
 2.644489557E-01 -6.655943394E-02 -6.614306018E-01
 2.761123925E-01 -6.725477427E-02 -6.806129400E-01
 2.883668095E-01 -6.788336113E-02 -7.131044339E-01
 3.007903397E-01 -6.840685382E-02 -7.300896749E-01
 3.128402233E-01 -6.881125271E-02 -7.681708051E-01
 3.245451301E-01 -6.908294186E-02 -7.980823034E-01
 3.356389105E-01 -6.924972683E-02 -8.182697365E-01
 3.462894410E-01 -6.930862367E-02 -8.582148415E-01
 3.573836833E-01 -6.926139817E-02 -8.858444602E-01
 3.682125807E-01 -6.912351772E-02 -9.009653198E-01
 3.792834282E-01 -6.887687743E-02 -9.368167029E-01
 3.912686259E-01 -6.847875193E-02 -9.619883336E-01
 4.034822732E-01 -6.794886664E-02 -9.766209553E-01
 4.160182625E-01 -6.727622822E-02 -9.977742203E-01
 4.288130999E-01 -6.645286083E-02 -1.057653826E+00
 4.417181611E-01 -6.546601653E-02 -6.966663024E-01
 4.547772408E-01 -6.433323026E-02 -3.972998639E-01
 4.674460292E-01 -6.311950460E-02 -4.790766151E-01
 4.797299653E-01 -6.183440425E-02 -4.729606081E-01
 4.918320924E-01 -6.046402827E-02 -4.300985725E-01
 5.046441108E-01 -5.891983584E-02 -3.937469276E-01
 5.182220936E-01 -5.719592609E-02 -3.542601544E-01
 5.314623415E-01 -5.544087477E-02 -3.199185327E-01
 5.448765755E-01 -5.357786641E-02 -2.815648863E-01
 5.583640933E-01 -5.164556392E-02 -2.400847173E-01
 5.715975463E-01 -4.970464110E-02 -2.110058097E-01
 5.848406553E-01 -4.771192186E-02 -1.750841945E-01
 5.977574289E-01 -4.574237019E-02 -1.431840726E-01
 6.106342673E-01 -4.375286400E-02 -1.172942852E-01
 6.240643859E-01 -4.165991396E-02 -8.518504466E-02
 6.377220452E-01 -3.951929137E-02 -6.135955172E-02
 6.511592865E-01 -3.740540519E-02 -3.273047662E-02
 6.647466719E-01 -3.526161052E-02 -1.188147054E-02
 6.779158115E-01 -3.317672573E-02 1.593194462E-02
 6.905245781E-01 -3.119042795E-02 3.462458545E-02
 7.042873800E-01 -2.901340835E-02 6.017592673E-02
 7.185473442E-01 -2.679037116E-02 8.605149274E-02
 7.309836447E-01 -2.486747596E-02 9.706077481E-02
 7.429981232E-01 -2.300125826E-02 1.247323732E-01
 7.559419274E-01 -2.102907095E-02 1.439950229E-01
 7.692010105E-01 -1.904417016E-02 1.615257502E-01
 7.818410099E-01 -1.715790853E-02 1.832659706E-01
 7.944100797E-01 -1.533734007E-02 2.065310893E-01
 8.064962626E-01 -1.363378903E-02 2.167184185E-01
 8.176620901E-01 -1.208659401E-02 2.378893030E-01
 8.291440308E-01 -1.052267477E-02 2.550390526E-01
 8.412233591E-01 -8.951059543E-03 2.811674389E-01
 8.535107672E-01 -7.459810004E-03 2.898666925E-01
 8.651262522E-01 -6.109972019E-03 3.069531412E-01
 8.763849735E-01 -4.874113947E-03 3.239055304E-01
 8.884334862E-01 -3.674749401E-03 3.402329357E-01
 9.098029137E-01 -1.876389550E-03 3.603074878E-01
 9.405724108E-01 -1.580825992E-04 3.627512112E-01
 9.541249573E-01 2.805865006E-04 3.598852463E-01
 9.689215124E-01 5.546007305E-04 3.537198014E-01
 9.831727445E-01 6.298286608E-04 3.449534174E-01
 -5.000000000E-01 9.500000000E-01 2.411522949E-02
 -5.000000000E-01 9.000000000E-01 3.638366625E-02
 -5.000000000E-01 8.500000000E-01 4.559407857E-02
 -5.000000000E-01 8.000000000E-01 5.400339809E-02
 -5.000000000E-01 7.500000000E-01 6.178729095E-02
 -5.000000000E-01 7.000000000E-01 6.963290199E-02
 -5.000000000E-01 6.500000000E-01 7.741512980E-02
 -5.000000000E-01 6.000000000E-01 8.555924154E-02
 -5.000000000E-01 5.500000000E-01 9.383439485E-02
 -5.000000000E-01 5.000000000E-01 1.022307371E-01
 -5.000000000E-01 4.500000000E-01 1.109329810E-01
 -5.000000000E-01 4.000000000E-01 1.196003586E-01
 -5.000000000E-01 3.500000000E-01 1.281926358E-01
 -5.000000000E-01 3.000000000E-01 1.365158214E-01
 -5.000000000E-01 2.500000000E-01 1.442312340E-01
 -5.000000000E-01 2.000000000E-01 1.512203330E-01
 -5.000000000E-01 1.500000000E-01 1.571188439E-01
 -5.000000000E-01 1.000000000E-01 1.616697005E-01
 -5.000000000E-01 5.000000000E-02 1.645420637E-01
 -5.000000000E-01 2.752242878E-12 1.658183075E-01
 -5.000000000E-01 -5.000000000E-02 1.651565883E-01
 -5.000000000E-01 -1.000000000E-01 1.628554912E-01
 -5.000000000E-01 -1.500000000E-01 1.587941195E-01
 -5.000000000E-01 -2.000000000E-01 1.533232664E-01
 -5.000000000E-01 -2.500000000E-01 1.466562478E-01
 -5.000000000E-01 -3.000000000E-01 1.390886317E-01
 -5.000000000E-01 -3.500000000E-01 1.308578714E-01
 -5.000000000E-01 -4.000000000E-01 1.222315200E-01
 -5.000000000E-01 -4.500000000E-01 1.134359415E-01
 -5.000000000E-01 -5.000000000E-01 1.046677595E-01
 -5.000000000E-01 -5.500000000E-01 9.606166847E-02
 -5.000000000E-01 -6.000000000E-01 8.753200149E-02
 -5.000000000E-01 -6.500000000E-01 7.929921847E-02
 -5.000000000E-01 -7.000000000E-01 7.111970847E-02
 -5.000000000E-01 -7.500000000E-01 6.319967842E-02
 -5.000000000E-01 -8.000000000E-01 5.511181764E-02
 -5.000000000E-01 -8.500000000E-01 4.663481724E-02
 -5.000000000E-01 -9.000000000E-01 3.710665485E-02
 -5.000000000E-01 -9.500000000E-01 2.454461460E-02
 -4.500000000E-01 -1.000000000E+00 2.028262430E-02
 -4.000000000E-01 -1.000000000E+00 3.006454504E-02
 -3.500000000E-01 -1.000000000E+00 3.607352363E-02
 -3.000000000E-01 -1.000000000E+00 3.975004400E-02
 -2.500000000E-01 -1.000000000E+00 4.172731865E-02
 -2.000000000E-01 -1.000000000E+00 4.201434098E-02
 -1.500000000E-01 -1.000000000E+00 4.060215765E-02
 -1.000000000E-01 -1.000000000E+00 3.752992243E-02
 -5.000000000E-02 -1.000000000E+00 3.258989321E-02
 -9.424683256E-13 -1.000000000E+00 2.592071841E-02
 5.000000000E-02 -1.000000000E+00 1.749290939E-02
 1.000000000E-01 -1.000000000E+00 7.799219067E-03
 1.500000000E-01 -1.000000000E+00 -3.105977156E-03
 2.000000000E-01 -1.000000000E+00 -1.475110351E-02
 2.500000000E-01 -1.000000000E+00 -2.666919671E-02
 3.000000000E-01 -1.000000000E+00 -3.852781632E-02
 3.500000000E-01 -1.000000000E+00 -4.907742590E-02
 4.000000000E-01 -1.000000000E+00 -5.899170378E-02
 4.500000000E-01 -1.000000000E+00 -6.647315062E-02
 5.000000000E-01 -1.000000000E+00 -7.233916058E-02
 5.500000000E-01 -1.000000000E+00 -7.561116617E-02
 6.000000000E-01 -1.000000000E+00 -7.668567414E-02
 6.500000000E-01 -1.000000000E+00 -7.539138133E-02
 7.000000000E-01 -1.000000000E+00 -7.213602162E-02
 7.500000000E-01 -1.000000000E+00 -6.718618830E-02
 8.000000000E-01 -1.000000000E+00 -6.086829630E-02
 8.500000000E-01 -1.000000000E+00 -5.386154040E-02
 9.000000000E-01 -1.000000000E+00 -4.591931584E-02
 9.500000000E-01 -1.000000000E+00 -3.841833893E-02
 1.000000000E+00 -1.000000000E+00 -3.055029053E-02
 1.050000000E+00 -1.000000000E+00 -2.347266154E-02
 1.100000000E+00 -1.000000000E+00 -1.667241891E-02
 1.150000000E+00 -1.000000000E+00 -1.065871339E-02
 1.200000000E+00 -1.000000000E+00 -5.411682332E-03
 1.250000000E+00 -1.000000000E+00 -6.630793788E-04
 1.300000000E+00 -1.000000000E+00 3.212722464E-03
 1.350000000E+00 -1.000000000E+00 6.387318101E-03
 1.400000000E+00 -1.000000000E+00 9.099486603E-03
 1.450000000E+00 -1.000000000E+00 1.116999594E-02
 1.500000000E+00 -1.000000000E+00 1.289066963E-02
 1.550000000E+00 -1.000000000E+00 1.423754365E-02
 1.600000000E+00 -1.000000000E+00 1.510281217E-02
 1.650000000E+00 -1.000000000E+00 1.594294390E-02
 1.700000000E+00 -1.000000000E+00 1.640621467E-02
 1.750000000E+00 -1.000000000E+00 1.648064941E-02
 1.800000000E+00 -1.000000000E+00 1.677614375E-02
 1.850000000E+00 -1.000000000E+00 1.662917237E-02
 1.900000000E+00 -1.000000000E+00 1.655729971E-02
 1.950000000E+00 -1.000000000E+00 1.651044496E-02
 2.000000000E+00 -1.000000000E+00 1.636695343E-02
 2.050000000E+00 -1.000000000E+00 1.585115671E-02
 2.100000000E+00 -1.000000000E+00 1.574548872E-02
 2.150000000E+00 -1.000000000E+00 1.527092649E-02
 2.200000000E+00 -1.000000000E+00 1.493183575E-02
 2.250000000E+00 -1.000000000E+00 1.475877594E-02
 2.300000000E+00 -1.000000000E+00 1.436981333E-02
 2.350000000E+00 -1.000000000E+00 1.424021177E-02
 2.400000000E+00 -1.000000000E+00 1.378880757E-02
 2.450000000E+00 -1.000000000E+00 1.353258318E-02
 2.500000000E+00 -1.000000000E+00 1.338700743E-02
 2.550000000E+00 -1.000000000E+00 1.315964187E-02
 2.600000000E+00 -1.000000000E+00 1.299172242E-02
 2.650000000E+00 -1.000000000E+00 1.284502937E-02
 2.700000000E+00 -1.000000000E+00 1.268210036E-02
 2.750000000E+00 -1.000000000E+00 1.258646080E-02
 2.800000000E+00 -1.000000000E+00 1.251576729E-02
 2.850000000E+00 -1.000000000E+00 1.243873541E-02
 2.900000000E+00 -1.000000000E+00 1.242608109E-02
 2.950000000E+00 -1.000000000E+00 1.238457157E-02
 3.000000000E+00 -1.000000000E+00 1.259270807E-02
 3.050000000E+00 -1.000000000E+00 1.239334525E-02
 3.100000000E+00 -1.000000000E+00 1.252566022E-02
 3.150000000E+00 -1.000000000E+00 1.248516550E-02
 3.200000000E+00 -1.000000000E+00 1.238303665E-02
 3.250000000E+00 -1.000000000E+00 1.233233069E-02
 3.300000000E+00 -1.000000000E+00 1.205404978E-02
 3.350000000E+00 -1.000000000E+00 1.157321180E-02
 3.400000000E+00 -1.000000000E+00 1.023460899E-02
 3.450000000E+00 -1.000000000E+00 6.694673324E-03
 3.500000000E+00 -9.500000000E-01 -1.016048123E-04
 3.500000000E+00 -9.000000000E-01 3.792598934E-03
 3.500000000E+00 -8.500000000E-01 6.883829304E-03
 3.500000000E+00 -8.000000000E-01 9.219294398E-03
 3.500000000E+00 -7.500000000E-01 1.079609475E-02
 3.500000000E+00 -7.000000000E-01 1.187012533E-02
 3.500000000E+00 -6.500000000E-01 1.303549959E-02
 3.500000000E+00 -6.000000000E-01 1.431567677E-02
 3.500000000E+00 -5.500000000E-01 1.578313165E-02
 3.500000000E+00 -5.000000000E-01 1.733923172E-02
 3.500000000E+00 -4.500000000E-01 1.881039212E-02
 3.500000000E+00 -4.000000000E-01 2.032252399E-02
 3.500000000E+00 -3.500000000E-01 2.184353242E-02
 3.500000000E+00 -3.000000000E-01 2.332549966E-02
 3.500000000E+00 -2.500000000E-01 2.458669059E-02
 3.500000000E+00 -2.000000000E-01 2.511883995E-02
 3.500000000E+00 -1.500000000E-01 2.480561319E-02
 3.500000000E+00 -1.000000000E-01 2.405718802E-02
 3.500000000E+00 -5.000000000E-02 2.344381810E-02
 3.500000000E+00 -2.752242878E-12 2.358241775E-02
 3.500000000E+00 5.000000000E-02 2.429071017E-02
 3.500000000E+00 1.000000000E-01 2.512285050E-02
 3.500000000E+00 1.500000000E-01 2.535690928E-02
 3.500000000E+00 2.000000000E-01 2.475240167E-02
 3.500000000E+00 2.500000000E-01 2.327847893E-02
 3.500000000E+00 3.000000000E-01 2.175300284E-02
 3.500000000E+00 3.500000000E-01 2.029039353E-02
 3.500000000E+00 4.000000000E-01 1.873974110E-02
 3.500000000E+00 4.500000000E-01 1.718443401E-02
 3.500000000E+00 5.000000000E-01 1.562321304E-02
 3.500000000E+00 5.500000000E-01 1.409175902E-02
 3.500000000E+00 6.000000000E-01 1.289660146E-02
 3.500000000E+00 6.500000000E-01 1.214152611E-02
 3.500000000E+00 7.000000000E-01 1.153861407E-02
 3.500000000E+00 7.500000000E-01 1.071160245E-02
 3.500000000E+00 8.000000000E-01 7.268591995E-03
 3.500000000E+00 8.500000000E-01 1.479385828E-03
 3.500000000E+00 9.000000000E-01 -6.201441176E-03
 3.500000000E+00 9.500000000E-01 -1.579794108E-02
 3.450000000E+00 1.000000000E+00 -4.448021334E-03
 3.400000000E+00 1.000000000E+00 1.715298928E-03
 3.350000000E+00 1.000000000E+00 3.501803190E-03
 3.300000000E+00 1.000000000E+00 3.697680233E-03
 3.250000000E+00 1.000000000E+00 3.483443892E-03
 3.200000000E+00 1.000000000E+00 3.093275541E-03
 3.150000000E+00 1.000000000E+00 2.672075168E-03
 3.100000000E+00 1.000000000E+00 1.924084614E-03
 3.050000000E+00 1.000000000E+00 1.414651590E-03
 3.000000000E+00 1.000000000E+00 5.747737924E-04
 2.950000000E+00 1.000000000E+00 -9.073887545E-05
 2.900000000E+00 1.000000000E+00 -8.397255876E-04
 2.850000000E+00 1.000000000E+00 -1.539091995E-03
 2.800000000E+00 1.000000000E+00 -2.348962857E-03
 2.750000000E+00 1.000000000E+00 -2.955153747E-03
 2.700000000E+00 1.000000000E+00 -3.920536153E-03
 2.650000000E+00 1.000000000E+00 -4.467966438E-03
 2.600000000E+00 1.000000000E+00 -5.610389445E-03
 2.550000000E+00 1.000000000E+00 -6.204723615E-03
 2.500000000E+00 1.000000000E+00 -7.224594725E-03
 2.450000000E+00 1.000000000E+00 -8.146713061E-03
 2.400000000E+00 1.000000000E+00 -9.107806421E-03
 2.350000000E+00 1.000000000E+00 -1.013824713E-02
 2.300000000E+00 1.000000000E+00 -1.117382313E-02
 2.250000000E+00 1.000000000E+00 -1.220132538E-02
 2.200000000E+00 1.000000000E+00 -1.350725533E-02
 2.150000000E+00 1.000000000E+00 -1.468784189E-02
 2.100000000E+00 1.000000000E+00 -1.612443108E-02
 2.050000000E+00 1.000000000E+00 -1.758699436E-02
 2.000000000E+00 1.000000000E+00 -1.911693619E-02
 1.950000000E+00 1.000000000E+00 -2.086501240E-02
 1.900000000E+00 1.000000000E+00 -2.263449116E-02
 1.850000000E+00 1.000000000E+00 -2.468384611E-02
 1.800000000E+00 1.000000000E+00 -2.693811344E-02
 1.750000000E+00 1.000000000E+00 -2.960140208E-02
 1.700000000E+00 1.000000000E+00 -3.227317273E-02
 1.650000000E+00 1.000000000E+00 -3.505379085E-02
 1.600000000E+00 1.000000000E+00 -3.874630581E-02
 1.550000000E+00 1.000000000E+00 -4.191900279E-02
 1.500000000E+00 1.000000000E+00 -4.612398701E-02
 1.450000000E+00 1.000000000E+00 -5.066411048E-02
 1.400000000E+00 1.000000000E+00 -5.548470737E-02
 1.350000000E+00 1.000000000E+00 -6.070906412E-02
 1.300000000E+00 1.000000000E+00 -6.641326830E-02
 1.250000000E+00 1.000000000E+00 -7.240046903E-02
 1.200000000E+00 1.000000000E+00 -7.908641521E-02
 1.150000000E+00 1.000000000E+00 -8.539228615E-02
 1.100000000E+00 1.000000000E+00 -9.216864048E-02
 1.050000000E+00 1.000000000E+00 -9.838927375E-02
 1.000000000E+00 1.000000000E+00 -1.036139610E-01
 9.500000000E-01 1.000000000E+00 -1.088838719E-01
 9.000000000E-01 1.000000000E+00 -1.131501908E-01
 8.500000000E-01 1.000000000E+00 -1.155322873E-01
 8.000000000E-01 1.000000000E+00 -1.175807926E-01
 7.500000000E-01 1.000000000E+00 -1.161124310E-01
 7.000000000E-01 1.000000000E+00 -1.140289763E-01
 6.500000000E-01 1.000000000E+00 -1.094480091E-01
 6.000000000E-01 1.000000000E+00 -1.030793638E-01
 5.500000000E-01 1.000000000E+00 -9.492092820E-02
 5.000000000E-01 1.000000000E+00 -8.528801052E-02
 4.500000000E-01 1.000000000E+00 -7.403016440E-02
 4.000000000E-01 1.000000000E+00 -6.248011538E-02
 3.500000000E-01 1.000000000E+00 -4.982906921E-02
 3.000000000E-01 1.000000000E+00 -3.675795961E-02
 2.500000000E-01 1.000000000E+00 -2.435579781E-02
 2.000000000E-01 1.000000000E+00 -1.190280832E-02
 1.500000000E-01 1.000000000E+00 -4.723533658E-04
 1.000000000E-01 1.000000000E+00 1.005611938E-02
 5.000000000E-02 1.000000000E+00 1.930170389E-02
 1.733724275E-12 1.000000000E+00 2.696777110E-02
 -5.000000000E-02 1.000000000E+00 3.315453073E-02
 -1.000000000E-01 1.000000000E+00 3.758684475E-02
 -1.500000000E-01 1.000000000E+00 4.043728111E-02
 -2.000000000E-01 1.000000000E+00 4.163105310E-02
 -2.500000000E-01 1.000000000E+00 4.117377241E-02
 -3.000000000E-01 1.000000000E+00 3.907226361E-02
 -3.500000000E-01 1.000000000E+00 3.544062820E-02
 -4.000000000E-01 1.000000000E+00 2.948164994E-02
 -4.500000000E-01 1.000000000E+00 1.988540615E-02
 8.856742739E-01 -9.371005587E-03 3.284960204E-01
 8.108263342E-01 -1.768014804E-02 2.241899357E-01
 7.407475977E-01 -2.881108141E-02 1.175587102E-01
 6.687952289E-01 -4.003381351E-02 -3.802200323E-03
 9.797227345E-01 -5.452002027E-03 3.423119861E-01
 6.016663928E-01 -5.037762625E-02 -1.366451114E-01
 5.354658250E-01 -6.029056237E-02 -3.061381254E-01
 4.772947972E-01 -6.737018355E-02 -4.714361079E-01
 4.203015214E-01 -7.254311033E-02 -1.006122535E+00
 3.598006481E-01 -7.382675155E-02 -8.778831194E-01
 3.099674884E-01 -7.382778722E-02 -7.446572183E-01
 2.552588072E-01 -7.131025334E-02 -6.230328965E-01
 1.971683065E-01 -6.513478035E-02 -5.066357566E-01
 1.466748097E-01 -5.930727371E-02 -4.083728509E-01
 1.014273998E-01 -5.122818761E-02 -3.075168217E-01
 6.222837606E-02 -4.415828096E-02 -1.681356734E-01