TITLE     = "Visualization of the solution"
VARIABLES = "x"
"y"
"Pressure_Coefficient"
ZONE T="Zone"
 STRANDID=0, SOLUTIONTIME=0
 Nodes=12175, Elements=23767, ZONETYPE=FEQuadrilateral
 DATAPACKING=POINT
 DT=(DOUBLE DOUBLE DOUBLE )
 9.998611808E-01 5.070655025E-04 3.379500172E-01
 9.883543253E-01 2.800565679E-03 2.684044369E-01
 9.754492044E-01 5.357241258E-03 1.878241347E-01
 9.580757618E-01 8.752841502E-03 1.310906232E-01
 9.427070618E-01 1.180109289E-02 7.817491159E-02
 9.267330170E-01 1.494559832E-02 3.741522042E-02
 9.149610996E-01 1.728416979E-02 -1.525143275E-03
 9.031279087E-01 1.963510551E-02 -5.085354452E-02
 8.909270167E-01 2.192720398E-02 -5.955025646E-02
 8.792404532E-01 2.418177202E-02 -1.064636403E-01
 8.665574789E-01 2.651840262E-02 -1.270887545E-01
 8.540861607E-01 2.880358137E-02 -1.603530767E-01
 8.416211009E-01 3.102326766E-02 -1.866814987E-01
 8.308469057E-01 3.290848434E-02 -2.130909492E-01
 8.189959526E-01 3.490883484E-02 -2.268131091E-01
 8.061811328E-01 3.702851757E-02 -2.414188836E-01
 7.936215401E-01 3.910393640E-02 -2.741451394E-01
 7.810451388E-01 4.112972692E-02 -3.027369495E-01
 7.688062191E-01 4.304076359E-02 -3.253566474E-01
 7.570257783E-01 4.482452571E-02 -3.403077404E-01
 7.439688444E-01 4.675709829E-02 -3.590440816E-01
 7.305835485E-01 4.871073738E-02 -3.950874138E-01
 7.200672030E-01 5.018709227E-02 -4.121138665E-01
 7.091506124E-01 5.168053508E-02 -4.308292837E-01
 6.977029443E-01 5.320820585E-02 -4.520044124E-01
 6.843469143E-01 5.492404848E-02 -4.745808191E-01
 6.713947654E-01 5.653988570E-02 -5.103028536E-01
 6.615453959E-01 5.771031231E-02 -5.193046325E-01
 6.500456333E-01 5.902048200E-02 -5.381712519E-01
 6.380684972E-01 6.033667549E-02 -5.586303825E-01
 6.266179085E-01 6.151886657E-02 -5.185748972E-01
 6.151722670E-01 6.264007092E-02 -4.678630821E-01
 6.045218110E-01 6.363328546E-02 -7.582074084E-01
 5.921612978E-01 6.470576674E-02 -9.537956414E-01
 5.810404420E-01 6.562315673E-02 -9.133597277E-01
 5.680084229E-01 6.659566611E-02 -8.982937190E-01
 5.561806560E-01 6.739533693E-02 -8.860916952E-01
 5.445756912E-01 6.809543073E-02 -8.735103560E-01
 5.339955091E-01 6.868151575E-02 -8.649248086E-01
 5.229647756E-01 6.923145056E-02 -8.495462643E-01
 5.109472275E-01 6.975539029E-02 -8.335262158E-01
 4.998510182E-01 7.017021626E-02 -8.237621336E-01
 4.870998859E-01 7.059527934E-02 -8.038975143E-01
 4.735027850E-01 7.090401649E-02 -7.731153627E-01
 4.599078298E-01 7.113786787E-02 -7.717892217E-01
 4.470820725E-01 7.129387558E-02 -7.559932196E-01
 4.345916510E-01 7.135277987E-02 -7.359703047E-01
 4.221782088E-01 7.136156410E-02 -7.234300653E-01
 4.098263979E-01 7.127413154E-02 -6.933817440E-01
 3.977762163E-01 7.112974674E-02 -6.827940168E-01
 3.854519725E-01 7.092427462E-02 -6.737471504E-01
 3.738443851E-01 7.065694034E-02 -6.578992248E-01
 3.610754609E-01 7.031200081E-02 -6.494894481E-01
 3.484860659E-01 6.988297403E-02 -6.277978820E-01
 3.352195323E-01 6.936462224E-02 -6.249580602E-01
 3.239397407E-01 6.886336952E-02 -6.088944636E-01
 3.110299706E-01 6.819944829E-02 -5.868253272E-01
 2.977127433E-01 6.745458394E-02 -5.766174493E-01
 2.836626470E-01 6.656531245E-02 -5.604817466E-01
 2.714066207E-01 6.571426988E-02 -5.490853594E-01
 2.594572008E-01 6.481837481E-02 -5.389802172E-01
 2.469563335E-01 6.378845870E-02 -5.200570774E-01
 2.344856858E-01 6.267870218E-02 -5.028747519E-01
 2.220376730E-01 6.148653105E-02 -4.868427937E-01
 2.101697773E-01 6.026868150E-02 -4.729901349E-01
 1.984926313E-01 5.899096653E-02 -4.586544086E-01
 1.859273463E-01 5.751306936E-02 -4.403980548E-01
 1.739379317E-01 5.600029230E-02 -4.232663908E-01
 1.626085341E-01 5.447747931E-02 -4.035973038E-01
 1.505770087E-01 5.274323747E-02 -3.827675851E-01
 1.399002373E-01 5.111380294E-02 -3.642269441E-01
 1.279431581E-01 4.915791005E-02 -3.393584896E-01
 1.164674610E-01 4.714821279E-02 -3.148300587E-01
 1.058896109E-01 4.517152533E-02 -2.930888984E-01
 9.593104571E-02 4.317854717E-02 -2.628020536E-01
 8.481566608E-02 4.079853371E-02 -2.289411375E-01
 7.313159853E-02 3.808333352E-02 -1.939656878E-01
 6.328447908E-02 3.559465334E-02 -1.559616086E-01
 5.341776088E-02 3.287537396E-02 -1.035745877E-01
 4.492915049E-02 3.032066487E-02 -6.032121765E-02
 3.770180047E-02 2.794383466E-02 -1.212564086E-02
 3.130873665E-02 2.565713786E-02 4.274908281E-02
 2.573463134E-02 2.347034775E-02 9.190643684E-02
 2.170860954E-02 2.175759897E-02 1.435340513E-01
 1.787849143E-02 1.999191381E-02 1.968336794E-01
 1.477571856E-02 1.843679510E-02 2.572213593E-01
 1.186641585E-02 1.685263589E-02 3.154126597E-01
 9.767597541E-03 1.559887361E-02 3.671167952E-01
 7.958594710E-03 1.444281638E-02 4.111540177E-01
 6.269836333E-03 1.325212047E-02 4.977566083E-01
 4.036240745E-03 1.148828119E-02 6.110468723E-01
 2.077491721E-03 9.644762613E-03 7.170010371E-01
 4.756579292E-04 7.763613947E-03 9.141329604E-01
 -1.084714546E-03 5.060847849E-03 1.115326666E+00
 -1.669672783E-03 3.090811661E-03 1.186732597E+00
 -1.786332112E-03 1.515628886E-03 1.180222389E+00
 -1.585521852E-03 -7.755953993E-05 1.091030817E+00
 -1.099423156E-03 -1.578055671E-03 9.139662560E-01
 -1.267353364E-04 -3.383936826E-03 7.424852145E-01
 1.280052471E-03 -5.189355928E-03 5.295148297E-01
 3.212106181E-03 -7.052551955E-03 3.612019702E-01
 4.976533353E-03 -8.445784450E-03 2.198894039E-01
 6.934610661E-03 -9.770043194E-03 1.339936094E-01
 8.577847853E-03 -1.076037623E-02 6.723883340E-02
 1.066508237E-02 -1.189518068E-02 2.356756749E-02
 1.296143048E-02 -1.303130295E-02 -3.016540254E-02
 1.624549367E-02 -1.448510215E-02 -7.206941115E-02
 1.908354089E-02 -1.562019158E-02 -1.167660046E-01
 2.275440097E-02 -1.696269214E-02 -1.393712689E-01
 2.799164131E-02 -1.867838949E-02 -1.619733254E-01
 3.372515365E-02 -2.036136016E-02 -1.874970417E-01
 4.071522877E-02 -2.220195718E-02 -2.033346023E-01
 4.835257679E-02 -2.401440218E-02 -2.155270359E-01
 5.742627010E-02 -2.596233226E-02 -2.240026796E-01
 6.625399739E-02 -2.769794874E-02 -2.360447461E-01
 7.625143230E-02 -2.950515971E-02 -2.430263010E-01
 8.634670079E-02 -3.120267019E-02 -2.531112093E-01
 9.652568400E-02 -3.279710934E-02 -2.608556434E-01
 1.077078134E-01 -3.443772346E-02 -2.681399977E-01
 1.190347895E-01 -3.600223735E-02 -2.799620555E-01
 1.309487522E-01 -3.754309937E-02 -2.877059256E-01
 1.420001537E-01 -3.889852762E-02 -3.001060786E-01
 1.531073749E-01 -4.019057378E-02 -3.122588922E-01
 1.655345261E-01 -4.155754298E-02 -3.249570505E-01
 1.774026006E-01 -4.278644547E-02 -3.390114495E-01
 1.896275282E-01 -4.397956282E-02 -3.521465592E-01
 2.006659210E-01 -4.500056058E-02 -3.702277224E-01
 2.120424211E-01 -4.598173872E-02 -3.816858576E-01
 2.244982868E-01 -4.698810726E-02 -3.956345467E-01
 2.377378941E-01 -4.798283800E-02 -4.147165946E-01
 2.503561080E-01 -4.885351658E-02 -4.356934175E-01
 2.628131807E-01 -4.962570965E-02 -4.505742596E-01
 2.743392885E-01 -5.028298125E-02 -4.754237291E-01
 2.870664895E-01 -5.090382323E-02 -4.877893442E-01
 2.998380363E-01 -5.145161599E-02 -5.104461857E-01
 3.126851618E-01 -5.188864842E-02 -5.237760657E-01
 3.248128593E-01 -5.222117156E-02 -5.432692587E-01
 3.373867869E-01 -5.246211961E-02 -5.609310177E-01
 3.485382199E-01 -5.257650465E-02 -5.699702828E-01
 3.600026071E-01 -5.261218175E-02 -5.777250707E-01
 3.708725572E-01 -5.254894122E-02 -5.817931271E-01
 3.817471564E-01 -5.240335315E-02 -5.849452090E-01
 3.933226168E-01 -5.213439837E-02 -5.727818899E-01
 4.064708352E-01 -5.170814320E-02 -5.552052232E-01
 4.190032184E-01 -5.117212608E-02 -5.412697164E-01
 4.316637814E-01 -5.049028248E-02 -5.097371641E-01
 4.439648092E-01 -4.971405119E-02 -4.823248249E-01
 4.554336071E-01 -4.887089878E-02 -4.463089130E-01
 4.669186473E-01 -4.794557020E-02 -4.175721940E-01
 4.791107476E-01 -4.684806615E-02 -3.788003142E-01
 4.902771711E-01 -4.575207084E-02 -3.384088689E-01
 5.028150082E-01 -4.445036128E-02 -3.001312972E-01
 5.164427757E-01 -4.295306653E-02 -2.638645478E-01
 5.297188163E-01 -4.140783474E-02 -2.254097016E-01
 5.429959297E-01 -3.979036957E-02 -1.865633804E-01
 5.551180840E-01 -3.827420250E-02 -1.554268551E-01
 5.684188008E-01 -3.656437248E-02 -1.217202580E-01
 5.809230804E-01 -3.492243960E-02 -9.015168951E-02
 5.928450227E-01 -3.335174918E-02 -6.807546118E-02
 6.050823331E-01 -3.170296922E-02 -3.873950554E-02
 6.194786429E-01 -2.974417247E-02 -6.123792577E-03
 6.339425445E-01 -2.779960074E-02 1.624629136E-02
 6.488502026E-01 -2.577322721E-02 4.423848967E-02
 6.615702510E-01 -2.403125539E-02 7.260039436E-02
 6.746941805E-01 -2.226904966E-02 9.286328006E-02
 6.869432926E-01 -2.065138519E-02 1.091264634E-01
 6.992021203E-01 -1.903583109E-02 1.291742907E-01
 7.133640051E-01 -1.720457524E-02 1.465431764E-01
 7.261192799E-01 -1.555500180E-02 1.688206125E-01
 7.381959558E-01 -1.402627770E-02 1.876763095E-01
 7.514315248E-01 -1.238809526E-02 2.060483453E-01
 7.631258368E-01 -1.097354107E-02 2.239850396E-01
 7.764975429E-01 -9.416819550E-03 2.387425425E-01
 7.878251672E-01 -8.116967045E-03 2.597992892E-01
 8.010479212E-01 -6.705485284E-03 2.672694636E-01
 8.116919398E-01 -5.568397231E-03 2.898013552E-01
 8.233819008E-01 -4.401714541E-03 3.033251470E-01
 8.366998434E-01 -3.165661823E-03 3.169673380E-01
 8.492235541E-01 -2.076967387E-03 3.345762197E-01
 8.614224792E-01 -1.125150127E-03 3.476413340E-01
 8.735762239E-01 -2.931621566E-04 3.578362642E-01
 8.858584166E-01 4.221376439E-04 3.651752896E-01
 8.989340663E-01 1.066417783E-03 3.761461344E-01
 9.092351198E-01 1.447801711E-03 3.806972116E-01
 9.202193022E-01 1.735979342E-03 3.802512700E-01
 9.297854304E-01 1.900502713E-03 3.813638528E-01
 9.383294582E-01 1.976088388E-03 3.831222953E-01
 9.500630498E-01 1.969416160E-03 3.801683149E-01
 9.622359872E-01 1.835288713E-03 3.789514472E-01
 9.759942889E-01 1.522810548E-03 3.784959479E-01
 9.878980517E-01 1.104550203E-03 3.817257905E-01
 -5.000000000E-01 -1.000000000E+00 1.535269308E-02
 3.500000000E+00 -1.000000000E+00 7.947996019E-03
 3.500000000E+00 1.000000000E+00 -3.401138126E-02
 -5.000000000E-01 1.000000000E+00 1.427123758E-02
 9.941077530E-01 1.653815591E-03 3.530805482E-01
 9.819017649E-01 4.078903468E-03 2.238509258E-01
 9.667624831E-01 7.055041380E-03 1.577994247E-01
 9.503914118E-01 1.027696719E-02 1.025137222E-01
 9.347200394E-01 1.337334560E-02 5.698678898E-02
 9.208470583E-01 1.611488406E-02 1.885933880E-02
 9.090445042E-01 1.845963765E-02 -3.272566016E-02
 8.970274627E-01 2.078115474E-02 -4.930385171E-02
 8.850837350E-01 2.305448800E-02 -8.797797465E-02
 8.728989661E-01 2.535008732E-02 -1.146571727E-01
 8.603218198E-01 2.766099200E-02 -1.451664932E-01
 8.478536308E-01 2.991342451E-02 -1.725423633E-01
 8.362340033E-01 3.196587600E-02 -2.020277710E-01
 8.249214292E-01 3.390865959E-02 -2.202933936E-01
 8.125885427E-01 3.596867621E-02 -2.312211375E-01
 7.999013364E-01 3.806622699E-02 -2.583566875E-01
 7.873333395E-01 4.011683166E-02 -2.894829096E-01
 7.749256790E-01 4.208524525E-02 -3.147685365E-01
 7.629159987E-01 4.393264465E-02 -3.331806311E-01
 7.504973114E-01 4.579081200E-02 -3.473463425E-01
 7.372761965E-01 4.773391783E-02 -3.781691523E-01
 7.253253758E-01 4.944891483E-02 -4.040888873E-01
 7.146089077E-01 5.093381368E-02 -4.206567416E-01
 7.034267783E-01 5.244437046E-02 -4.429483130E-01
 6.910249293E-01 5.406612717E-02 -4.612064320E-01
 6.778708398E-01 5.573196709E-02 -4.931252712E-01
 6.557955146E-01 5.836539716E-02 -5.264457587E-01
 6.440570652E-01 5.967857875E-02 -5.536248429E-01
 6.323432028E-01 6.092777103E-02 -5.470453606E-01
 6.208950877E-01 6.207946874E-02 -4.787642450E-01
 6.098470390E-01 6.313667819E-02 -5.551040991E-01
 5.983415544E-01 6.416952610E-02 -9.129792064E-01
 5.866008699E-01 6.516446173E-02 -9.381736009E-01
 5.745244324E-01 6.610941142E-02 -9.015541750E-01
 5.620945394E-01 6.699550152E-02 -8.938264268E-01
 5.503781736E-01 6.774538383E-02 -8.772817840E-01
 5.392856002E-01 6.838847324E-02 -8.702292427E-01
 5.284801424E-01 6.895648316E-02 -8.583564181E-01
 5.169560015E-01 6.949342042E-02 -8.414642195E-01
 5.053991228E-01 6.996280327E-02 -8.257748488E-01
 4.934754521E-01 7.038274780E-02 -8.224905550E-01
 4.803013355E-01 7.074964792E-02 -7.810092131E-01
 4.667053074E-01 7.102094218E-02 -7.712566084E-01
 4.534949511E-01 7.121587172E-02 -7.684308372E-01
 4.408368617E-01 7.132332772E-02 -7.411786548E-01
 4.283849299E-01 7.135717198E-02 -7.345248515E-01
 4.160023034E-01 7.131784782E-02 -7.059019922E-01
 4.038013071E-01 7.120193914E-02 -6.857049016E-01
 3.916140944E-01 7.102701068E-02 -6.809744111E-01
 3.796481788E-01 7.079060748E-02 -6.629567700E-01
 3.674599230E-01 7.048447058E-02 -6.570118243E-01
 3.547807634E-01 7.009748742E-02 -6.369782771E-01
 3.418527991E-01 6.962379813E-02 -6.245381788E-01
 3.295796365E-01 6.911399588E-02 -6.214984857E-01
 3.174848557E-01 6.853140891E-02 -5.945642670E-01
 3.043713570E-01 6.782701612E-02 -5.839404406E-01
 2.906876951E-01 6.700994819E-02 -5.675774527E-01
 2.775346339E-01 6.613979116E-02 -5.533244076E-01
 2.654319108E-01 6.526632234E-02 -5.462022057E-01
 2.532067671E-01 6.430341676E-02 -5.291096271E-01
 2.407210097E-01 6.323358044E-02 -5.114772974E-01
 2.282616794E-01 6.208261661E-02 -4.945262498E-01
 2.161037251E-01 6.087760627E-02 -4.793204775E-01
 2.043312043E-01 5.962982401E-02 -4.671585559E-01
 1.922099888E-01 5.825201795E-02 -4.498727470E-01
 1.799326390E-01 5.675668083E-02 -4.308770252E-01
 1.682732329E-01 5.523888581E-02 -4.157925773E-01
 1.565927714E-01 5.361035839E-02 -3.904395955E-01
 1.452386230E-01 5.192852020E-02 -3.763558386E-01
 1.339216977E-01 5.013585649E-02 -3.519608025E-01
 1.222053096E-01 4.815306142E-02 -3.262349374E-01
 1.111785360E-01 4.615986906E-02 -3.041773373E-01
 1.009103283E-01 4.417503625E-02 -2.798725711E-01
 9.037335590E-02 4.198854044E-02 -2.492623049E-01
 7.897363231E-02 3.944093361E-02 -2.095753696E-01
 6.820803881E-02 3.683899343E-02 -1.765455717E-01
 5.835111998E-02 3.423501365E-02 -1.361914113E-01
 7.125271484E-02 -2.860155422E-02 -2.417174028E-01
 8.129906654E-02 -3.035391495E-02 -2.477594256E-01
 9.143619239E-02 -3.199988976E-02 -2.582268873E-01
 1.021167487E-01 -3.361741640E-02 -2.637279842E-01
 1.133713014E-01 -3.521998040E-02 -2.740928499E-01
 1.249917708E-01 -3.677266836E-02 -2.843731896E-01
 1.364744529E-01 -3.822081350E-02 -2.940174512E-01
 1.475537643E-01 -3.954455070E-02 -3.060658692E-01
 1.593209505E-01 -4.087405838E-02 -3.177977945E-01
 1.714685634E-01 -4.217199422E-02 -3.327993101E-01
 1.835150644E-01 -4.338300414E-02 -3.452069333E-01
 1.951467246E-01 -4.449006170E-02 -3.612712856E-01
 2.063541710E-01 -4.549114965E-02 -3.766288162E-01
 2.182703540E-01 -4.648492299E-02 -3.875494411E-01
 2.311180905E-01 -4.748547263E-02 -4.042888880E-01
 2.440470010E-01 -4.841817729E-02 -4.256238259E-01
 2.565846443E-01 -4.923961312E-02 -4.440726248E-01
 2.685762346E-01 -4.995434545E-02 -4.611879227E-01
 2.807028890E-01 -5.059340224E-02 -4.834368102E-01
 2.934522629E-01 -5.117771961E-02 -4.964702156E-01
 3.062615991E-01 -5.167013220E-02 -5.195169953E-01
 3.187490106E-01 -5.205490999E-02 -5.320943774E-01
 3.310998231E-01 -5.234164558E-02 -5.521212084E-01
 3.429625034E-01 -5.251931213E-02 -5.684987041E-01
 3.542704135E-01 -5.259434320E-02 -5.717678383E-01
 3.654375821E-01 -5.258056149E-02 -5.821601879E-01
 3.763098568E-01 -5.247614719E-02 -5.823760863E-01
 3.875348866E-01 -5.226887576E-02 -5.813774198E-01
 3.998967260E-01 -5.192127079E-02 -5.615649452E-01
 4.127370268E-01 -5.144013464E-02 -5.500302534E-01
 4.253334999E-01 -5.083120428E-02 -5.272584357E-01
 4.378142953E-01 -5.010216683E-02 -4.952415110E-01
 4.496992081E-01 -4.929247499E-02 -4.668782778E-01
 4.611761272E-01 -4.840823449E-02 -4.301945110E-01
 4.730146974E-01 -4.739681818E-02 -3.997850873E-01
 4.846939594E-01 -4.630006850E-02 -3.598586553E-01
 4.965460896E-01 -4.510121606E-02 -3.178888297E-01
 5.096288919E-01 -4.370171390E-02 -2.820014139E-01
 5.230807960E-01 -4.218045063E-02 -2.453135121E-01
 5.363573730E-01 -4.059910215E-02 -2.060953841E-01
 5.490570068E-01 -3.903228603E-02 -1.705182738E-01
 5.617684424E-01 -3.741928749E-02 -1.388250176E-01
 5.746709406E-01 -3.574340604E-02 -1.060777582E-01
 5.868840516E-01 -3.413709439E-02 -7.795768105E-02
 5.989636779E-01 -3.252735920E-02 -5.505787814E-02
 6.122804880E-01 -3.072357085E-02 -2.275257109E-02
 6.267105937E-01 -2.877188660E-02 6.574254635E-03
 6.413963735E-01 -2.678641398E-02 2.912389115E-02
 6.552102268E-01 -2.490224130E-02 5.768590753E-02
 6.681322157E-01 -2.315015253E-02 8.359379876E-02
 6.808187366E-01 -2.146021742E-02 1.016943025E-01
 6.930727065E-01 -1.984360814E-02 1.184715917E-01
 7.062830627E-01 -1.812020317E-02 1.381941266E-01
 7.197416425E-01 -1.637978852E-02 1.571305028E-01
 7.321576178E-01 -1.479063975E-02 1.783777749E-01
 7.448137403E-01 -1.320718648E-02 1.967784846E-01
 7.572786808E-01 -1.168081816E-02 2.152068690E-01
 7.698116899E-01 -1.019518031E-02 2.312398789E-01
 7.821613550E-01 -8.766893297E-03 2.486654978E-01
 7.944365442E-01 -7.411226165E-03 2.648155357E-01
 8.063699305E-01 -6.136941258E-03 2.770688065E-01
 8.175369203E-01 -4.985055886E-03 2.966478264E-01
 8.300408721E-01 -3.783688182E-03 3.097094708E-01
 8.429616988E-01 -2.621314605E-03 3.253551921E-01
 8.553230166E-01 -1.601058757E-03 3.411861150E-01
 8.674993515E-01 -7.091561420E-04 3.530448012E-01
 8.797173202E-01 6.448774366E-05 3.616898394E-01
 8.923962414E-01 7.442777132E-04 3.694939684E-01
 9.040845931E-01 1.257109747E-03 3.809490894E-01
 9.147272110E-01 1.591890526E-03 3.809465674E-01
 9.441962540E-01 1.972752274E-03 3.806175583E-01
 9.561495185E-01 1.902352436E-03 3.792989365E-01
 9.691151381E-01 1.679049630E-03 3.770095546E-01
 9.819461703E-01 1.313680375E-03 3.808865255E-01
 9.938796163E-01 8.058078529E-04 4.200809484E-01
 -5.000000000E-01 9.500000000E-01 2.325397898E-02
 -5.000000000E-01 9.000000000E-01 3.523304234E-02
 -5.000000000E-01 8.500000000E-01 4.426487171E-02
 -5.000000000E-01 8.000000000E-01 5.234918068E-02
 -5.000000000E-01 7.500000000E-01 6.009839001E-02
 -5.000000000E-01 7.000000000E-01 6.776866614E-02
 -5.000000000E-01 6.500000000E-01 7.563382067E-02
 -5.000000000E-01 6.000000000E-01 8.354146148E-02
 -5.000000000E-01 5.500000000E-01 9.186104835E-02
 -5.000000000E-01 5.000000000E-01 1.002107508E-01
 -5.000000000E-01 4.500000000E-01 1.087678719E-01
 -5.000000000E-01 4.000000000E-01 1.173190313E-01
 -5.000000000E-01 3.500000000E-01 1.257985267E-01
 -5.000000000E-01 3.000000000E-01 1.337500710E-01
 -5.000000000E-01 2.500000000E-01 1.412826713E-01
 -5.000000000E-01 2.000000000E-01 1.476386110E-01
 -5.000000000E-01 1.500000000E-01 1.532754425E-01
 -5.000000000E-01 1.000000000E-01 1.573058256E-01
 -5.000000000E-01 5.000000000E-02 1.597820956E-01
 -5.000000000E-01 2.752242878E-12 1.606588413E-01
 -5.000000000E-01 -5.000000000E-02 1.596933592E-01
 -5.000000000E-01 -1.000000000E-01 1.572154852E-01
 -5.000000000E-01 -1.500000000E-01 1.532044169E-01
 -5.000000000E-01 -2.000000000E-01 1.476398678E-01
 -5.000000000E-01 -2.500000000E-01 1.415768653E-01
 -5.000000000E-01 -3.000000000E-01 1.344000994E-01
 -5.000000000E-01 -3.500000000E-01 1.266763488E-01
 -5.000000000E-01 -4.000000000E-01 1.187462950E-01
 -5.000000000E-01 -4.500000000E-01 1.105514098E-01
 -5.000000000E-01 -5.000000000E-01 1.024753396E-01
 -5.000000000E-01 -5.500000000E-01 9.447840715E-02
 -5.000000000E-01 -6.000000000E-01 8.649773049E-02
 -5.000000000E-01 -6.500000000E-01 7.879617219E-02
 -5.000000000E-01 -7.000000000E-01 7.114020756E-02
 -5.000000000E-01 -7.500000000E-01 6.345088440E-02
 -5.000000000E-01 -8.000000000E-01 5.560664528E-02
 -5.000000000E-01 -8.500000000E-01 4.722254638E-02
 -5.000000000E-01 -9.000000000E-01 3.757690942E-02
 -5.000000000E-01 -9.500000000E-01 2.500696554E-02
 -4.500000000E-01 -1.000000000E+00 2.065006373E-02
 -4.000000000E-01 -1.000000000E+00 3.080669308E-02
 -3.500000000E-01 -1.000000000E+00 3.722431505E-02
 -3.000000000E-01 -1.000000000E+00 4.142835970E-02
 -2.500000000E-01 -1.000000000E+00 4.410444515E-02
 -2.000000000E-01 -1.000000000E+00 4.541335632E-02
 -1.500000000E-01 -1.000000000E+00 4.527041407E-02
 -1.000000000E-01 -1.000000000E+00 4.377890296E-02
 -5.000000000E-02 -1.000000000E+00 4.099735298E-02
 -9.424683256E-13 -1.000000000E+00 3.686808799E-02
 5.000000000E-02 -1.000000000E+00 3.169884676E-02
 1.000000000E-01 -1.000000000E+00 2.540844823E-02
 1.500000000E-01 -1.000000000E+00 1.867727803E-02
 2.000000000E-01 -1.000000000E+00 1.156782897E-02
 2.500000000E-01 -1.000000000E+00 4.364453114E-03
 3.000000000E-01 -1.000000000E+00 -2.277764320E-03
 3.500000000E-01 -1.000000000E+00 -8.312911187E-03
 4.000000000E-01 -1.000000000E+00 -1.319572086E-02
 4.500000000E-01 -1.000000000E+00 -1.667598031E-02
 5.000000000E-01 -1.000000000E+00 -1.861123930E-02
 5.500000000E-01 -1.000000000E+00 -1.896714287E-02
 6.000000000E-01 -1.000000000E+00 -1.772539267E-02
 6.500000000E-01 -1.000000000E+00 -1.505092364E-02
 7.000000000E-01 -1.000000000E+00 -1.110656055E-02
 7.500000000E-01 -1.000000000E+00 -6.261637349E-03
 8.000000000E-01 -1.000000000E+00 -6.361955840E-04
 8.500000000E-01 -1.000000000E+00 5.300101880E-03
 9.000000000E-01 -1.000000000E+00 1.134498106E-02
 9.500000000E-01 -1.000000000E+00 1.714780045E-02
 1.000000000E+00 -1.000000000E+00 2.262578283E-02
 1.050000000E+00 -1.000000000E+00 2.756862980E-02
 1.100000000E+00 -1.000000000E+00 3.190468749E-02
 1.150000000E+00 -1.000000000E+00 3.560353650E-02
 1.200000000E+00 -1.000000000E+00 3.864015312E-02
 1.250000000E+00 -1.000000000E+00 4.101753932E-02
 1.300000000E+00 -1.000000000E+00 4.280629547E-02
 1.350000000E+00 -1.000000000E+00 4.401375285E-02
 1.400000000E+00 -1.000000000E+00 4.476125727E-02
 1.450000000E+00 -1.000000000E+00 4.505580740E-02
 1.500000000E+00 -1.000000000E+00 4.500667395E-02
 1.550000000E+00 -1.000000000E+00 4.465259191E-02
 1.600000000E+00 -1.000000000E+00 4.404986674E-02
 1.650000000E+00 -1.000000000E+00 4.326399273E-02
 1.700000000E+00 -1.000000000E+00 4.228765215E-02
 1.750000000E+00 -1.000000000E+00 4.124230371E-02
 1.800000000E+00 -1.000000000E+00 4.015295166E-02
 1.850000000E+00 -1.000000000E+00 3.887623348E-02
 1.900000000E+00 -1.000000000E+00 3.771637479E-02
 1.950000000E+00 -1.000000000E+00 3.641347388E-02
 2.000000000E+00 -1.000000000E+00 3.512881991E-02
 2.050000000E+00 -1.000000000E+00 3.390114782E-02
 2.100000000E+00 -1.000000000E+00 3.268509662E-02
 2.150000000E+00 -1.000000000E+00 3.152675103E-02
 2.200000000E+00 -1.000000000E+00 3.034391237E-02
 2.250000000E+00 -1.000000000E+00 2.930235834E-02
 2.300000000E+00 -1.000000000E+00 2.817537007E-02
 2.350000000E+00 -1.000000000E+00 2.715839436E-02
 2.400000000E+00 -1.000000000E+00 2.621241084E-02
 2.450000000E+00 -1.000000000E+00 2.533053956E-02
 2.500000000E+00 -1.000000000E+00 2.441712739E-02
 2.550000000E+00 -1.000000000E+00 2.366427168E-02
 2.600000000E+00 -1.000000000E+00 2.284560436E-02
 2.650000000E+00 -1.000000000E+00 2.215433290E-02
 2.700000000E+00 -1.000000000E+00 2.152311979E-02
 2.750000000E+00 -1.000000000E+00 2.095322018E-02
 2.800000000E+00 -1.000000000E+00 2.039498113E-02
 2.850000000E+00 -1.000000000E+00 1.989681069E-02
 2.900000000E+00 -1.000000000E+00 1.943909354E-02
 2.950000000E+00 -1.000000000E+00 1.902142093E-02
 3.000000000E+00 -1.000000000E+00 1.864583674E-02
 3.050000000E+00 -1.000000000E+00 1.827384628E-02
 3.100000000E+00 -1.000000000E+00 1.793351498E-02
 3.150000000E+00 -1.000000000E+00 1.757311493E-02
 3.200000000E+00 -1.000000000E+00 1.718863854E-02
 3.250000000E+00 -1.000000000E+00 1.675094830E-02
 3.300000000E+00 -1.000000000E+00 1.616010972E-02
 3.350000000E+00 -1.000000000E+00 1.537093182E-02
 3.400000000E+00 -1.000000000E+00 1.404304589E-02
 3.450000000E+00 -1.000000000E+00 1.144727939E-02
 3.500000000E+00 -9.500000000E-01 6.164603827E-03
 3.500000000E+00 -9.000000000E-01 7.420130891E-03
 3.500000000E+00 -8.500000000E-01 8.575514386E-03
 3.500000000E+00 -8.000000000E-01 9.891536377E-03
 3.500000000E+00 -7.500000000E-01 1.116511368E-02
 3.500000000E+00 -7.000000000E-01 1.247089832E-02
 3.500000000E+00 -6.500000000E-01 1.376821684E-02
 3.500000000E+00 -6.000000000E-01 1.507035179E-02
 3.500000000E+00 -5.500000000E-01 1.648391501E-02
 3.500000000E+00 -5.000000000E-01 1.786465434E-02
 3.500000000E+00 -4.500000000E-01 1.927550174E-02
 3.500000000E+00 -4.000000000E-01 2.066324929E-02
 3.500000000E+00 -3.500000000E-01 2.208708262E-02
 3.500000000E+00 -3.000000000E-01 2.337314538E-02
 3.500000000E+00 -2.500000000E-01 2.430915451E-02
 3.500000000E+00 -2.000000000E-01 2.491544106E-02
 3.500000000E+00 -1.500000000E-01 2.466408024E-02
 3.500000000E+00 -1.000000000E-01 2.391281467E-02
 3.500000000E+00 -5.000000000E-02 2.352762384E-02
 3.500000000E+00 -2.752242878E-12 2.369358027E-02
 3.500000000E+00 5.000000000E-02 2.420164883E-02
 3.500000000E+00 1.000000000E-01 2.441766120E-02
 3.500000000E+00 1.500000000E-01 2.408997953E-02
 3.500000000E+00 2.000000000E-01 2.320345809E-02
 3.500000000E+00 2.500000000E-01 2.179625985E-02
 3.500000000E+00 3.000000000E-01 2.030837519E-02
 3.500000000E+00 3.500000000E-01 1.879394382E-02
 3.500000000E+00 4.000000000E-01 1.732086327E-02
 3.500000000E+00 4.500000000E-01 1.570728956E-02
 3.500000000E+00 5.000000000E-01 1.417066950E-02
 3.500000000E+00 5.500000000E-01 1.295334356E-02
 3.500000000E+00 6.000000000E-01 1.232480078E-02
 3.500000000E+00 6.500000000E-01 1.217074785E-02
 3.500000000E+00 7.000000000E-01 1.150101013E-02
 3.500000000E+00 7.500000000E-01 8.340027897E-03
 3.500000000E+00 8.000000000E-01 1.090445465E-03
 3.500000000E+00 8.500000000E-01 -9.655721100E-03
 3.500000000E+00 9.000000000E-01 -2.412094849E-02
 3.500000000E+00 9.500000000E-01 -3.954277079E-02
 3.450000000E+00 1.000000000E+00 -1.828884111E-02
 3.400000000E+00 1.000000000E+00 -7.606516072E-03
 3.350000000E+00 1.000000000E+00 -3.896261160E-03
 3.300000000E+00 1.000000000E+00 -2.850424859E-03
 3.250000000E+00 1.000000000E+00 -3.096719623E-03
 3.200000000E+00 1.000000000E+00 -3.087071823E-03
 3.150000000E+00 1.000000000E+00 -3.770509295E-03
 3.100000000E+00 1.000000000E+00 -4.539804921E-03
 3.050000000E+00 1.000000000E+00 -5.384811926E-03
 3.000000000E+00 1.000000000E+00 -6.393607435E-03
 2.950000000E+00 1.000000000E+00 -7.399062762E-03
 2.900000000E+00 1.000000000E+00 -8.604684816E-03
 2.850000000E+00 1.000000000E+00 -9.597455565E-03
 2.800000000E+00 1.000000000E+00 -1.094196730E-02
 2.750000000E+00 1.000000000E+00 -1.190312054E-02
 2.700000000E+00 1.000000000E+00 -1.330152634E-02
 2.650000000E+00 1.000000000E+00 -1.437344746E-02
 2.600000000E+00 1.000000000E+00 -1.595441750E-02
 2.550000000E+00 1.000000000E+00 -1.718379893E-02
 2.500000000E+00 1.000000000E+00 -1.895502850E-02
 2.450000000E+00 1.000000000E+00 -2.058946555E-02
 2.400000000E+00 1.000000000E+00 -2.219845741E-02
 2.350000000E+00 1.000000000E+00 -2.380319564E-02
 2.300000000E+00 1.000000000E+00 -2.564077597E-02
 2.250000000E+00 1.000000000E+00 -2.738779652E-02
 2.200000000E+00 1.000000000E+00 -2.957496910E-02
 2.150000000E+00 1.000000000E+00 -3.145753370E-02
 2.100000000E+00 1.000000000E+00 -3.410050499E-02
 2.050000000E+00 1.000000000E+00 -3.622408613E-02
 2.000000000E+00 1.000000000E+00 -3.944551482E-02
 1.950000000E+00 1.000000000E+00 -4.214339179E-02
 1.900000000E+00 1.000000000E+00 -4.509805254E-02
 1.850000000E+00 1.000000000E+00 -4.831520718E-02
 1.800000000E+00 1.000000000E+00 -5.203048748E-02
 1.750000000E+00 1.000000000E+00 -5.637258242E-02
 1.700000000E+00 1.000000000E+00 -5.976385261E-02
 1.650000000E+00 1.000000000E+00 -6.472262471E-02
 1.600000000E+00 1.000000000E+00 -6.997389349E-02
 1.550000000E+00 1.000000000E+00 -7.510740001E-02
 1.500000000E+00 1.000000000E+00 -8.117662682E-02
 1.450000000E+00 1.000000000E+00 -8.718594249E-02
 1.400000000E+00 1.000000000E+00 -9.432839339E-02
 1.350000000E+00 1.000000000E+00 -1.016507298E-01
 1.300000000E+00 1.000000000E+00 -1.094871578E-01
 1.250000000E+00 1.000000000E+00 -1.177174639E-01
 1.200000000E+00 1.000000000E+00 -1.265006136E-01
 1.150000000E+00 1.000000000E+00 -1.346740069E-01
 1.100000000E+00 1.000000000E+00 -1.433620984E-01
 1.050000000E+00 1.000000000E+00 -1.513214476E-01
 1.000000000E+00 1.000000000E+00 -1.587074741E-01
 9.500000000E-01 1.000000000E+00 -1.649683748E-01
 9.000000000E-01 1.000000000E+00 -1.696628231E-01
 8.500000000E-01 1.000000000E+00 -1.723561852E-01
 8.000000000E-01 1.000000000E+00 -1.730122202E-01
 7.500000000E-01 1.000000000E+00 -1.712126802E-01
 7.000000000E-01 1.000000000E+00 -1.658394184E-01
 6.500000000E-01 1.000000000E+00 -1.591710086E-01
 6.000000000E-01 1.000000000E+00 -1.478815290E-01
 5.500000000E-01 1.000000000E+00 -1.363907898E-01
 5.000000000E-01 1.000000000E+00 -1.218185471E-01
 4.500000000E-01 1.000000000E+00 -1.067245335E-01
 4.000000000E-01 1.000000000E+00 -9.013933901E-02
 3.500000000E-01 1.000000000E+00 -7.386490731E-02
 3.000000000E-01 1.000000000E+00 -5.712463368E-02
 2.500000000E-01 1.000000000E+00 -4.107291557E-02
 2.000000000E-01 1.000000000E+00 -2.593501560E-02
 1.500000000E-01 1.000000000E+00 -1.213617437E-02
 1.000000000E-01 1.000000000E+00 6.663202717E-04
 5.000000000E-02 1.000000000E+00 1.181869406E-02
 1.733724275E-12 1.000000000E+00 2.105098469E-02
 -5.000000000E-02 1.000000000E+00 2.840518601E-02
 -1.000000000E-01 1.000000000E+00 3.385621032E-02
 -1.500000000E-01 1.000000000E+00 3.734856398E-02
 -2.000000000E-01 1.000000000E+00 3.917334663E-02
 -2.500000000E-01 1.000000000E+00 3.913884309E-02
 -3.000000000E-01 1.000000000E+00 3.737632086E-02
 -3.500000000E-01 1.000000000E+00 3.411131933E-02
 -4.000000000E-01 1.000000000E+00 2.845355665E-02
 -4.500000000E-01 1.000000000E+00 1.921217422E-02
 9.063860813E-01 -3.542980810E-03 3.728373647E-01
 8.275657098E-01 -8.601978382E-03 3.030007730E-01
 7.482408048E-01 -1.851345705E-02 1.981915874E-01
 6.783578765E-01 -2.734397225E-02 9.560551331E-02
 6.094626624E-01 -3.680369886E-02 -3.010311357E-02
 5.400711362E-01 -4.531285617E-02 -1.933919038E-01
 4.765872377E-01 -5.242919435E-02 -3.794294061E-01
 9.845472035E-01 -4.113524698E-03 3.760913215E-01
 4.215029803E-01 -5.604001474E-02 -5.253197337E-01
 3.627253604E-01 -5.761564439E-02 -5.690793665E-01