TITLE     = "Visualization of the solution"
VARIABLES = "x"
"y"
"Pressure_Coefficient"
ZONE T="Zone"
 STRANDID=0, SOLUTIONTIME=0
 Nodes=11847, Elements=23115, ZONETYPE=FEQuadrilateral
 DATAPACKING=POINT
 DT=(DOUBLE DOUBLE DOUBLE )
 1.000197530E+00 5.349241546E-04 3.003811838E-01
 9.882725477E-01 2.699267119E-03 2.709670139E-01
 9.772003293E-01 4.688217305E-03 1.972331153E-01
 9.651767015E-01 6.931485143E-03 1.147246082E-01
 9.528430700E-01 9.130277671E-03 6.206471451E-02
 9.409788847E-01 1.117664669E-02 3.178037371E-02
 9.307811260E-01 1.298050676E-02 -2.254965011E-02
 9.188232422E-01 1.500825770E-02 -7.507112269E-02
 9.073715210E-01 1.681160927E-02 -9.666585709E-02
 8.949574232E-01 1.870444976E-02 -1.257569209E-01
 8.827774525E-01 2.049758844E-02 -1.629947326E-01
 8.705704808E-01 2.214333601E-02 -1.656938529E-01
 8.573800921E-01 2.387316339E-02 -1.808088654E-01
 8.452545404E-01 2.541190758E-02 -1.971314358E-01
 8.327822685E-01 2.691498585E-02 -1.999658237E-01
 8.189297318E-01 2.855817787E-02 -2.134763317E-01
 8.050513864E-01 3.014970943E-02 -2.228601493E-01
 7.925770283E-01 3.154772520E-02 -2.304148679E-01
 7.796134353E-01 3.299365938E-02 -2.486357316E-01
 7.667649984E-01 3.438497707E-02 -2.612372140E-01
 7.533214688E-01 3.581269830E-02 -2.773457343E-01
 7.386220098E-01 3.732984141E-02 -2.958656046E-01
 7.272951603E-01 3.845501691E-02 -3.041829799E-01
 7.158324718E-01 3.958006576E-02 -3.196956129E-01
 7.036550641E-01 4.073420539E-02 -3.307228954E-01
 6.893858910E-01 4.205545411E-02 -3.487635701E-01
 6.757889986E-01 4.326863959E-02 -3.672301309E-01
 6.656219959E-01 4.415071011E-02 -3.830911858E-01
 6.538100243E-01 4.513245821E-02 -3.974287872E-01
 6.426753402E-01 4.602622986E-02 -4.156310262E-01
 6.304990649E-01 4.695370048E-02 -4.325538094E-01
 6.192156076E-01 4.775774479E-02 -4.385743347E-01
 6.079208255E-01 4.852736369E-02 -4.498192758E-01
 5.950313210E-01 4.937572777E-02 -4.765828354E-01
 5.828754902E-01 5.010061339E-02 -4.887803296E-01
 5.689795017E-01 5.086564273E-02 -5.044145087E-01
 5.560002923E-01 5.149393529E-02 -5.080419638E-01
 5.434009433E-01 5.205928162E-02 -5.279776481E-01
 5.324996114E-01 5.249210075E-02 -5.332176283E-01
 5.204638243E-01 5.289710686E-02 -5.337372458E-01
 5.074533224E-01 5.329414085E-02 -5.489726984E-01
 4.964367151E-01 5.354609713E-02 -5.435401653E-01
 4.832825363E-01 5.381115153E-02 -5.532871949E-01
 4.701451659E-01 5.396691710E-02 -5.378234431E-01
 4.556650221E-01 5.408430472E-02 -5.399174010E-01
 4.415661693E-01 5.410683155E-02 -5.350639153E-01
 4.283489883E-01 5.405338854E-02 -5.245581579E-01
 4.151054025E-01 5.392953753E-02 -5.179331629E-01
 4.030203223E-01 5.376961455E-02 -5.158052293E-01
 3.906980455E-01 5.352693796E-02 -4.996351240E-01
 3.786965013E-01 5.324414372E-02 -4.930043213E-01
 3.681121171E-01 5.295095593E-02 -4.821431310E-01
 3.552160263E-01 5.253266543E-02 -4.706756555E-01
 3.437371850E-01 5.212490261E-02 -4.683928477E-01
 3.315784335E-01 5.162301287E-02 -4.564525081E-01
 3.213268220E-01 5.115640536E-02 -4.450931580E-01
 3.093704581E-01 5.057122931E-02 -4.365931518E-01
 2.964443266E-01 4.986149818E-02 -4.168996685E-01
 2.825927734E-01 4.905490950E-02 -4.087995854E-01
 2.696965039E-01 4.823841900E-02 -3.986093038E-01
 2.576224804E-01 4.741683602E-02 -3.874134163E-01
 2.448065132E-01 4.648496583E-02 -3.754217895E-01
 2.316236198E-01 4.545222223E-02 -3.596749575E-01
 2.194504738E-01 4.445303231E-02 -3.520311096E-01
 2.076885700E-01 4.342253879E-02 -3.395760642E-01
 1.966977268E-01 4.240857065E-02 -3.262553449E-01
 1.843768954E-01 4.122141004E-02 -3.184384089E-01
 1.726398319E-01 4.001858458E-02 -3.047752894E-01
 1.611421555E-01 3.878391534E-02 -2.937016442E-01
 1.494001001E-01 3.745479137E-02 -2.821692196E-01
 1.387535483E-01 3.619337454E-02 -2.744627062E-01
 1.275692433E-01 3.479042649E-02 -2.608172809E-01
 1.160289571E-01 3.326096013E-02 -2.485125625E-01
 1.053969786E-01 3.177537024E-02 -2.370378594E-01
 9.566649050E-02 3.033891879E-02 -2.280193422E-01
 8.447964489E-02 2.857848816E-02 -2.116909216E-01
 7.226149738E-02 2.651516162E-02 -1.981187177E-01
 6.247736141E-02 2.472535707E-02 -1.843582978E-01
 5.268259346E-02 2.278386429E-02 -1.676881239E-01
 4.363938794E-02 2.081567608E-02 -1.508867167E-01
 3.601050004E-02 1.899319701E-02 -1.337389737E-01
 2.952224389E-02 1.727426052E-02 -1.106691692E-01
 2.392936125E-02 1.563256793E-02 -9.288114445E-02
 1.998287812E-02 1.435813028E-02 -6.812816977E-02
 1.629186049E-02 1.304579806E-02 -4.307088654E-02
 1.372638438E-02 1.203736197E-02 -1.091520263E-02
 1.147263777E-02 1.107531134E-02 1.231888249E-02
 9.806308895E-03 1.030445285E-02 4.225953748E-02
 8.259695023E-03 9.527658112E-03 6.981376701E-02
 6.816941313E-03 8.744412102E-03 1.368588316E-01
 4.866845906E-03 7.545328699E-03 2.047327548E-01
 3.172438126E-03 6.326204631E-03 2.957888701E-01
 1.641706447E-03 4.982531071E-03 4.926322163E-01
 1.394116407E-04 3.214668483E-03 7.136364025E-01
 -6.760517135E-04 1.774545643E-03 8.888807946E-01
 -1.068380545E-03 6.447028136E-04 1.063053030E+00
 -1.270574867E-03 -7.566555287E-04 1.177070876E+00
 -1.108157448E-03 -2.444771351E-03 1.177345403E+00
 -4.425735970E-04 -4.334224854E-03 1.058087525E+00
 8.524876903E-04 -6.388680544E-03 8.453965004E-01
 2.820158610E-03 -8.549191058E-03 6.367303002E-01
 4.571000114E-03 -1.006113458E-02 4.887055282E-01
 6.697176490E-03 -1.161909848E-02 4.011325589E-01
 8.218328469E-03 -1.260839589E-02 3.080383637E-01
 1.019053441E-02 -1.377647184E-02 2.592479453E-01
 1.254593674E-02 -1.504572947E-02 1.908216242E-01
 1.576519385E-02 -1.660644263E-02 1.290441841E-01
 1.891695522E-02 -1.799290627E-02 6.548337379E-02
 2.301282063E-02 -1.962405816E-02 1.684702304E-02
 2.852609567E-02 -2.158793621E-02 -2.962578316E-02
 3.436234593E-02 -2.346168086E-02 -7.711951572E-02
 4.211813211E-02 -2.569788508E-02 -1.106408501E-01
 4.976037890E-02 -2.769210748E-02 -1.519411505E-01
 5.877153203E-02 -2.982238308E-02 -1.746626321E-01
 6.746288389E-02 -3.170711920E-02 -1.997049914E-01
 7.805193961E-02 -3.382497281E-02 -2.200196636E-01
 8.811751008E-02 -3.568831086E-02 -2.414766134E-01
 9.862951934E-02 -3.750145063E-02 -2.590113011E-01
 1.096598655E-01 -3.927591443E-02 -2.751372195E-01
 1.212569177E-01 -4.102845863E-02 -2.936817373E-01
 1.326904446E-01 -4.264569283E-02 -3.102719152E-01
 1.431071758E-01 -4.403556138E-02 -3.250792920E-01
 1.541509479E-01 -4.544152692E-02 -3.462606935E-01
 1.659815609E-01 -4.684183374E-02 -3.578881422E-01
 1.777183563E-01 -4.816495255E-02 -3.792456325E-01
 1.895500422E-01 -4.941204935E-02 -3.975341093E-01
 2.000323981E-01 -5.044660345E-02 -4.110831374E-01
 2.111939490E-01 -5.149617791E-02 -4.332860783E-01
 2.234892696E-01 -5.256758630E-02 -4.542943532E-01
 2.361908555E-01 -5.358776823E-02 -4.770879441E-01
 2.486604452E-01 -5.449583754E-02 -4.980906447E-01
 2.615880370E-01 -5.534688011E-02 -5.200500571E-01
 2.727236748E-01 -5.600084364E-02 -5.434377766E-01
 2.856058776E-01 -5.667370930E-02 -5.683596643E-01
 2.984342575E-01 -5.723450705E-02 -5.967886034E-01
 3.114215732E-01 -5.768134817E-02 -6.105613201E-01
 3.230769932E-01 -5.800636113E-02 -6.401986068E-01
 3.352220953E-01 -5.822703987E-02 -6.590371027E-01
 3.458708823E-01 -5.834431946E-02 -6.864762973E-01
 3.570342660E-01 -5.836652592E-02 -7.105349913E-01
 3.679227233E-01 -5.828437582E-02 -7.177474850E-01
 3.784115911E-01 -5.812580138E-02 -7.276072171E-01
 3.894520998E-01 -5.784288421E-02 -7.126898383E-01
 4.019457996E-01 -5.739812180E-02 -6.629778359E-01
 4.138169885E-01 -5.686939508E-02 -6.429199407E-01
 4.268799424E-01 -5.613550544E-02 -6.153018468E-01
 4.396049380E-01 -5.527595803E-02 -5.719654921E-01
 4.525692463E-01 -5.426539108E-02 -5.266791100E-01
 4.650647044E-01 -5.317012966E-02 -4.862557189E-01
 4.775242209E-01 -5.196430534E-02 -4.438028263E-01
 4.889599085E-01 -5.077748746E-02 -4.135948395E-01
 5.012630820E-01 -4.938645288E-02 -3.657969035E-01
 5.148759484E-01 -4.774213210E-02 -3.117517219E-01
 5.290009975E-01 -4.598433524E-02 -2.777293269E-01
 5.424002409E-01 -4.421053454E-02 -2.304820018E-01
 5.565072298E-01 -4.229826108E-02 -1.893476918E-01
 5.690478683E-01 -4.057871550E-02 -1.627801554E-01
 5.825806856E-01 -3.867765144E-02 -1.320740812E-01
 5.945255756E-01 -3.694322705E-02 -9.398561251E-02
 6.065075397E-01 -3.520898893E-02 -6.553427824E-02
 6.199564934E-01 -3.328410909E-02 -4.468415936E-02
 6.341438890E-01 -3.121205419E-02 -1.002765187E-02
 6.479471922E-01 -2.923872136E-02 8.769811192E-03
 6.613227725E-01 -2.730396949E-02 3.763632322E-02
 6.749823093E-01 -2.536753006E-02 5.635358719E-02
 6.876562834E-01 -2.358456701E-02 7.513432263E-02
 7.001263499E-01 -2.183426172E-02 9.590717715E-02
 7.146974206E-01 -1.980599947E-02 1.198221522E-01
 7.276940942E-01 -1.804100722E-02 1.369943652E-01
 7.391552329E-01 -1.650770195E-02 1.534366161E-01
 7.510530353E-01 -1.492268033E-02 1.769898163E-01
 7.639057636E-01 -1.331419963E-02 1.822086611E-01
 7.763804197E-01 -1.173420530E-02 2.067852897E-01
 7.884848118E-01 -1.029175241E-02 2.130779500E-01
 8.005619645E-01 -8.833504282E-03 2.390299869E-01
 8.118278980E-01 -7.548108231E-03 2.530067116E-01
 8.232319355E-01 -6.302145310E-03 2.693371332E-01
 8.359442353E-01 -5.016625393E-03 2.788747865E-01
 8.481254578E-01 -3.846542677E-03 2.937706518E-01
 8.600861430E-01 -2.774248831E-03 3.089967324E-01
 8.724756241E-01 -1.785929548E-03 3.181447512E-01
 8.847441077E-01 -9.055228438E-04 3.302711656E-01
 8.980738521E-01 -1.007488390E-04 3.370717644E-01
 9.081637859E-01 4.011751735E-04 3.417934896E-01
 9.176138639E-01 7.944953977E-04 3.450489428E-01
 9.268887043E-01 1.081443042E-03 3.461540948E-01
 9.355649352E-01 1.280145021E-03 3.454142719E-01
 9.482223988E-01 1.439234009E-03 3.401048886E-01
 9.618877769E-01 1.453134930E-03 3.346309160E-01
 9.770507812E-01 1.271158922E-03 3.253123833E-01
 9.902960062E-01 9.375492227E-04 3.341540600E-01
 -5.000000000E-01 -1.000000000E+00 1.257031733E-02
 3.500000000E+00 -1.000000000E+00 4.205096885E-03
 3.500000000E+00 1.000000000E+00 -1.490936216E-02
 -5.000000000E-01 1.000000000E+00 1.196593356E-02
 9.942350388E-01 1.617095637E-03 3.451935345E-01
 9.827364385E-01 3.693742212E-03 2.301599247E-01
 9.711885154E-01 5.809851224E-03 1.492940960E-01
 9.590098858E-01 8.030881407E-03 8.547242568E-02
 9.469109774E-01 1.015346218E-02 5.022762587E-02
 9.358800054E-01 1.207857672E-02 2.237548859E-03
 9.248021841E-01 1.399438223E-02 -5.280995434E-02
 9.130973816E-01 1.590993349E-02 -8.508278043E-02
 9.011644721E-01 1.775802951E-02 -1.092515349E-01
 8.888674378E-01 1.960101910E-02 -1.493417748E-01
 8.766739666E-01 2.132046223E-02 -1.626347209E-01
 8.639752865E-01 2.300824970E-02 -1.719007236E-01
 8.513173163E-01 2.464253549E-02 -1.913780014E-01
 8.390184045E-01 2.616344672E-02 -1.967701870E-01
 8.258560002E-01 2.773658186E-02 -2.071441988E-01
 8.119905591E-01 2.935394365E-02 -2.183154450E-01
 7.988142073E-01 3.084871732E-02 -2.248906437E-01
 7.860952318E-01 3.227069229E-02 -2.404377053E-01
 7.731892169E-01 3.368931822E-02 -2.546106537E-01
 7.600432336E-01 3.509883769E-02 -2.692315664E-01
 7.459717393E-01 3.657126985E-02 -2.874069531E-01
 7.329585850E-01 3.789242916E-02 -2.986685915E-01
 7.215638161E-01 3.901754133E-02 -3.129301487E-01
 7.097437680E-01 4.015713558E-02 -3.245550506E-01
 6.965204775E-01 4.139482975E-02 -3.399278711E-01
 6.825874448E-01 4.266204685E-02 -3.570039536E-01
 6.707054973E-01 4.370967485E-02 -3.766842639E-01
 6.597160101E-01 4.464158416E-02 -3.892632268E-01
 6.482426822E-01 4.557934403E-02 -4.069631496E-01
 6.365872025E-01 4.648996517E-02 -4.252621116E-01
 6.248573363E-01 4.735572264E-02 -4.356505003E-01
 6.135682166E-01 4.814255424E-02 -4.414221740E-01
 6.014760733E-01 4.895154573E-02 -4.654547584E-01
 5.889534056E-01 4.973817058E-02 -4.821261734E-01
 5.759274960E-01 5.048312806E-02 -4.989620855E-01
 5.624898970E-01 5.117978901E-02 -5.037899144E-01
 5.497006178E-01 5.177660845E-02 -5.175946385E-01
 5.379502773E-01 5.227569118E-02 -5.344276284E-01
 5.264817178E-01 5.269460380E-02 -5.293169241E-01
 5.139585733E-01 5.309562385E-02 -5.456541846E-01
 5.019450188E-01 5.342011899E-02 -5.419630905E-01
 4.898596257E-01 5.367862433E-02 -5.538097261E-01
 4.767138511E-01 5.388903432E-02 -5.425505417E-01
 4.629050940E-01 5.402561091E-02 -5.398677853E-01
 4.486155957E-01 5.409556814E-02 -5.376816739E-01
 4.349575788E-01 5.408011004E-02 -5.305674138E-01
 4.217271954E-01 5.399146304E-02 -5.184274940E-01
 4.090628624E-01 5.384957604E-02 -5.199556210E-01
 3.968591839E-01 5.364827625E-02 -5.066384226E-01
 3.846972734E-01 5.338554084E-02 -4.950379190E-01
 3.734043092E-01 5.309754983E-02 -4.900213817E-01
 3.616640717E-01 5.274181068E-02 -4.732205483E-01
 3.494766057E-01 5.232878402E-02 -4.719431994E-01
 3.376578093E-01 5.187395774E-02 -4.617659361E-01
 3.264526278E-01 5.138970912E-02 -4.499073833E-01
 3.153486401E-01 5.086381733E-02 -4.436472462E-01
 3.029073924E-01 5.021636374E-02 -4.252557646E-01
 2.895185500E-01 4.945820384E-02 -4.128507496E-01
 2.761446387E-01 4.864666425E-02 -4.036106628E-01
 2.636594921E-01 4.782762751E-02 -3.932224324E-01
 2.512144968E-01 4.695090093E-02 -3.829356244E-01
 2.382150665E-01 4.596859403E-02 -3.657278279E-01
 2.255370468E-01 4.495262727E-02 -3.565115753E-01
 2.135695219E-01 4.393778555E-02 -3.457180670E-01
 2.021931484E-01 4.291555472E-02 -3.326794158E-01
 1.905373111E-01 4.181499034E-02 -3.232595171E-01
 1.785083637E-01 4.061999731E-02 -3.109387877E-01
 1.668909937E-01 3.940124996E-02 -2.999517482E-01
 1.552711278E-01 3.811935335E-02 -2.867259531E-01
 1.440768242E-01 3.682408296E-02 -2.793799378E-01
 1.331613958E-01 3.549190052E-02 -2.684762748E-01
 1.217991002E-01 3.402569331E-02 -2.533844847E-01
 1.107129678E-01 3.251816519E-02 -2.448650792E-01
 9.007306770E-02 2.945870347E-02 -2.216021938E-01
 7.837057114E-02 2.754682489E-02 -2.061263641E-01
 7.275741175E-02 -3.276604600E-02 -2.125147747E-01
 8.308472484E-02 -3.475664183E-02 -2.321056241E-01
 9.337351471E-02 -3.659488074E-02 -2.504072609E-01
 1.041446924E-01 -3.838868253E-02 -2.675620328E-01
 1.154583916E-01 -4.015218653E-02 -2.836593923E-01
 1.269736812E-01 -4.183707573E-02 -3.032999596E-01
 1.378988102E-01 -4.334062710E-02 -3.184882567E-01
 1.486290619E-01 -4.473854415E-02 -3.339785904E-01
 1.600662544E-01 -4.614168033E-02 -3.538872064E-01
 1.718499586E-01 -4.750339314E-02 -3.666252758E-01
 1.836341992E-01 -4.878850095E-02 -3.894841437E-01
 1.947912201E-01 -4.992932640E-02 -4.054352680E-01
 2.056131735E-01 -5.097139068E-02 -4.201133258E-01
 2.173416093E-01 -5.203188211E-02 -4.438166487E-01
 2.298400626E-01 -5.307767726E-02 -4.652015193E-01
 2.424256504E-01 -5.404180288E-02 -4.880759294E-01
 2.551242411E-01 -5.492135882E-02 -5.083937758E-01
 2.671558559E-01 -5.567386188E-02 -5.334742076E-01
 2.791647762E-01 -5.633727647E-02 -5.529006941E-01
 2.920200676E-01 -5.695410818E-02 -5.839597083E-01
 3.049279153E-01 -5.745792761E-02 -6.052378654E-01
 3.172492832E-01 -5.784385465E-02 -6.224901054E-01
 3.291495442E-01 -5.811670050E-02 -6.524416332E-01
 3.405464888E-01 -5.828567967E-02 -6.704545402E-01
 3.514525741E-01 -5.835542269E-02 -6.999205795E-01
 3.624784946E-01 -5.832545087E-02 -7.169641613E-01
 3.731671572E-01 -5.820508860E-02 -7.206695515E-01
 3.839318454E-01 -5.798434280E-02 -7.264988979E-01
 3.956989497E-01 -5.762050301E-02 -6.875444194E-01
 4.078813940E-01 -5.713375844E-02 -6.490068965E-01
 4.203484654E-01 -5.650245026E-02 -6.317373012E-01
 4.332424402E-01 -5.570573173E-02 -5.952125619E-01
 4.460870922E-01 -5.477067456E-02 -5.487166327E-01
 4.588169754E-01 -5.371776037E-02 -5.068960999E-01
 4.712944627E-01 -5.256721750E-02 -4.653484683E-01
 4.832420647E-01 -5.137089640E-02 -4.277101843E-01
 4.951114953E-01 -5.008197017E-02 -3.923333106E-01
 5.080695152E-01 -4.856429249E-02 -3.385132883E-01
 5.219384730E-01 -4.686323367E-02 -2.922137988E-01
 5.357006192E-01 -4.509743489E-02 -2.573466530E-01
 5.494537354E-01 -4.325439781E-02 -2.084823188E-01
 5.627775490E-01 -4.143848829E-02 -1.747385561E-01
 5.758142769E-01 -3.962818347E-02 -1.477306097E-01
 5.885531306E-01 -3.781043924E-02 -1.150471614E-01
 6.005165577E-01 -3.607610799E-02 -7.869490151E-02
 6.132320166E-01 -3.424654901E-02 -5.409870639E-02
 6.270501912E-01 -3.224808164E-02 -2.922797464E-02
 6.410455406E-01 -3.022538777E-02 1.534644710E-03
 6.546349823E-01 -2.827134542E-02 2.157108783E-02
 6.681525409E-01 -2.633574978E-02 4.834110577E-02
 6.813192964E-01 -2.447604854E-02 6.598450260E-02
 6.938913167E-01 -2.270941436E-02 8.463443950E-02
 7.074118853E-01 -2.082013059E-02 1.070687396E-01
 7.211957574E-01 -1.892350335E-02 1.296720319E-01
 7.334246635E-01 -1.727435458E-02 1.452955216E-01
 7.451041341E-01 -1.571519114E-02 1.638035389E-01
 7.574793994E-01 -1.411843998E-02 1.818451380E-01
 7.701430917E-01 -1.252420247E-02 1.921599832E-01
 7.824326158E-01 -1.101297885E-02 2.125403943E-01
 7.945233881E-01 -9.562628344E-03 2.232845676E-01
 8.061949313E-01 -8.190806257E-03 2.471772086E-01
 8.175299168E-01 -6.925126771E-03 2.605622261E-01
 8.295880854E-01 -5.659385351E-03 2.744047768E-01
 8.420348465E-01 -4.431584035E-03 2.857586467E-01
 8.541058004E-01 -3.310395754E-03 3.009360915E-01
 8.662808836E-01 -2.280089189E-03 3.141745045E-01
 8.786098659E-01 -1.345726196E-03 3.236762760E-01
 8.914089799E-01 -5.031358414E-04 3.335188384E-01
 9.031188190E-01 1.502131672E-04 3.423874313E-01
 9.418936670E-01 1.359689515E-03 3.419786736E-01
 9.550550878E-01 1.446184469E-03 3.369819860E-01
 9.694692791E-01 1.362146926E-03 3.289994894E-01
 9.836733937E-01 1.104354073E-03 3.174929025E-01
 -5.000000000E-01 9.500000000E-01 1.961570890E-02
 -5.000000000E-01 9.000000000E-01 2.971885659E-02
 -5.000000000E-01 8.500000000E-01 3.741659387E-02
 -5.000000000E-01 8.000000000E-01 4.424683281E-02
 -5.000000000E-01 7.500000000E-01 5.074521079E-02
 -5.000000000E-01 7.000000000E-01 5.716269729E-02
 -5.000000000E-01 6.500000000E-01 6.377365655E-02
 -5.000000000E-01 6.000000000E-01 7.036362903E-02
 -5.000000000E-01 5.500000000E-01 7.735515658E-02
 -5.000000000E-01 5.000000000E-01 8.436573686E-02
 -5.000000000E-01 4.500000000E-01 9.159391858E-02
 -5.000000000E-01 4.000000000E-01 9.885125612E-02
 -5.000000000E-01 3.500000000E-01 1.059730026E-01
 -5.000000000E-01 3.000000000E-01 1.128909429E-01
 -5.000000000E-01 2.500000000E-01 1.192525685E-01
 -5.000000000E-01 2.000000000E-01 1.249804081E-01
 -5.000000000E-01 1.500000000E-01 1.298799591E-01
 -5.000000000E-01 1.000000000E-01 1.335855130E-01
 -5.000000000E-01 5.000000000E-02 1.360061976E-01
 -5.000000000E-01 2.752242878E-12 1.369912960E-01
 -5.000000000E-01 -5.000000000E-02 1.363602657E-01
 -5.000000000E-01 -1.000000000E-01 1.345217466E-01
 -5.000000000E-01 -1.500000000E-01 1.311855400E-01
 -5.000000000E-01 -2.000000000E-01 1.266355653E-01
 -5.000000000E-01 -2.500000000E-01 1.212172674E-01
 -5.000000000E-01 -3.000000000E-01 1.150510094E-01
 -5.000000000E-01 -3.500000000E-01 1.083322824E-01
 -5.000000000E-01 -4.000000000E-01 1.012450901E-01
 -5.000000000E-01 -4.500000000E-01 9.410131153E-02
 -5.000000000E-01 -5.000000000E-01 8.689498061E-02
 -5.000000000E-01 -5.500000000E-01 7.975721942E-02
 -5.000000000E-01 -6.000000000E-01 7.285179181E-02
 -5.000000000E-01 -6.500000000E-01 6.599640324E-02
 -5.000000000E-01 -7.000000000E-01 5.934873365E-02
 -5.000000000E-01 -7.500000000E-01 5.274465707E-02
 -5.000000000E-01 -8.000000000E-01 4.601970906E-02
 -5.000000000E-01 -8.500000000E-01 3.900587564E-02
 -5.000000000E-01 -9.000000000E-01 3.097681444E-02
 -5.000000000E-01 -9.500000000E-01 2.049889459E-02
 -4.500000000E-01 -1.000000000E+00 1.695004116E-02
 -4.000000000E-01 -1.000000000E+00 2.515379626E-02
 -3.500000000E-01 -1.000000000E+00 3.030293826E-02
 -3.000000000E-01 -1.000000000E+00 3.342554445E-02
 -2.500000000E-01 -1.000000000E+00 3.529832882E-02
 -2.000000000E-01 -1.000000000E+00 3.578757493E-02
 -1.500000000E-01 -1.000000000E+00 3.485941408E-02
 -1.000000000E-01 -1.000000000E+00 3.250578891E-02
 -5.000000000E-02 -1.000000000E+00 2.872557815E-02
 -9.424683256E-13 -1.000000000E+00 2.368549970E-02
 5.000000000E-02 -1.000000000E+00 1.743063055E-02
 1.000000000E-01 -1.000000000E+00 1.007378145E-02
 1.500000000E-01 -1.000000000E+00 1.853552154E-03
 2.000000000E-01 -1.000000000E+00 -6.727118557E-03
 2.500000000E-01 -1.000000000E+00 -1.550172642E-02
 3.000000000E-01 -1.000000000E+00 -2.378854353E-02
 3.500000000E-01 -1.000000000E+00 -3.148712542E-02
 4.000000000E-01 -1.000000000E+00 -3.808109205E-02
 4.500000000E-01 -1.000000000E+00 -4.314356644E-02
 5.000000000E-01 -1.000000000E+00 -4.666722753E-02
 5.500000000E-01 -1.000000000E+00 -4.822050401E-02
 6.000000000E-01 -1.000000000E+00 -4.795517009E-02
 6.500000000E-01 -1.000000000E+00 -4.600190218E-02
 7.000000000E-01 -1.000000000E+00 -4.263755634E-02
 7.500000000E-01 -1.000000000E+00 -3.792961214E-02
 8.000000000E-01 -1.000000000E+00 -3.251871168E-02
 8.500000000E-01 -1.000000000E+00 -2.637914095E-02
 9.000000000E-01 -1.000000000E+00 -2.000890482E-02
 9.500000000E-01 -1.000000000E+00 -1.365721029E-02
 1.000000000E+00 -1.000000000E+00 -7.543354455E-03
 1.050000000E+00 -1.000000000E+00 -1.902807148E-03
 1.100000000E+00 -1.000000000E+00 3.209510238E-03
 1.150000000E+00 -1.000000000E+00 7.713595177E-03
 1.200000000E+00 -1.000000000E+00 1.155409221E-02
 1.250000000E+00 -1.000000000E+00 1.481190166E-02
 1.300000000E+00 -1.000000000E+00 1.748383336E-02
 1.350000000E+00 -1.000000000E+00 1.957847749E-02
 1.400000000E+00 -1.000000000E+00 2.116538579E-02
 1.450000000E+00 -1.000000000E+00 2.234204054E-02
 1.500000000E+00 -1.000000000E+00 2.316778113E-02
 1.550000000E+00 -1.000000000E+00 2.365816513E-02
 1.600000000E+00 -1.000000000E+00 2.392980422E-02
 1.650000000E+00 -1.000000000E+00 2.392574310E-02
 1.700000000E+00 -1.000000000E+00 2.380977528E-02
 1.750000000E+00 -1.000000000E+00 2.350979179E-02
 1.800000000E+00 -1.000000000E+00 2.315540442E-02
 1.850000000E+00 -1.000000000E+00 2.270749739E-02
 1.900000000E+00 -1.000000000E+00 2.214376272E-02
 1.950000000E+00 -1.000000000E+00 2.164934632E-02
 2.000000000E+00 -1.000000000E+00 2.098794865E-02
 2.050000000E+00 -1.000000000E+00 2.041305850E-02
 2.100000000E+00 -1.000000000E+00 1.982572551E-02
 2.150000000E+00 -1.000000000E+00 1.919573160E-02
 2.200000000E+00 -1.000000000E+00 1.861841346E-02
 2.250000000E+00 -1.000000000E+00 1.804626463E-02
 2.300000000E+00 -1.000000000E+00 1.748274696E-02
 2.350000000E+00 -1.000000000E+00 1.695872569E-02
 2.400000000E+00 -1.000000000E+00 1.645933594E-02
 2.450000000E+00 -1.000000000E+00 1.600094748E-02
 2.500000000E+00 -1.000000000E+00 1.556737756E-02
 2.550000000E+00 -1.000000000E+00 1.517322313E-02
 2.600000000E+00 -1.000000000E+00 1.478810101E-02
 2.650000000E+00 -1.000000000E+00 1.444381873E-02
 2.700000000E+00 -1.000000000E+00 1.413847827E-02
 2.750000000E+00 -1.000000000E+00 1.385183488E-02
 2.800000000E+00 -1.000000000E+00 1.361984614E-02
 2.850000000E+00 -1.000000000E+00 1.341086429E-02
 2.900000000E+00 -1.000000000E+00 1.322926493E-02
 2.950000000E+00 -1.000000000E+00 1.305166124E-02
 3.000000000E+00 -1.000000000E+00 1.290257536E-02
 3.050000000E+00 -1.000000000E+00 1.277948283E-02
 3.100000000E+00 -1.000000000E+00 1.264505654E-02
 3.150000000E+00 -1.000000000E+00 1.252664956E-02
 3.200000000E+00 -1.000000000E+00 1.232774627E-02
 3.250000000E+00 -1.000000000E+00 1.211354361E-02
 3.300000000E+00 -1.000000000E+00 1.173897682E-02
 3.350000000E+00 -1.000000000E+00 1.124007331E-02
 3.400000000E+00 -1.000000000E+00 1.019098323E-02
 3.450000000E+00 -1.000000000E+00 7.744747585E-03
 3.500000000E+00 -9.500000000E-01 2.767531667E-03
 3.500000000E+00 -9.000000000E-01 4.509514974E-03
 3.500000000E+00 -8.500000000E-01 6.380300211E-03
 3.500000000E+00 -8.000000000E-01 7.758146105E-03
 3.500000000E+00 -7.500000000E-01 8.887522981E-03
 3.500000000E+00 -7.000000000E-01 9.983253738E-03
 3.500000000E+00 -6.500000000E-01 1.102406751E-02
 3.500000000E+00 -6.000000000E-01 1.212160296E-02
 3.500000000E+00 -5.500000000E-01 1.328496694E-02
 3.500000000E+00 -5.000000000E-01 1.447648151E-02
 3.500000000E+00 -4.500000000E-01 1.571430043E-02
 3.500000000E+00 -4.000000000E-01 1.696925374E-02
 3.500000000E+00 -3.500000000E-01 1.821640859E-02
 3.500000000E+00 -3.000000000E-01 1.940067240E-02
 3.500000000E+00 -2.500000000E-01 2.028142170E-02
 3.500000000E+00 -2.000000000E-01 2.098562259E-02
 3.500000000E+00 -1.500000000E-01 2.130557261E-02
 3.500000000E+00 -1.000000000E-01 2.130238656E-02
 3.500000000E+00 -5.000000000E-02 2.124661288E-02
 3.500000000E+00 -2.752242878E-12 2.123479756E-02
 3.500000000E+00 5.000000000E-02 2.131130833E-02
 3.500000000E+00 1.000000000E-01 2.114751096E-02
 3.500000000E+00 1.500000000E-01 2.066513449E-02
 3.500000000E+00 2.000000000E-01 1.982304489E-02
 3.500000000E+00 2.500000000E-01 1.878922155E-02
 3.500000000E+00 3.000000000E-01 1.763669838E-02
 3.500000000E+00 3.500000000E-01 1.640200494E-02
 3.500000000E+00 4.000000000E-01 1.513449020E-02
 3.500000000E+00 4.500000000E-01 1.389052425E-02
 3.500000000E+00 5.000000000E-01 1.263394159E-02
 3.500000000E+00 5.500000000E-01 1.141711839E-02
 3.500000000E+00 6.000000000E-01 1.047499168E-02
 3.500000000E+00 6.500000000E-01 9.942705264E-03
 3.500000000E+00 7.000000000E-01 9.517503318E-03
 3.500000000E+00 7.500000000E-01 8.512482440E-03
 3.500000000E+00 8.000000000E-01 5.785826257E-03
 3.500000000E+00 8.500000000E-01 -6.995570289E-05
 3.500000000E+00 9.000000000E-01 -8.324924705E-03
 3.500000000E+00 9.500000000E-01 -1.697682002E-02
 3.450000000E+00 1.000000000E+00 -5.914324540E-03
 3.400000000E+00 1.000000000E+00 -3.177543707E-04
 3.350000000E+00 1.000000000E+00 1.337430467E-03
 3.300000000E+00 1.000000000E+00 1.441891293E-03
 3.250000000E+00 1.000000000E+00 1.153862376E-03
 3.200000000E+00 1.000000000E+00 6.187666919E-04
 3.150000000E+00 1.000000000E+00 1.496818921E-04
 3.100000000E+00 1.000000000E+00 -4.892971039E-04
 3.050000000E+00 1.000000000E+00 -1.243278866E-03
 3.000000000E+00 1.000000000E+00 -1.821581015E-03
 2.950000000E+00 1.000000000E+00 -2.714522888E-03
 2.900000000E+00 1.000000000E+00 -3.394971350E-03
 2.850000000E+00 1.000000000E+00 -4.207076204E-03
 2.800000000E+00 1.000000000E+00 -5.181103406E-03
 2.750000000E+00 1.000000000E+00 -5.850536549E-03
 2.700000000E+00 1.000000000E+00 -6.640351310E-03
 2.650000000E+00 1.000000000E+00 -7.589602643E-03
 2.600000000E+00 1.000000000E+00 -8.398791835E-03
 2.550000000E+00 1.000000000E+00 -9.396451061E-03
 2.500000000E+00 1.000000000E+00 -1.042386651E-02
 2.450000000E+00 1.000000000E+00 -1.145112285E-02
 2.400000000E+00 1.000000000E+00 -1.254508525E-02
 2.350000000E+00 1.000000000E+00 -1.359452648E-02
 2.300000000E+00 1.000000000E+00 -1.481361065E-02
 2.250000000E+00 1.000000000E+00 -1.597901920E-02
 2.200000000E+00 1.000000000E+00 -1.732856091E-02
 2.150000000E+00 1.000000000E+00 -1.881679214E-02
 2.100000000E+00 1.000000000E+00 -2.023534838E-02
 2.050000000E+00 1.000000000E+00 -2.197141497E-02
 2.000000000E+00 1.000000000E+00 -2.364634622E-02
 1.950000000E+00 1.000000000E+00 -2.543665480E-02
 1.900000000E+00 1.000000000E+00 -2.767121428E-02
 1.850000000E+00 1.000000000E+00 -2.968346974E-02
 1.800000000E+00 1.000000000E+00 -3.216799805E-02
 1.750000000E+00 1.000000000E+00 -3.473104639E-02
 1.700000000E+00 1.000000000E+00 -3.759568397E-02
 1.650000000E+00 1.000000000E+00 -4.061736447E-02
 1.600000000E+00 1.000000000E+00 -4.404166647E-02
 1.550000000E+00 1.000000000E+00 -4.761465819E-02
 1.500000000E+00 1.000000000E+00 -5.179916401E-02
 1.450000000E+00 1.000000000E+00 -5.606817886E-02
 1.400000000E+00 1.000000000E+00 -6.077114882E-02
 1.350000000E+00 1.000000000E+00 -6.565854776E-02
 1.300000000E+00 1.000000000E+00 -7.114903693E-02
 1.250000000E+00 1.000000000E+00 -7.642539017E-02
 1.200000000E+00 1.000000000E+00 -8.265108265E-02
 1.150000000E+00 1.000000000E+00 -8.832358848E-02
 1.100000000E+00 1.000000000E+00 -9.432365679E-02
 1.050000000E+00 1.000000000E+00 -9.974833676E-02
 1.000000000E+00 1.000000000E+00 -1.050242859E-01
 9.500000000E-01 1.000000000E+00 -1.085180751E-01
 9.000000000E-01 1.000000000E+00 -1.121138885E-01
 8.500000000E-01 1.000000000E+00 -1.132906319E-01
 8.000000000E-01 1.000000000E+00 -1.134845496E-01
 7.500000000E-01 1.000000000E+00 -1.124497178E-01
 7.000000000E-01 1.000000000E+00 -1.093067024E-01
 6.500000000E-01 1.000000000E+00 -1.046551990E-01
 6.000000000E-01 1.000000000E+00 -9.842071580E-02
 5.500000000E-01 1.000000000E+00 -9.046754400E-02
 5.000000000E-01 1.000000000E+00 -8.115477798E-02
 4.500000000E-01 1.000000000E+00 -7.077237533E-02
 4.000000000E-01 1.000000000E+00 -5.985775977E-02
 3.500000000E-01 1.000000000E+00 -4.836026344E-02
 3.000000000E-01 1.000000000E+00 -3.685844264E-02
 2.500000000E-01 1.000000000E+00 -2.552389042E-02
 2.000000000E-01 1.000000000E+00 -1.458783773E-02
 1.500000000E-01 1.000000000E+00 -4.252920510E-03
 1.000000000E-01 1.000000000E+00 5.291730071E-03
 5.000000000E-02 1.000000000E+00 1.344418259E-02
 1.733724275E-12 1.000000000E+00 2.037883401E-02
 -5.000000000E-02 1.000000000E+00 2.590888536E-02
 -1.000000000E-01 1.000000000E+00 2.993132499E-02
 -1.500000000E-01 1.000000000E+00 3.252764143E-02
 -2.000000000E-01 1.000000000E+00 3.371404086E-02
 -2.500000000E-01 1.000000000E+00 3.348368706E-02
 -3.000000000E-01 1.000000000E+00 3.188516471E-02
 -3.500000000E-01 1.000000000E+00 2.894773360E-02
 -4.000000000E-01 1.000000000E+00 2.408205095E-02
 -4.500000000E-01 1.000000000E+00 1.618728192E-02
 1.971773179E+00 -9.539414813E-01 2.099011041E-02
 1.975339706E+00 9.568979435E-01 -2.346022926E-02
 9.057298448E-01 -3.940337298E-03 3.365371476E-01
 9.873448439E-01 -4.695713775E-03 3.028862759E-01
 8.330357712E-01 -1.033895676E-02 2.721034573E-01
 7.613788934E-01 -1.920036467E-02 1.797806880E-01
 6.912996212E-01 -2.919529090E-02 7.878655355E-02
 6.245640733E-01 -3.905055206E-02 -3.579901524E-02
 5.543893203E-01 -4.952443623E-02 -1.937464594E-01
 4.912486311E-01 -5.521529827E-02 -3.997739228E-01
 4.366215128E-01 -6.117744479E-02 -5.715587437E-01
 3.811138777E-01 -6.255721152E-02 -7.153803551E-01
 3.260196282E-01 -6.321505928E-02 -6.361483494E-01
 2.640887719E-01 -6.033224359E-02 -5.183899943E-01