TITLE     = "Visualization of the solution"
VARIABLES = "x"
"y"
"Pressure_Coefficient"
ZONE T="Zone"
 STRANDID=0, SOLUTIONTIME=0
 Nodes=11943, Elements=23304, ZONETYPE=FEQuadrilateral
 DATAPACKING=POINT
 DT=(DOUBLE DOUBLE DOUBLE )
 1.000012159E+00 5.120204878E-04 3.337318761E-01
 9.866988063E-01 3.047882346E-03 2.224307580E-01
 9.736817479E-01 5.501340143E-03 1.586125295E-01
 9.580395222E-01 8.485113271E-03 9.643254031E-02
 9.433949590E-01 1.123395283E-02 5.194710535E-02
 9.295524359E-01 1.380526088E-02 1.865533673E-02
 9.179393649E-01 1.599029079E-02 -2.675285931E-02
 9.054894447E-01 1.825621352E-02 -5.375511212E-02
 8.937572837E-01 2.039534040E-02 -9.738330632E-02
 8.814885020E-01 2.253660001E-02 -1.250045744E-01
 8.690156937E-01 2.462881990E-02 -1.395413753E-01
 8.567991257E-01 2.664802223E-02 -1.575984907E-01
 8.446974158E-01 2.865058184E-02 -1.959864470E-01
 8.333814144E-01 3.044179268E-02 -2.133213908E-01
 8.217799067E-01 3.221523762E-02 -2.189409482E-01
 8.094535470E-01 3.409737349E-02 -2.425684820E-01
 7.968779802E-01 3.598395362E-02 -2.713079103E-01
 7.848122716E-01 3.773076460E-02 -2.878050168E-01
 7.724063993E-01 3.947333619E-02 -2.993016465E-01
 7.606166601E-01 4.109931365E-02 -3.128397845E-01
 7.477301955E-01 4.286316410E-02 -3.405245526E-01
 7.342134714E-01 4.465630278E-02 -3.624412368E-01
 7.234797478E-01 4.603805766E-02 -3.791426774E-01
 7.125527263E-01 4.743853956E-02 -4.119056279E-01
 7.008813024E-01 4.884374142E-02 -4.175380507E-01
 6.877241135E-01 5.041074380E-02 -4.457706535E-01
 6.746870875E-01 5.188747868E-02 -4.615904952E-01
 6.643981934E-01 5.302839726E-02 -4.872505658E-01
 6.528873444E-01 5.426214263E-02 -5.193067469E-01
 6.414771676E-01 5.541758239E-02 -5.311622232E-01
 6.295636296E-01 5.655441061E-02 -5.372540846E-01
 6.183133125E-01 5.761093646E-02 -5.719655054E-01
 6.076990962E-01 5.854814500E-02 -6.060057604E-01
 5.955447555E-01 5.956816673E-02 -6.318143257E-01
 5.837434530E-01 6.045552343E-02 -6.285313360E-01
 5.704500079E-01 6.141838059E-02 -6.378352942E-01
 5.577057004E-01 6.221938878E-02 -6.727289876E-01
 5.450766683E-01 6.294708699E-02 -7.663856927E-01
 5.339632630E-01 6.354464591E-02 -7.968172702E-01
 5.221098661E-01 6.409321725E-02 -7.760096880E-01
 5.094313622E-01 6.460131705E-02 -7.724960517E-01
 4.983612299E-01 6.499247253E-02 -7.622774945E-01
 4.850986600E-01 6.536322087E-02 -7.503093217E-01
 4.720266759E-01 6.566266716E-02 -7.378260089E-01
 4.578704536E-01 6.587246805E-02 -7.232352384E-01
 4.443494976E-01 6.600794196E-02 -7.107409214E-01
 4.313776195E-01 6.603182852E-02 -6.870848662E-01
 4.183728993E-01 6.599978358E-02 -6.834781198E-01
 4.058854282E-01 6.589689106E-02 -6.608316676E-01
 3.931477964E-01 6.569682807E-02 -6.406185877E-01
 3.811348677E-01 6.547891349E-02 -6.480517218E-01
 3.695251346E-01 6.518927217E-02 -6.295371445E-01
 3.563121557E-01 6.478514522E-02 -6.122866621E-01
 3.438967466E-01 6.433356553E-02 -5.896785464E-01
 3.310861886E-01 6.379631162E-02 -5.740485745E-01
 3.203044832E-01 6.330496818E-02 -5.725048547E-01
 3.079251945E-01 6.268003583E-02 -5.649861430E-01
 2.948641479E-01 6.192357093E-02 -5.426144266E-01
 2.809410691E-01 6.104268879E-02 -5.311974826E-01
 2.686594129E-01 6.018415466E-02 -5.152060306E-01
 2.567423284E-01 5.928567052E-02 -5.007040159E-01
 2.442103177E-01 5.826563388E-02 -4.843369287E-01
 2.317522019E-01 5.717341229E-02 -4.684862557E-01
 2.197432965E-01 5.605669320E-02 -4.591596604E-01
 2.079945803E-01 5.488171428E-02 -4.439723105E-01
 1.965909004E-01 5.367018655E-02 -4.288754589E-01
 1.843792945E-01 5.228386819E-02 -4.115196352E-01
 1.725342721E-01 5.086008087E-02 -3.988920478E-01
 1.610390097E-01 4.938218370E-02 -3.774643115E-01
 1.492821127E-01 4.777870327E-02 -3.596610531E-01
 1.386046857E-01 4.624983296E-02 -3.473522127E-01
 1.272037625E-01 4.450482130E-02 -3.264059958E-01
 1.158951446E-01 4.267229885E-02 -3.124414659E-01
 1.052843332E-01 4.082568735E-02 -2.839407955E-01
 9.554601461E-02 3.904053941E-02 -2.687849273E-01
 8.456429094E-02 3.688628227E-02 -2.436206026E-01
 7.299315929E-02 3.443616256E-02 -2.196592831E-01
 6.309700757E-02 3.216148913E-02 -1.835549838E-01
 5.330914631E-02 2.972997352E-02 -1.542940591E-01
 4.444741458E-02 2.731962502E-02 -1.232482998E-01
 3.681521118E-02 2.505314350E-02 -8.285345229E-02
 3.008982725E-02 2.284735814E-02 -4.252786853E-02
 2.438824251E-02 2.080343477E-02 -9.353886774E-03
 2.026612125E-02 1.917983405E-02 3.915744435E-02
 1.639189012E-02 1.750624552E-02 7.604419516E-02
 1.348238532E-02 1.613928564E-02 1.167130960E-01
 1.085601188E-02 1.478759199E-02 1.670057770E-01
 8.923792280E-03 1.369870640E-02 2.175603837E-01
 7.178910077E-03 1.263207663E-02 2.564273697E-01
 5.566105712E-03 1.155231893E-02 3.368849132E-01
 3.454300808E-03 9.938040748E-03 4.389395420E-01
 1.682185801E-03 8.308412507E-03 5.514822710E-01
 2.126188483E-04 6.610347424E-03 7.571048010E-01
 -1.164583140E-03 4.314120393E-03 9.744938805E-01
 -1.766942092E-03 2.528758952E-03 1.109259636E+00
 -1.962105511E-03 1.084593823E-03 1.174679987E+00
 -1.881104661E-03 -5.577807315E-04 1.186973726E+00
 -1.431326382E-03 -2.361715073E-03 1.096041555E+00
 -4.466963583E-04 -4.480420146E-03 9.688524928E-01
 1.067254227E-03 -6.672364194E-03 7.742444997E-01
 3.166139824E-03 -8.947550319E-03 6.065968272E-01
 5.050532520E-03 -1.062000263E-02 4.652372357E-01
 7.274549920E-03 -1.232508291E-02 3.749750511E-01
 8.967914619E-03 -1.348704565E-02 2.898630378E-01
 1.107189152E-02 -1.481284387E-02 2.345891272E-01
 1.350517012E-02 -1.621199772E-02 1.656945869E-01
 1.678672805E-02 -1.791388355E-02 1.044401571E-01
 1.985282451E-02 -1.936781220E-02 3.840536160E-02
 2.381745726E-02 -2.108089812E-02 -6.944972189E-03
 2.923814580E-02 -2.320656739E-02 -6.129892939E-02
 3.500049934E-02 -2.522444353E-02 -1.147987068E-01
 4.211010411E-02 -2.747470886E-02 -1.524964814E-01
 4.968547076E-02 -2.964414284E-02 -1.855597142E-01
 5.855909362E-02 -3.194548190E-02 -2.138146456E-01
 6.736943871E-02 -3.403194249E-02 -2.432180897E-01
 7.757771015E-02 -3.624691814E-02 -2.676841827E-01
 8.754803985E-02 -3.823795915E-02 -2.873038575E-01
 9.799239039E-02 -4.016687348E-02 -3.027997865E-01
 1.089739576E-01 -4.205628112E-02 -3.200658545E-01
 1.204095930E-01 -4.389669374E-02 -3.410477274E-01
 1.320538223E-01 -4.563283920E-02 -3.555437434E-01
 1.426815987E-01 -4.712140933E-02 -3.730693058E-01
 1.539184302E-01 -4.859802499E-02 -3.864054943E-01
 1.660602838E-01 -5.009900033E-02 -4.050307900E-01
 1.777983010E-01 -5.145513639E-02 -4.261193841E-01
 1.897016615E-01 -5.273356661E-02 -4.421723971E-01
 2.002894729E-01 -5.379246175E-02 -4.563386668E-01
 2.117529362E-01 -5.487598479E-02 -4.789166926E-01
 2.241002172E-01 -5.593955144E-02 -4.954478816E-01
 2.365262210E-01 -5.693031102E-02 -5.203004193E-01
 2.486977577E-01 -5.780097470E-02 -5.436478818E-01
 2.612213492E-01 -5.859652534E-02 -5.609375176E-01
 2.722868323E-01 -5.921965837E-02 -5.829645197E-01
 2.851502895E-01 -5.984680355E-02 -6.017772204E-01
 2.974191308E-01 -6.033837795E-02 -6.201230772E-01
 3.101757169E-01 -6.075990945E-02 -6.503619312E-01
 3.218352497E-01 -6.102349237E-02 -6.715107100E-01
 3.345100582E-01 -6.122024357E-02 -6.945437723E-01
 3.451309800E-01 -6.127602607E-02 -7.315423176E-01
 3.564664423E-01 -6.122077256E-02 -7.249126364E-01
 3.674815893E-01 -6.108944863E-02 -7.105360971E-01
 3.783905804E-01 -6.086610630E-02 -7.084634087E-01
 3.899165690E-01 -6.049672887E-02 -6.776244523E-01
 4.028035402E-01 -5.997687951E-02 -6.442603755E-01
 4.149620235E-01 -5.934258178E-02 -6.127421404E-01
 4.280182421E-01 -5.853891745E-02 -5.793219562E-01
 4.405882955E-01 -5.762194097E-02 -5.402384213E-01
 4.529198408E-01 -5.660163611E-02 -4.955100499E-01
 4.650367796E-01 -5.550359562E-02 -4.625782669E-01
 4.773865342E-01 -5.425858125E-02 -4.157963839E-01
 4.891456962E-01 -5.300345644E-02 -3.829504391E-01
 5.014833212E-01 -5.157418177E-02 -3.349464946E-01
 5.151553154E-01 -4.991734773E-02 -2.924378814E-01
 5.286403894E-01 -4.820759222E-02 -2.557390707E-01
 5.416368246E-01 -4.648677632E-02 -2.178109205E-01
 5.547915697E-01 -4.467919096E-02 -1.769532907E-01
 5.681049228E-01 -4.282275960E-02 -1.456481945E-01
 5.810447931E-01 -4.095621035E-02 -1.039392417E-01
 5.937455297E-01 -3.916240856E-02 -8.997161875E-02
 6.062978506E-01 -3.731982782E-02 -5.634271003E-02
 6.198191643E-01 -3.532677516E-02 -2.682900475E-02
 6.338310838E-01 -3.324132040E-02 6.107535964E-03
 6.479529738E-01 -3.116928786E-02 2.866668326E-02
 6.610695720E-01 -2.923624776E-02 5.520614395E-02
 6.745268703E-01 -2.728483826E-02 7.386586641E-02
 6.870232821E-01 -2.547827736E-02 9.361859271E-02
 6.993787289E-01 -2.370022796E-02 1.135231202E-01
 7.139875293E-01 -2.160948329E-02 1.369621525E-01
 7.268305421E-01 -1.978946663E-02 1.594517321E-01
 7.385395169E-01 -1.816991717E-02 1.750812534E-01
 7.515366673E-01 -1.639774069E-02 1.933837404E-01
 7.639672160E-01 -1.471811626E-02 2.165486008E-01
 7.772580385E-01 -1.300723199E-02 2.283491155E-01
 7.890667319E-01 -1.150549203E-02 2.469034356E-01
 8.016374111E-01 -9.942760691E-03 2.678213771E-01
 8.127301335E-01 -8.634117432E-03 2.816293528E-01
 8.243062496E-01 -7.329394110E-03 2.942986904E-01
 8.369144797E-01 -5.970754195E-03 3.085216770E-01
 8.491141796E-01 -4.701898433E-03 3.291377135E-01
 8.610358238E-01 -3.556118347E-03 3.453615246E-01
 8.724681735E-01 -2.572564175E-03 3.559907470E-01
 8.840543628E-01 -1.664600451E-03 3.688523764E-01
 8.971492648E-01 -7.924240781E-04 3.765741850E-01
 9.073489904E-01 -2.159325377E-04 3.851441344E-01
 9.179717898E-01 2.764248347E-04 3.893864846E-01
 9.279358387E-01 6.326581934E-04 3.908400024E-01
 9.374737740E-01 8.836184861E-04 3.933067457E-01
 9.496030211E-01 1.088768709E-03 3.940307542E-01
 9.629395008E-01 1.156897983E-03 3.948429108E-01
 9.768481255E-01 1.060954994E-03 4.010573866E-01
 9.897031784E-01 8.264541393E-04 4.245833420E-01
 -5.000000000E-01 -1.000000000E+00 1.544416031E-02
 3.500000000E+00 -1.000000000E+00 6.937595665E-03
 3.500000000E+00 1.000000000E+00 -2.767308154E-02
 -5.000000000E-01 1.000000000E+00 1.430570333E-02
 9.933554828E-01 1.779951417E-03 2.914874846E-01
 9.801902771E-01 4.274611245E-03 1.872743859E-01
 9.658606350E-01 6.993226707E-03 1.247382905E-01
 9.507172406E-01 9.859533049E-03 7.265436112E-02
 9.364736974E-01 1.251960685E-02 3.673330482E-02
 9.237459004E-01 1.489777584E-02 -7.659090934E-03
 9.117144048E-01 1.712325215E-02 -3.796600999E-02
 8.996233642E-01 1.932577696E-02 -7.837232715E-02
 8.876228929E-01 2.146597020E-02 -1.130488653E-01
 8.752520978E-01 2.358270995E-02 -1.316382655E-01
 8.629074097E-01 2.563842107E-02 -1.454273197E-01
 8.507482708E-01 2.764930204E-02 -1.792491141E-01
 8.390394151E-01 2.954618726E-02 -2.068707069E-01
 8.275806606E-01 3.132851515E-02 -2.133997918E-01
 8.156167269E-01 3.315630555E-02 -2.298488460E-01
 8.031657636E-01 3.504066356E-02 -2.585341495E-01
 7.908451259E-01 3.685735911E-02 -2.802999410E-01
 7.786093354E-01 3.860205039E-02 -2.933355950E-01
 7.665115297E-01 4.028632492E-02 -3.038780366E-01
 7.541734278E-01 4.198123887E-02 -3.274206647E-01
 7.409718335E-01 4.375973344E-02 -3.529927720E-01
 7.288466096E-01 4.534718022E-02 -3.662521370E-01
 7.180162370E-01 4.673829861E-02 -4.018977187E-01
 7.067170143E-01 4.814114049E-02 -4.106614370E-01
 6.943027079E-01 4.962724261E-02 -4.341328205E-01
 6.812056005E-01 5.114911124E-02 -4.517100055E-01
 6.695426404E-01 5.245793797E-02 -4.736813798E-01
 6.586427689E-01 5.364526995E-02 -5.046943766E-01
 6.471822560E-01 5.483986251E-02 -5.290034864E-01
 6.355203986E-01 5.598599650E-02 -5.287766751E-01
 6.239384711E-01 5.708267353E-02 -5.557859044E-01
 6.130062044E-01 5.807954073E-02 -5.865976067E-01
 6.016219258E-01 5.905815586E-02 -6.268866922E-01
 5.896441042E-01 6.001184508E-02 -6.252453124E-01
 5.770967305E-01 6.093695201E-02 -6.385373645E-01
 5.640778542E-01 6.181888469E-02 -6.415213671E-01
 5.513911843E-01 6.258323789E-02 -7.212659673E-01
 5.395199656E-01 6.324586645E-02 -7.942373902E-01
 5.280365646E-01 6.381893158E-02 -7.864443757E-01
 5.157706141E-01 6.434726715E-02 -7.709251715E-01
 5.038962960E-01 6.479689479E-02 -7.720795098E-01
 4.917299449E-01 6.517784670E-02 -7.532465991E-01
 4.785626680E-01 6.551294401E-02 -7.483605176E-01
 4.649485648E-01 6.576756760E-02 -7.262550512E-01
 4.511099756E-01 6.594020501E-02 -7.218579204E-01
 4.378635585E-01 6.601988524E-02 -6.946512633E-01
 4.248752594E-01 6.601580605E-02 -6.854211958E-01
 4.121291637E-01 6.594833732E-02 -6.769508253E-01
 3.995166123E-01 6.579685956E-02 -6.430230167E-01
 3.871413320E-01 6.558787078E-02 -6.476884409E-01
 3.753300011E-01 6.533409283E-02 -6.401382169E-01
 3.629186451E-01 6.498720869E-02 -6.205996134E-01
 3.501044512E-01 6.455935538E-02 -6.019280850E-01
 3.374914676E-01 6.406493858E-02 -5.782361075E-01
 3.256953359E-01 6.355063990E-02 -5.731904833E-01
 3.141148388E-01 6.299250200E-02 -5.727232732E-01
 3.013946712E-01 6.230180338E-02 -5.525264255E-01
 2.879026085E-01 6.148312986E-02 -5.368640517E-01
 2.748002410E-01 6.061342172E-02 -5.226363020E-01
 2.627008706E-01 5.973491259E-02 -5.082858816E-01
 2.504763231E-01 5.877565220E-02 -4.932909038E-01
 2.379812598E-01 5.771952309E-02 -4.747693530E-01
 2.257477492E-01 5.661505274E-02 -4.648889158E-01
 2.138689384E-01 5.546920374E-02 -4.508409718E-01
 2.022927403E-01 5.427595042E-02 -4.379704327E-01
 1.904850975E-01 5.297702737E-02 -4.190961507E-01
 1.784567833E-01 5.157197453E-02 -4.060589802E-01
 1.667866409E-01 5.012113228E-02 -3.890401367E-01
 1.551605612E-01 4.858044349E-02 -3.659838223E-01
 1.439433992E-01 4.701426812E-02 -3.560865675E-01
 1.329042241E-01 4.537732713E-02 -3.360144531E-01
 1.215494536E-01 4.358856007E-02 -3.203199441E-01
 1.105897389E-01 4.174899310E-02 -3.001062693E-01
 9.005515277E-02 3.796341084E-02 -2.588997334E-01
 7.877872512E-02 3.566122241E-02 -2.300011485E-01
 6.804508343E-02 3.329882585E-02 -2.063450839E-01
 7.247357443E-02 -3.513943031E-02 -2.601185894E-01
 8.256287500E-02 -3.724243864E-02 -2.783532274E-01
 9.277021512E-02 -3.920241632E-02 -2.955265358E-01
 1.034831740E-01 -4.111157730E-02 -3.110834983E-01
 1.146917753E-01 -4.297648743E-02 -3.302349840E-01
 1.262317076E-01 -4.476476647E-02 -3.496124419E-01
 1.373677105E-01 -4.637712426E-02 -3.650852855E-01
 1.483000144E-01 -4.785971716E-02 -3.794636600E-01
 1.599893570E-01 -4.934851266E-02 -3.945014075E-01
 1.719292924E-01 -5.077706836E-02 -4.163220162E-01
 1.837499812E-01 -5.209435150E-02 -4.345165074E-01
 1.949955672E-01 -5.326301418E-02 -4.506331808E-01
 2.060212046E-01 -5.433422327E-02 -4.648262898E-01
 2.179265767E-01 -5.540776812E-02 -4.886851109E-01
 2.303132191E-01 -5.643493123E-02 -5.057250205E-01
 2.426119894E-01 -5.736564286E-02 -5.335038945E-01
 2.549595535E-01 -5.819875002E-02 -5.521879259E-01
 2.667540908E-01 -5.890809186E-02 -5.725480273E-01
 2.787185609E-01 -5.953323096E-02 -5.908384363E-01
 2.912847102E-01 -6.009259075E-02 -6.123348404E-01
 3.037974238E-01 -6.054914370E-02 -6.312919916E-01
 3.160054833E-01 -6.089170091E-02 -6.664785794E-01
 3.281726539E-01 -6.112186797E-02 -6.769342017E-01
 3.398205191E-01 -6.124813482E-02 -7.172496646E-01
 3.507987112E-01 -6.124839932E-02 -7.335244597E-01
 3.619740158E-01 -6.115511060E-02 -7.158745966E-01
 3.729360849E-01 -6.097777747E-02 -7.083772247E-01
 3.841535747E-01 -6.068141758E-02 -6.986296305E-01
 3.963600546E-01 -6.023680419E-02 -6.562758036E-01
 4.088827819E-01 -5.965973064E-02 -6.319273701E-01
 4.214901328E-01 -5.894074962E-02 -5.939278051E-01
 4.343032688E-01 -5.808042921E-02 -5.625066969E-01
 4.467540681E-01 -5.711178854E-02 -5.177129991E-01
 4.589783102E-01 -5.605261587E-02 -4.781093108E-01
 4.712116569E-01 -5.488108844E-02 -4.415056120E-01
 4.832661152E-01 -5.363101885E-02 -3.972366898E-01
 4.953145087E-01 -5.228881910E-02 -3.618398728E-01
 5.083193183E-01 -5.074576475E-02 -3.116334355E-01
 5.218978524E-01 -4.906246997E-02 -2.742898174E-01
 5.351386070E-01 -4.734718427E-02 -2.373053542E-01
 5.482141972E-01 -4.558298364E-02 -1.978203148E-01
 5.614482462E-01 -4.375097528E-02 -1.602292890E-01
 5.745748580E-01 -4.188948497E-02 -1.271340042E-01
 5.873951614E-01 -4.005930945E-02 -9.280905045E-02
 6.000216901E-01 -3.824111819E-02 -7.656686147E-02
 6.130585074E-01 -3.632330149E-02 -4.087727803E-02
 6.268251240E-01 -3.428404778E-02 -1.140290669E-02
 6.408920288E-01 -3.220530413E-02 1.877178836E-02
 6.545112729E-01 -3.020276781E-02 4.106412727E-02
 6.677982211E-01 -2.826054301E-02 6.559672524E-02
 6.807750762E-01 -2.638155781E-02 8.383807332E-02
 6.932010055E-01 -2.458925266E-02 1.035811385E-01
 7.066831291E-01 -2.265485562E-02 1.244662822E-01
 7.204090357E-01 -2.069947496E-02 1.483536219E-01
 7.326850295E-01 -1.897969190E-02 1.682679330E-01
 7.450380921E-01 -1.728382893E-02 1.835492314E-01
 7.577519417E-01 -1.555792848E-02 2.040367928E-01
 7.706126273E-01 -1.386267412E-02 2.235958656E-01
 7.831623852E-01 -1.225636201E-02 2.370154404E-01
 7.953520715E-01 -1.072412636E-02 2.565532212E-01
 8.071837723E-01 -9.288439061E-03 2.761211088E-01
 8.185181916E-01 -7.981755771E-03 2.878204066E-01
 8.306103647E-01 -6.650074152E-03 3.008596840E-01
 8.430143297E-01 -5.336326314E-03 3.175983163E-01
 8.550750017E-01 -4.129008390E-03 3.372861383E-01
 8.667519987E-01 -3.064341261E-03 3.516324958E-01
 8.782612681E-01 -2.118582313E-03 3.614431609E-01
 8.906018138E-01 -1.228512265E-03 3.726046621E-01
 9.022491276E-01 -5.041783079E-04 3.827653008E-01
 9.126603901E-01 3.024614853E-05 3.875095640E-01
 9.435383976E-01 9.861935978E-04 3.925382414E-01
 9.562712610E-01 1.122833346E-03 3.935974969E-01
 9.698938131E-01 1.108926488E-03 3.954566848E-01
 9.832756519E-01 9.437045665E-04 4.037899884E-01
 9.948576689E-01 6.692373136E-04 4.610226822E-01
 -5.000000000E-01 9.500000000E-01 2.334230719E-02
 -5.000000000E-01 9.000000000E-01 3.529665704E-02
 -5.000000000E-01 8.500000000E-01 4.463437059E-02
 -5.000000000E-01 8.000000000E-01 5.262412739E-02
 -5.000000000E-01 7.500000000E-01 6.060103431E-02
 -5.000000000E-01 7.000000000E-01 6.798484705E-02
 -5.000000000E-01 6.500000000E-01 7.614880043E-02
 -5.000000000E-01 6.000000000E-01 8.408022058E-02
 -5.000000000E-01 5.500000000E-01 9.234778449E-02
 -5.000000000E-01 5.000000000E-01 1.009432458E-01
 -5.000000000E-01 4.500000000E-01 1.095955894E-01
 -5.000000000E-01 4.000000000E-01 1.182994094E-01
 -5.000000000E-01 3.500000000E-01 1.269322100E-01
 -5.000000000E-01 3.000000000E-01 1.352028372E-01
 -5.000000000E-01 2.500000000E-01 1.429523591E-01
 -5.000000000E-01 2.000000000E-01 1.499196909E-01
 -5.000000000E-01 1.500000000E-01 1.556528381E-01
 -5.000000000E-01 1.000000000E-01 1.600383723E-01
 -5.000000000E-01 5.000000000E-02 1.629234262E-01
 -5.000000000E-01 2.752242878E-12 1.640668117E-01
 -5.000000000E-01 -5.000000000E-02 1.633623358E-01
 -5.000000000E-01 -1.000000000E-01 1.608775141E-01
 -5.000000000E-01 -1.500000000E-01 1.569107185E-01
 -5.000000000E-01 -2.000000000E-01 1.516172719E-01
 -5.000000000E-01 -2.500000000E-01 1.451705639E-01
 -5.000000000E-01 -3.000000000E-01 1.377119388E-01
 -5.000000000E-01 -3.500000000E-01 1.298454215E-01
 -5.000000000E-01 -4.000000000E-01 1.214273704E-01
 -5.000000000E-01 -4.500000000E-01 1.130205262E-01
 -5.000000000E-01 -5.000000000E-01 1.044907210E-01
 -5.000000000E-01 -5.500000000E-01 9.608957000E-02
 -5.000000000E-01 -6.000000000E-01 8.787872332E-02
 -5.000000000E-01 -6.500000000E-01 7.996485097E-02
 -5.000000000E-01 -7.000000000E-01 7.185716664E-02
 -5.000000000E-01 -7.500000000E-01 6.402576284E-02
 -5.000000000E-01 -8.000000000E-01 5.594488079E-02
 -5.000000000E-01 -8.500000000E-01 4.743841849E-02
 -5.000000000E-01 -9.000000000E-01 3.788258169E-02
 -5.000000000E-01 -9.500000000E-01 2.503815430E-02
 -4.500000000E-01 -1.000000000E+00 2.072354818E-02
 -4.000000000E-01 -1.000000000E+00 3.078557745E-02
 -3.500000000E-01 -1.000000000E+00 3.713465065E-02
 -3.000000000E-01 -1.000000000E+00 4.105490630E-02
 -2.500000000E-01 -1.000000000E+00 4.358244349E-02
 -2.000000000E-01 -1.000000000E+00 4.440655811E-02
 -1.500000000E-01 -1.000000000E+00 4.376471904E-02
 -1.000000000E-01 -1.000000000E+00 4.154185665E-02
 -5.000000000E-02 -1.000000000E+00 3.779888386E-02
 -9.424683256E-13 -1.000000000E+00 3.262418262E-02
 5.000000000E-02 -1.000000000E+00 2.608507409E-02
 1.000000000E-01 -1.000000000E+00 1.843927088E-02
 1.500000000E-01 -1.000000000E+00 1.003644120E-02
 2.000000000E-01 -1.000000000E+00 1.085553916E-03
 2.500000000E-01 -1.000000000E+00 -7.827307976E-03
 3.000000000E-01 -1.000000000E+00 -1.634637369E-02
 3.500000000E-01 -1.000000000E+00 -2.370077304E-02
 4.000000000E-01 -1.000000000E+00 -3.011558703E-02
 4.500000000E-01 -1.000000000E+00 -3.495782194E-02
 5.000000000E-01 -1.000000000E+00 -3.785445446E-02
 5.500000000E-01 -1.000000000E+00 -3.890937149E-02
 6.000000000E-01 -1.000000000E+00 -3.795984752E-02
 6.500000000E-01 -1.000000000E+00 -3.536763959E-02
 7.000000000E-01 -1.000000000E+00 -3.115265235E-02
 7.500000000E-01 -1.000000000E+00 -2.590039649E-02
 8.000000000E-01 -1.000000000E+00 -1.965301146E-02
 8.500000000E-01 -1.000000000E+00 -1.288956668E-02
 9.000000000E-01 -1.000000000E+00 -5.962992788E-03
 9.500000000E-01 -1.000000000E+00 8.236122219E-04
 1.000000000E+00 -1.000000000E+00 7.262695297E-03
 1.050000000E+00 -1.000000000E+00 1.325297505E-02
 1.100000000E+00 -1.000000000E+00 1.841823381E-02
 1.150000000E+00 -1.000000000E+00 2.294564264E-02
 1.200000000E+00 -1.000000000E+00 2.682574932E-02
 1.250000000E+00 -1.000000000E+00 2.993352183E-02
 1.300000000E+00 -1.000000000E+00 3.240447590E-02
 1.350000000E+00 -1.000000000E+00 3.427912908E-02
 1.400000000E+00 -1.000000000E+00 3.559520441E-02
 1.450000000E+00 -1.000000000E+00 3.643087106E-02
 1.500000000E+00 -1.000000000E+00 3.689525544E-02
 1.550000000E+00 -1.000000000E+00 3.697224786E-02
 1.600000000E+00 -1.000000000E+00 3.684141626E-02
 1.650000000E+00 -1.000000000E+00 3.646765042E-02
 1.700000000E+00 -1.000000000E+00 3.587399443E-02
 1.750000000E+00 -1.000000000E+00 3.511019980E-02
 1.800000000E+00 -1.000000000E+00 3.434834776E-02
 1.850000000E+00 -1.000000000E+00 3.346897762E-02
 1.900000000E+00 -1.000000000E+00 3.242986976E-02
 1.950000000E+00 -1.000000000E+00 3.156015196E-02
 2.000000000E+00 -1.000000000E+00 3.047598422E-02
 2.050000000E+00 -1.000000000E+00 2.951034953E-02
 2.100000000E+00 -1.000000000E+00 2.853733662E-02
 2.150000000E+00 -1.000000000E+00 2.755390953E-02
 2.200000000E+00 -1.000000000E+00 2.662041712E-02
 2.250000000E+00 -1.000000000E+00 2.570357761E-02
 2.300000000E+00 -1.000000000E+00 2.483812222E-02
 2.350000000E+00 -1.000000000E+00 2.397547150E-02
 2.400000000E+00 -1.000000000E+00 2.322532968E-02
 2.450000000E+00 -1.000000000E+00 2.247851085E-02
 2.500000000E+00 -1.000000000E+00 2.179986897E-02
 2.550000000E+00 -1.000000000E+00 2.115908622E-02
 2.600000000E+00 -1.000000000E+00 2.052238254E-02
 2.650000000E+00 -1.000000000E+00 1.997446354E-02
 2.700000000E+00 -1.000000000E+00 1.945057964E-02
 2.750000000E+00 -1.000000000E+00 1.900283077E-02
 2.800000000E+00 -1.000000000E+00 1.856574685E-02
 2.850000000E+00 -1.000000000E+00 1.819302102E-02
 2.900000000E+00 -1.000000000E+00 1.785227649E-02
 2.950000000E+00 -1.000000000E+00 1.758449520E-02
 3.000000000E+00 -1.000000000E+00 1.727604656E-02
 3.050000000E+00 -1.000000000E+00 1.702740875E-02
 3.100000000E+00 -1.000000000E+00 1.674793592E-02
 3.150000000E+00 -1.000000000E+00 1.651309786E-02
 3.200000000E+00 -1.000000000E+00 1.619947162E-02
 3.250000000E+00 -1.000000000E+00 1.584111941E-02
 3.300000000E+00 -1.000000000E+00 1.538743318E-02
 3.350000000E+00 -1.000000000E+00 1.461187561E-02
 3.400000000E+00 -1.000000000E+00 1.341479005E-02
 3.450000000E+00 -1.000000000E+00 1.064118671E-02
 3.500000000E+00 -9.500000000E-01 5.079757607E-03
 3.500000000E+00 -9.000000000E-01 6.462559717E-03
 3.500000000E+00 -8.500000000E-01 8.259278614E-03
 3.500000000E+00 -8.000000000E-01 9.870336698E-03
 3.500000000E+00 -7.500000000E-01 1.117899297E-02
 3.500000000E+00 -7.000000000E-01 1.244627237E-02
 3.500000000E+00 -6.500000000E-01 1.371696494E-02
 3.500000000E+00 -6.000000000E-01 1.505832931E-02
 3.500000000E+00 -5.500000000E-01 1.647613020E-02
 3.500000000E+00 -5.000000000E-01 1.791668051E-02
 3.500000000E+00 -4.500000000E-01 1.941088161E-02
 3.500000000E+00 -4.000000000E-01 2.090430171E-02
 3.500000000E+00 -3.500000000E-01 2.235162555E-02
 3.500000000E+00 -3.000000000E-01 2.376871154E-02
 3.500000000E+00 -2.500000000E-01 2.488229553E-02
 3.500000000E+00 -2.000000000E-01 2.544384206E-02
 3.500000000E+00 -1.500000000E-01 2.555881117E-02
 3.500000000E+00 -1.000000000E-01 2.543760614E-02
 3.500000000E+00 -5.000000000E-02 2.527092241E-02
 3.500000000E+00 -2.752242878E-12 2.530340235E-02
 3.500000000E+00 5.000000000E-02 2.551087541E-02
 3.500000000E+00 1.000000000E-01 2.535125026E-02
 3.500000000E+00 1.500000000E-01 2.469356940E-02
 3.500000000E+00 2.000000000E-01 2.364803863E-02
 3.500000000E+00 2.500000000E-01 2.225364517E-02
 3.500000000E+00 3.000000000E-01 2.075326669E-02
 3.500000000E+00 3.500000000E-01 1.925625069E-02
 3.500000000E+00 4.000000000E-01 1.773847752E-02
 3.500000000E+00 4.500000000E-01 1.619850274E-02
 3.500000000E+00 5.000000000E-01 1.459036734E-02
 3.500000000E+00 5.500000000E-01 1.317259844E-02
 3.500000000E+00 6.000000000E-01 1.233714335E-02
 3.500000000E+00 6.500000000E-01 1.199273515E-02
 3.500000000E+00 7.000000000E-01 1.138638146E-02
 3.500000000E+00 7.500000000E-01 9.030833983E-03
 3.500000000E+00 8.000000000E-01 3.726423457E-03
 3.500000000E+00 8.500000000E-01 -5.184278634E-03
 3.500000000E+00 9.000000000E-01 -1.743087175E-02
 3.500000000E+00 9.500000000E-01 -3.128888844E-02
 3.450000000E+00 1.000000000E+00 -1.369198935E-02
 3.400000000E+00 1.000000000E+00 -4.405268889E-03
 3.350000000E+00 1.000000000E+00 -1.552897152E-03
 3.300000000E+00 1.000000000E+00 -7.978355085E-04
 3.250000000E+00 1.000000000E+00 -1.009959169E-03
 3.200000000E+00 1.000000000E+00 -1.436154999E-03
 3.150000000E+00 1.000000000E+00 -1.834969992E-03
 3.100000000E+00 1.000000000E+00 -2.604496280E-03
 3.050000000E+00 1.000000000E+00 -3.559327535E-03
 3.000000000E+00 1.000000000E+00 -4.479107618E-03
 2.950000000E+00 1.000000000E+00 -5.476298224E-03
 2.900000000E+00 1.000000000E+00 -6.555498968E-03
 2.850000000E+00 1.000000000E+00 -7.435292672E-03
 2.800000000E+00 1.000000000E+00 -8.618346026E-03
 2.750000000E+00 1.000000000E+00 -9.495514434E-03
 2.700000000E+00 1.000000000E+00 -1.078733066E-02
 2.650000000E+00 1.000000000E+00 -1.191167028E-02
 2.600000000E+00 1.000000000E+00 -1.331729082E-02
 2.550000000E+00 1.000000000E+00 -1.454604795E-02
 2.500000000E+00 1.000000000E+00 -1.597009329E-02
 2.450000000E+00 1.000000000E+00 -1.729992679E-02
 2.400000000E+00 1.000000000E+00 -1.862190181E-02
 2.350000000E+00 1.000000000E+00 -2.025371258E-02
 2.300000000E+00 1.000000000E+00 -2.179854528E-02
 2.250000000E+00 1.000000000E+00 -2.366356092E-02
 2.200000000E+00 1.000000000E+00 -2.544624640E-02
 2.150000000E+00 1.000000000E+00 -2.742597557E-02
 2.100000000E+00 1.000000000E+00 -2.978155301E-02
 2.050000000E+00 1.000000000E+00 -3.160194119E-02
 2.000000000E+00 1.000000000E+00 -3.416378012E-02
 1.950000000E+00 1.000000000E+00 -3.662317690E-02
 1.900000000E+00 1.000000000E+00 -3.947329706E-02
 1.850000000E+00 1.000000000E+00 -4.233085159E-02
 1.800000000E+00 1.000000000E+00 -4.568483348E-02
 1.750000000E+00 1.000000000E+00 -4.905737158E-02
 1.700000000E+00 1.000000000E+00 -5.307598042E-02
 1.650000000E+00 1.000000000E+00 -5.727714782E-02
 1.600000000E+00 1.000000000E+00 -6.165225341E-02
 1.550000000E+00 1.000000000E+00 -6.668656455E-02
 1.500000000E+00 1.000000000E+00 -7.180246713E-02
 1.450000000E+00 1.000000000E+00 -7.797926504E-02
 1.400000000E+00 1.000000000E+00 -8.408053607E-02
 1.350000000E+00 1.000000000E+00 -9.101881670E-02
 1.300000000E+00 1.000000000E+00 -9.785590124E-02
 1.250000000E+00 1.000000000E+00 -1.055994868E-01
 1.200000000E+00 1.000000000E+00 -1.133605645E-01
 1.150000000E+00 1.000000000E+00 -1.211384521E-01
 1.100000000E+00 1.000000000E+00 -1.291131423E-01
 1.050000000E+00 1.000000000E+00 -1.360581836E-01
 1.000000000E+00 1.000000000E+00 -1.429291174E-01
 9.500000000E-01 1.000000000E+00 -1.483807299E-01
 9.000000000E-01 1.000000000E+00 -1.523687030E-01
 8.500000000E-01 1.000000000E+00 -1.551011948E-01
 8.000000000E-01 1.000000000E+00 -1.554010480E-01
 7.500000000E-01 1.000000000E+00 -1.537398622E-01
 7.000000000E-01 1.000000000E+00 -1.496534527E-01
 6.500000000E-01 1.000000000E+00 -1.429398629E-01
 6.000000000E-01 1.000000000E+00 -1.341637099E-01
 5.500000000E-01 1.000000000E+00 -1.231509128E-01
 5.000000000E-01 1.000000000E+00 -1.102838813E-01
 4.500000000E-01 1.000000000E+00 -9.652621856E-02
 4.000000000E-01 1.000000000E+00 -8.200220167E-02
 3.500000000E-01 1.000000000E+00 -6.597101654E-02
 3.000000000E-01 1.000000000E+00 -5.144629053E-02
 2.500000000E-01 1.000000000E+00 -3.638965074E-02
 2.000000000E-01 1.000000000E+00 -2.221678143E-02
 1.500000000E-01 1.000000000E+00 -8.967666615E-03
 1.000000000E-01 1.000000000E+00 2.976927288E-03
 5.000000000E-02 1.000000000E+00 1.347448386E-02
 1.733724275E-12 1.000000000E+00 2.228686786E-02
 -5.000000000E-02 1.000000000E+00 2.931813388E-02
 -1.000000000E-01 1.000000000E+00 3.453578718E-02
 -1.500000000E-01 1.000000000E+00 3.793637591E-02
 -2.000000000E-01 1.000000000E+00 3.965134742E-02
 -2.500000000E-01 1.000000000E+00 3.943677855E-02
 -3.000000000E-01 1.000000000E+00 3.776275420E-02
 -3.500000000E-01 1.000000000E+00 3.428487903E-02
 -4.000000000E-01 1.000000000E+00 2.852966521E-02
 -4.500000000E-01 1.000000000E+00 1.932801988E-02
 9.868577578E-01 -4.989695219E-03 4.080638482E-01
 8.999488244E-01 -5.064911946E-03 3.737020616E-01
 8.219574113E-01 -1.226261692E-02 2.877339924E-01
 7.491120795E-01 -2.243333899E-02 1.868648814E-01
 6.784018084E-01 -3.215907945E-02 7.845890215E-02
 6.105932347E-01 -4.162052310E-02 -4.688795268E-02
 5.458568914E-01 -5.121734684E-02 -2.033147585E-01
 4.810071263E-01 -5.902741779E-02 -3.983104754E-01
 4.251189568E-01 -6.322986410E-02 -5.764766711E-01
 3.647843974E-01 -6.586932181E-02 -7.020935448E-01
 3.123145349E-01 -6.647225125E-02 -6.441404836E-01