TITLE     = "Visualization of the solution"
VARIABLES = "x"
"y"
"Pressure_Coefficient"
ZONE T="Zone"
 STRANDID=0, SOLUTIONTIME=0
 Nodes=11965, Elements=23350, ZONETYPE=FEQuadrilateral
 DATAPACKING=POINT
 DT=(DOUBLE DOUBLE DOUBLE )
 1.000139952E+00 5.165892653E-04 3.590720010E-01
 9.879754186E-01 2.994823968E-03 2.537886572E-01
 9.757630825E-01 5.458680913E-03 1.755422262E-01
 9.596724510E-01 8.648137562E-03 1.221986460E-01
 9.453798532E-01 1.153621916E-02 6.124667044E-02
 9.313710928E-01 1.429456286E-02 2.724821837E-02
 9.203308225E-01 1.650795341E-02 -2.528782819E-02
 9.082623720E-01 1.880875975E-02 -4.169402238E-02
 8.972964287E-01 2.095600404E-02 -9.822158835E-02
 8.854497671E-01 2.312712930E-02 -1.121055782E-01
 8.734556437E-01 2.533002198E-02 -1.522298741E-01
 8.612512350E-01 2.746705711E-02 -1.710822448E-01
 8.490131497E-01 2.957420051E-02 -1.996327682E-01
 8.377338052E-01 3.144865111E-02 -2.150731051E-01
 8.261198997E-01 3.333707154E-02 -2.316779598E-01
 8.135002851E-01 3.535645455E-02 -2.556084858E-01
 8.005455732E-01 3.736393899E-02 -2.720378048E-01
 7.881107926E-01 3.926441818E-02 -2.962608921E-01
 7.755313516E-01 4.112425819E-02 -3.097427417E-01
 7.635228634E-01 4.287601262E-02 -3.331151389E-01
 7.504068613E-01 4.475615919E-02 -3.615057283E-01
 7.364446521E-01 4.666106775E-02 -3.725213831E-01
 7.257828712E-01 4.812107235E-02 -4.102285733E-01
 7.145649195E-01 4.958273843E-02 -4.219368555E-01
 7.027237415E-01 5.106636509E-02 -4.302458972E-01
 6.892784834E-01 5.274622887E-02 -4.684986976E-01
 6.761393547E-01 5.429431796E-02 -4.925383500E-01
 6.660264730E-01 5.545480922E-02 -5.111487103E-01
 6.544385552E-01 5.670665950E-02 -5.156002121E-01
 6.430218816E-01 5.792950466E-02 -5.524493707E-01
 6.313995123E-01 5.910626054E-02 -5.788265940E-01
 6.199753881E-01 6.019396707E-02 -5.928215711E-01
 6.093844771E-01 6.115504727E-02 -5.732750593E-01
 5.970066786E-01 6.221942976E-02 -5.544032795E-01
 5.854100585E-01 6.314445287E-02 -6.787935389E-01
 5.719575286E-01 6.413593143E-02 -8.574308394E-01
 5.596259832E-01 6.497725844E-02 -8.564927755E-01
 5.472518206E-01 6.572508812E-02 -8.310850958E-01
 5.361419320E-01 6.632412225E-02 -8.218406235E-01
 5.243800879E-01 6.689941138E-02 -8.176620795E-01
 5.117793083E-01 6.744748354E-02 -8.047022213E-01
 5.004440546E-01 6.785518676E-02 -7.888574787E-01
 4.871805012E-01 6.827837229E-02 -7.738793620E-01
 4.734506607E-01 6.858414412E-02 -7.503326643E-01
 4.591002166E-01 6.883291900E-02 -7.535425335E-01
 4.454292953E-01 6.899181753E-02 -7.341288726E-01
 4.322700500E-01 6.902350485E-02 -7.177874659E-01
 4.196358323E-01 6.902971864E-02 -7.236142885E-01
 4.072852433E-01 6.893491000E-02 -6.941338793E-01
 3.947482705E-01 6.876894087E-02 -6.702182227E-01
 3.824124038E-01 6.853354722E-02 -6.553593769E-01
 3.710657954E-01 6.826878339E-02 -6.436596284E-01
 3.575992584E-01 6.787439436E-02 -6.353214126E-01
 3.450022936E-01 6.744293869E-02 -6.214940494E-01
 3.318585753E-01 6.689722091E-02 -6.034436270E-01
 3.210179210E-01 6.640427560E-02 -5.974282811E-01
 3.082462549E-01 6.575020403E-02 -5.854930308E-01
 2.949580848E-01 6.497968733E-02 -5.636238986E-01
 2.808948457E-01 6.407373399E-02 -5.479849451E-01
 2.683648765E-01 6.319499761E-02 -5.393059941E-01
 2.565091550E-01 6.228746474E-02 -5.238401210E-01
 2.442504466E-01 6.126964837E-02 -5.072476758E-01
 2.319297791E-01 6.017335504E-02 -4.960036567E-01
 2.195432037E-01 5.898319185E-02 -4.810271804E-01
 2.079087049E-01 5.777260289E-02 -4.592034397E-01
 1.963735968E-01 5.650730431E-02 -4.439465572E-01
 1.840750873E-01 5.506633222E-02 -4.285429540E-01
 1.723497063E-01 5.360385403E-02 -4.157654985E-01
 1.611674726E-01 5.210947990E-02 -3.926311875E-01
 1.492701620E-01 5.041955039E-02 -3.746708421E-01
 1.388297230E-01 4.885467142E-02 -3.591969508E-01
 1.273543239E-01 4.700990021E-02 -3.332922602E-01
 1.161245480E-01 4.509758949E-02 -3.163235643E-01
 1.055626199E-01 4.317143187E-02 -2.888437494E-01
 9.602382779E-02 4.132459313E-02 -2.696497747E-01
 8.508279920E-02 3.905569017E-02 -2.351183077E-01
 7.345219702E-02 3.645599261E-02 -2.072361281E-01
 6.360165030E-02 3.407176211E-02 -1.686728370E-01
 5.384179950E-02 3.150247410E-02 -1.309587916E-01
 4.514896497E-02 2.900856920E-02 -9.196281735E-02
 3.765377402E-02 2.665750496E-02 -4.546171825E-02
 3.098521940E-02 2.436715551E-02 1.748751795E-03
 2.532211505E-02 2.225035056E-02 4.175909035E-02
 2.112529613E-02 2.053278498E-02 9.095201415E-02
 1.716926508E-02 1.876549423E-02 1.461653058E-01
 1.417714544E-02 1.731077768E-02 1.961650158E-01
 1.142263226E-02 1.585820131E-02 2.407949131E-01
 9.389946237E-03 1.468738355E-02 2.926317478E-01
 7.640379015E-03 1.359933615E-02 3.310487129E-01
 6.035455503E-03 1.250993647E-02 4.024732819E-01
 3.934962209E-03 1.090787817E-02 5.068085220E-01
 2.076855395E-03 9.228608571E-03 6.099663629E-01
 4.828477686E-04 7.442100439E-03 8.024876944E-01
 -1.046012621E-03 4.977058154E-03 1.019382747E+00
 -1.678559114E-03 3.145599738E-03 1.144639143E+00
 -1.882157288E-03 1.695113606E-03 1.194824003E+00
 -1.795448712E-03 6.027065683E-05 1.182768839E+00
 -1.365121338E-03 -1.633905689E-03 1.077167602E+00
 -4.264642484E-04 -3.605725244E-03 9.022538021E-01
 1.021869830E-03 -5.646562204E-03 7.108273913E-01
 3.058786970E-03 -7.784811314E-03 5.417176621E-01
 4.931632429E-03 -9.381581098E-03 3.974370475E-01
 7.016411051E-03 -1.091808453E-02 3.121714536E-01
 8.692642674E-03 -1.202358864E-02 2.309007460E-01
 1.077471394E-02 -1.327347290E-02 1.749010445E-01
 1.317623910E-02 -1.458903868E-02 1.203542302E-01
 1.649455912E-02 -1.623279229E-02 6.137532190E-02
 1.948472671E-02 -1.757374592E-02 5.046587422E-03
 2.330952697E-02 -1.915728301E-02 -3.417072555E-02
 2.873623930E-02 -2.117163129E-02 -7.531585061E-02
 3.463005275E-02 -2.314756997E-02 -1.207548342E-01
 4.182728752E-02 -2.531095222E-02 -1.538020412E-01
 4.946855083E-02 -2.739520185E-02 -1.839397227E-01
 5.851582438E-02 -2.964149229E-02 -2.092604066E-01
 6.739653647E-02 -3.164327517E-02 -2.332650848E-01
 7.774820179E-02 -3.380170837E-02 -2.548928889E-01
 8.754768968E-02 -3.567441925E-02 -2.662297478E-01
 9.779143333E-02 -3.750751168E-02 -2.853407159E-01
 1.087207571E-01 -3.933479264E-02 -3.009439460E-01
 1.201919690E-01 -4.112612829E-02 -3.176277074E-01
 1.318390667E-01 -4.282548279E-02 -3.334738245E-01
 1.425130367E-01 -4.428860918E-02 -3.491139524E-01
 1.535119414E-01 -4.571197182E-02 -3.639785832E-01
 1.654589176E-01 -4.716637731E-02 -3.811183692E-01
 1.770091057E-01 -4.848332703E-02 -3.982382404E-01
 1.888758838E-01 -4.975522682E-02 -4.174616285E-01
 1.994913816E-01 -5.081199482E-02 -4.319138301E-01
 2.105021477E-01 -5.184674263E-02 -4.498517530E-01
 2.226012796E-01 -5.289887637E-02 -4.685266950E-01
 2.351427674E-01 -5.389858410E-02 -4.879772828E-01
 2.473836094E-01 -5.478532240E-02 -5.075735316E-01
 2.599694729E-01 -5.561176315E-02 -5.335247359E-01
 2.710635364E-01 -5.624443665E-02 -5.498393397E-01
 2.837425768E-01 -5.688892305E-02 -5.683197415E-01
 2.961872220E-01 -5.741563439E-02 -5.950208025E-01
 3.090665936E-01 -5.785001442E-02 -6.124462051E-01
 3.208832145E-01 -5.814785883E-02 -6.327360972E-01
 3.334480822E-01 -5.835227296E-02 -6.437557167E-01
 3.444516361E-01 -5.844605342E-02 -6.683932349E-01
 3.558293581E-01 -5.842388421E-02 -6.696615108E-01
 3.665825725E-01 -5.832669511E-02 -6.741700771E-01
 3.771538734E-01 -5.812072754E-02 -6.596082495E-01
 3.886685967E-01 -5.780443922E-02 -6.326701039E-01
 4.017358422E-01 -5.732110143E-02 -6.165528738E-01
 4.143228829E-01 -5.671209469E-02 -5.920326137E-01
 4.270826876E-01 -5.596103147E-02 -5.566633800E-01
 4.395475686E-01 -5.508653075E-02 -5.102431505E-01
 4.516511261E-01 -5.413113162E-02 -4.692672410E-01
 4.639018774E-01 -5.307746306E-02 -4.392444957E-01
 4.765943885E-01 -5.186618492E-02 -3.998068911E-01
 4.885270298E-01 -5.063934997E-02 -3.619459698E-01
 5.012509823E-01 -4.923839495E-02 -3.213066993E-01
 5.151625872E-01 -4.762512818E-02 -2.844534750E-01
 5.287325382E-01 -4.592882469E-02 -2.313829891E-01
 5.423575640E-01 -4.420820251E-02 -2.021649079E-01
 5.551620126E-01 -4.251330346E-02 -1.629643762E-01
 5.685039759E-01 -4.073584825E-02 -1.371356083E-01
 5.814869404E-01 -3.894199058E-02 -1.016118084E-01
 5.936939120E-01 -3.723368049E-02 -7.054818157E-02
 6.063001156E-01 -3.546896949E-02 -4.542880138E-02
 6.205609441E-01 -3.345795721E-02 -1.678265770E-02
 6.350783706E-01 -3.140156344E-02 1.236332706E-02
 6.499620080E-01 -2.931668423E-02 3.305437175E-02
 6.628755927E-01 -2.747975476E-02 6.134423836E-02
 6.765184402E-01 -2.558238246E-02 7.671418958E-02
 6.888404489E-01 -2.384516969E-02 1.019658307E-01
 7.012310624E-01 -2.211569250E-02 1.241187771E-01
 7.161602974E-01 -2.009402588E-02 1.382985370E-01
 7.288894057E-01 -1.834133454E-02 1.670075130E-01
 7.407199144E-01 -1.677568443E-02 1.800969024E-01
 7.536507249E-01 -1.508666202E-02 1.979609566E-01
 7.660462856E-01 -1.350349654E-02 2.133003029E-01
 7.790085673E-01 -1.185682137E-02 2.372368574E-01
 7.908859253E-01 -1.041692402E-02 2.510059745E-01
 8.037412167E-01 -8.904608898E-03 2.675604538E-01
 8.147480488E-01 -7.641150150E-03 2.870109374E-01
 8.264269233E-01 -6.392688025E-03 2.959147172E-01
 8.389873505E-01 -5.094235297E-03 3.117295355E-01
 8.511067033E-01 -3.887451952E-03 3.337351658E-01
 8.633177876E-01 -2.789651277E-03 3.467419812E-01
 8.748944998E-01 -1.848466345E-03 3.588214348E-01
 8.867096305E-01 -9.934568079E-04 3.693351585E-01
 8.993529081E-01 -1.945316617E-04 3.806458927E-01
 9.093110561E-01 3.257890930E-04 3.891167128E-01
 9.196088910E-01 7.504114183E-04 3.922595881E-01
 9.290176034E-01 1.047221594E-03 3.937648836E-01
 9.374815822E-01 1.245943829E-03 3.978591079E-01
 9.490231872E-01 1.399388304E-03 3.974781304E-01
 9.618352056E-01 1.423813286E-03 3.989908067E-01
 9.763306975E-01 1.266050967E-03 4.043928591E-01
 9.888667464E-01 9.593346622E-04 4.162046934E-01
 -5.000000000E-01 -1.000000000E+00 1.553107400E-02
 3.500000000E+00 -1.000000000E+00 7.619807114E-03
 3.500000000E+00 1.000000000E+00 -3.130454092E-02
 -5.000000000E-01 1.000000000E+00 1.443570452E-02
 9.940576851E-01 1.755706617E-03 3.380991285E-01
 9.818692505E-01 4.226752440E-03 2.099111480E-01
 9.677177668E-01 7.053409237E-03 1.480911116E-01
 9.525261521E-01 1.009217836E-02 8.778202513E-02
 9.383754730E-01 1.291539101E-02 4.623983034E-02
 9.258509576E-01 1.540125813E-02 -5.316615599E-03
 9.142965972E-01 1.765835658E-02 -2.768530174E-02
 9.027794003E-01 1.988238189E-02 -7.720642523E-02
 8.913730979E-01 2.204156667E-02 -1.009876242E-01
 8.794527054E-01 2.422857564E-02 -1.355790485E-01
 8.673534393E-01 2.639853954E-02 -1.600844531E-01
 8.551321924E-01 2.852062881E-02 -1.866447073E-01
 8.433734775E-01 3.051142581E-02 -2.074058153E-01
 8.319268525E-01 3.239286132E-02 -2.219591324E-01
 8.198100924E-01 3.434676304E-02 -2.453498840E-01
 8.070229292E-01 3.636019677E-02 -2.620638781E-01
 7.943281829E-01 3.831417859E-02 -2.860693807E-01
 7.818210721E-01 4.019433819E-02 -3.020255689E-01
 7.695271075E-01 4.200013541E-02 -3.194562909E-01
 7.569648623E-01 4.381608590E-02 -3.520798429E-01
 7.434257567E-01 4.570861347E-02 -3.614878157E-01
 7.311137617E-01 4.739107005E-02 -3.947347060E-01
 7.201738954E-01 4.885190539E-02 -4.192388034E-01
 7.086443305E-01 5.032455176E-02 -4.200171968E-01
 6.960011125E-01 5.190629698E-02 -4.528608864E-01
 6.827089190E-01 5.352027342E-02 -4.773932596E-01
 6.710829139E-01 5.487456359E-02 -5.082658560E-01
 6.602325141E-01 5.608073436E-02 -5.074130673E-01
 6.487302184E-01 5.731808208E-02 -5.350565767E-01
 6.372106969E-01 5.851788260E-02 -5.672453968E-01
 6.256874502E-01 5.965011381E-02 -5.872687344E-01
 6.146799326E-01 6.067450717E-02 -5.884811334E-01
 6.031955779E-01 6.168723851E-02 -5.570353436E-01
 5.912083685E-01 6.268194132E-02 -5.898240568E-01
 5.786837935E-01 6.364019215E-02 -7.894299176E-01
 5.657917559E-01 6.455659494E-02 -8.708106395E-01
 5.534389019E-01 6.535117328E-02 -8.404128435E-01
 5.416968763E-01 6.602460518E-02 -8.245256336E-01
 5.302610099E-01 6.661176682E-02 -8.204284123E-01
 5.180796981E-01 6.717344746E-02 -8.138845486E-01
 5.061116815E-01 6.765133515E-02 -7.926520656E-01
 4.938122779E-01 6.806677952E-02 -7.879421916E-01
 4.803155810E-01 6.843125820E-02 -7.563802908E-01
 4.662754387E-01 6.870853156E-02 -7.518609716E-01
 4.522647560E-01 6.891236827E-02 -7.499239645E-01
 4.388496727E-01 6.900766119E-02 -7.158483121E-01
 4.259529412E-01 6.902661175E-02 -7.279190601E-01
 4.134605378E-01 6.898231432E-02 -7.084977011E-01
 4.010167569E-01 6.885192543E-02 -6.819549499E-01
 3.885803372E-01 6.865124404E-02 -6.598938132E-01
 3.767390996E-01 6.840116531E-02 -6.516872867E-01
 3.643325269E-01 6.807158887E-02 -6.373440376E-01
 3.513007760E-01 6.765866652E-02 -6.324841440E-01
 3.384304345E-01 6.717007980E-02 -6.080349753E-01
 3.264382482E-01 6.665074825E-02 -6.019070613E-01
 3.146320879E-01 6.607723981E-02 -5.932224311E-01
 3.016021699E-01 6.536494568E-02 -5.752764852E-01
 2.879264653E-01 6.452671066E-02 -5.536352443E-01
 2.746298611E-01 6.363436580E-02 -5.438565729E-01
 2.624370158E-01 6.274123117E-02 -5.325593999E-01
 2.503798008E-01 6.177855656E-02 -5.146605300E-01
 2.380901128E-01 6.072150171E-02 -5.019383142E-01
 2.257364914E-01 5.957827345E-02 -4.900031097E-01
 2.137259543E-01 5.837789737E-02 -4.682107214E-01
 2.021411508E-01 5.713995360E-02 -4.527953906E-01
 1.902243420E-01 5.578681827E-02 -4.353434702E-01
 1.782123968E-01 5.433509313E-02 -4.229453921E-01
 1.667585894E-01 5.285666697E-02 -4.053261451E-01
 1.552188173E-01 5.126451515E-02 -3.809361317E-01
 1.440499425E-01 4.963711090E-02 -3.705005174E-01
 1.330920234E-01 4.793228582E-02 -3.451015320E-01
 1.217394359E-01 4.605374485E-02 -3.249573789E-01
 1.108435839E-01 4.413451068E-02 -3.053721234E-01
 9.055331349E-02 4.019014165E-02 -2.550529571E-01
 7.926749811E-02 3.775584139E-02 -2.180230598E-01
 6.852692366E-02 3.526387736E-02 -1.962435692E-01
 7.257236913E-02 -3.272249177E-02 -2.462249318E-01
 9.266956151E-02 -3.659096546E-02 -2.777969062E-01
 1.032560952E-01 -3.842115216E-02 -2.925537481E-01
 1.144563630E-01 -4.023046046E-02 -3.093846755E-01
 1.260155179E-01 -4.197580554E-02 -3.260582829E-01
 1.371760517E-01 -4.355704598E-02 -3.424640807E-01
 1.480124891E-01 -4.500029050E-02 -3.558418627E-01
 1.594854295E-01 -4.643917456E-02 -3.719501602E-01
 1.712340117E-01 -4.782485217E-02 -3.903635020E-01
 1.829424948E-01 -4.911927693E-02 -4.071192924E-01
 1.941836327E-01 -5.028361082E-02 -4.268358622E-01
 2.049967647E-01 -5.132936873E-02 -4.391518246E-01
 2.165517136E-01 -5.237280950E-02 -4.589319755E-01
 2.288720235E-01 -5.339873023E-02 -4.779670348E-01
 2.412631884E-01 -5.434195325E-02 -4.979886569E-01
 2.536765411E-01 -5.519854277E-02 -5.190396417E-01
 2.655165046E-01 -5.592809990E-02 -5.454060298E-01
 2.774030566E-01 -5.656667985E-02 -5.550837081E-01
 2.899648994E-01 -5.715227872E-02 -5.830317232E-01
 3.026269078E-01 -5.763282441E-02 -6.037895362E-01
 3.149749041E-01 -5.799893662E-02 -6.234897566E-01
 3.271656483E-01 -5.825006589E-02 -6.382501498E-01
 3.389498591E-01 -5.839916319E-02 -6.550377649E-01
 3.501404971E-01 -5.843496881E-02 -6.732021466E-01
 3.612059653E-01 -5.837528966E-02 -6.694254207E-01
 3.718682230E-01 -5.822371133E-02 -6.724635481E-01
 3.829112351E-01 -5.796258338E-02 -6.435584240E-01
 3.952022195E-01 -5.756277032E-02 -6.228397343E-01
 4.080293626E-01 -5.701659806E-02 -6.072837361E-01
 4.207027853E-01 -5.633656308E-02 -5.743501527E-01
 4.333151281E-01 -5.552378111E-02 -5.357491408E-01
 4.455993474E-01 -5.460883118E-02 -4.888073751E-01
 4.577765018E-01 -5.360429734E-02 -4.530004999E-01
 4.702481329E-01 -5.247182399E-02 -4.213386804E-01
 4.825607091E-01 -5.125276744E-02 -3.805688617E-01
 4.948890060E-01 -4.993887246E-02 -3.421123127E-01
 5.082067847E-01 -4.843176156E-02 -3.018998465E-01
 5.219475627E-01 -4.677697644E-02 -2.613188703E-01
 5.355450511E-01 -4.506851360E-02 -2.131128313E-01
 5.487597883E-01 -4.336075298E-02 -1.854464092E-01
 5.618329942E-01 -4.162457585E-02 -1.474102992E-01
 5.749954581E-01 -3.983891942E-02 -1.215832959E-01
 5.875904262E-01 -3.808783554E-02 -8.577656981E-02
 5.999970138E-01 -3.635132499E-02 -5.732793028E-02
 6.134305298E-01 -3.446346335E-02 -3.173241729E-02
 6.278196573E-01 -3.242976032E-02 -2.515736459E-03
 6.425201893E-01 -3.035912383E-02 2.388053815E-02
 6.564188004E-01 -2.839821950E-02 4.564101021E-02
 6.696970165E-01 -2.653106861E-02 7.079853124E-02
 6.826794446E-01 -2.471377607E-02 8.775782722E-02
 6.950357556E-01 -2.298043109E-02 1.129970026E-01
 7.086956799E-01 -2.110485919E-02 1.320733627E-01
 7.225248516E-01 -1.921768021E-02 1.505031311E-01
 7.348046601E-01 -1.755850948E-02 1.756008758E-01
 7.471853197E-01 -1.593117323E-02 1.882936142E-01
 7.598485053E-01 -1.429507928E-02 2.060024605E-01
 7.725274265E-01 -1.268015895E-02 2.238531942E-01
 7.849472463E-01 -1.113687269E-02 2.454947471E-01
 7.973135710E-01 -9.660766460E-03 2.586114932E-01
 8.092446327E-01 -8.272879524E-03 2.770364759E-01
 8.205874860E-01 -7.016919088E-03 2.926789314E-01
 8.327071369E-01 -5.743461661E-03 3.027365355E-01
 8.450470269E-01 -4.490843625E-03 3.214887220E-01
 8.572122455E-01 -3.338551614E-03 3.408001096E-01
 8.691061437E-01 -2.319058811E-03 3.530886206E-01
 8.808020651E-01 -1.420961577E-03 3.638513178E-01
 8.930312693E-01 -5.939942348E-04 3.747309521E-01
 9.144599736E-01 5.381002557E-04 3.921927936E-01
 9.432523847E-01 1.322666067E-03 3.969073601E-01
 9.554291964E-01 1.411600795E-03 3.969262326E-01
 9.690829515E-01 1.344932127E-03 3.980664008E-01
 9.825987220E-01 1.112692815E-03 4.051928011E-01
 9.945033491E-01 7.379619638E-04 4.670791533E-01
 -5.000000000E-01 9.500000000E-01 2.375319761E-02
 -5.000000000E-01 9.000000000E-01 3.595499424E-02
 -5.000000000E-01 8.500000000E-01 4.510053000E-02
 -5.000000000E-01 8.000000000E-01 5.349994015E-02
 -5.000000000E-01 7.500000000E-01 6.125217985E-02
 -5.000000000E-01 7.000000000E-01 6.907547797E-02
 -5.000000000E-01 6.500000000E-01 7.710149475E-02
 -5.000000000E-01 6.000000000E-01 8.523238457E-02
 -5.000000000E-01 5.500000000E-01 9.359189093E-02
 -5.000000000E-01 5.000000000E-01 1.022441751E-01
 -5.000000000E-01 4.500000000E-01 1.110099819E-01
 -5.000000000E-01 4.000000000E-01 1.197627008E-01
 -5.000000000E-01 3.500000000E-01 1.283450104E-01
 -5.000000000E-01 3.000000000E-01 1.367755996E-01
 -5.000000000E-01 2.500000000E-01 1.444802310E-01
 -5.000000000E-01 2.000000000E-01 1.512658306E-01
 -5.000000000E-01 1.500000000E-01 1.570503082E-01
 -5.000000000E-01 1.000000000E-01 1.613914935E-01
 -5.000000000E-01 5.000000000E-02 1.640779819E-01
 -5.000000000E-01 2.752242878E-12 1.651798392E-01
 -5.000000000E-01 -5.000000000E-02 1.643542587E-01
 -5.000000000E-01 -1.000000000E-01 1.619359928E-01
 -5.000000000E-01 -1.500000000E-01 1.579243544E-01
 -5.000000000E-01 -2.000000000E-01 1.524663985E-01
 -5.000000000E-01 -2.500000000E-01 1.460144934E-01
 -5.000000000E-01 -3.000000000E-01 1.385584394E-01
 -5.000000000E-01 -3.500000000E-01 1.306699563E-01
 -5.000000000E-01 -4.000000000E-01 1.222842622E-01
 -5.000000000E-01 -4.500000000E-01 1.139289583E-01
 -5.000000000E-01 -5.000000000E-01 1.054539047E-01
 -5.000000000E-01 -5.500000000E-01 9.710608222E-02
 -5.000000000E-01 -6.000000000E-01 8.888552544E-02
 -5.000000000E-01 -6.500000000E-01 8.080715102E-02
 -5.000000000E-01 -7.000000000E-01 7.285068802E-02
 -5.000000000E-01 -7.500000000E-01 6.496291782E-02
 -5.000000000E-01 -8.000000000E-01 5.692297801E-02
 -5.000000000E-01 -8.500000000E-01 4.827744608E-02
 -5.000000000E-01 -9.000000000E-01 3.844499520E-02
 -5.000000000E-01 -9.500000000E-01 2.550848330E-02
 -4.500000000E-01 -1.000000000E+00 2.120270621E-02
 -4.000000000E-01 -1.000000000E+00 3.142788514E-02
 -3.500000000E-01 -1.000000000E+00 3.787055052E-02
 -3.000000000E-01 -1.000000000E+00 4.206224415E-02
 -2.500000000E-01 -1.000000000E+00 4.461999499E-02
 -2.000000000E-01 -1.000000000E+00 4.573692800E-02
 -1.500000000E-01 -1.000000000E+00 4.532392176E-02
 -1.000000000E-01 -1.000000000E+00 4.338430777E-02
 -5.000000000E-02 -1.000000000E+00 3.994773655E-02
 -9.424683256E-13 -1.000000000E+00 3.517148124E-02
 5.000000000E-02 -1.000000000E+00 2.913132214E-02
 1.000000000E-01 -1.000000000E+00 2.205615547E-02
 1.500000000E-01 -1.000000000E+00 1.411811145E-02
 2.000000000E-01 -1.000000000E+00 5.892932203E-03
 2.500000000E-01 -1.000000000E+00 -2.412366186E-03
 3.000000000E-01 -1.000000000E+00 -1.018257441E-02
 3.500000000E-01 -1.000000000E+00 -1.722639100E-02
 4.000000000E-01 -1.000000000E+00 -2.303340186E-02
 4.500000000E-01 -1.000000000E+00 -2.728085457E-02
 5.000000000E-01 -1.000000000E+00 -2.979493400E-02
 5.500000000E-01 -1.000000000E+00 -3.052240608E-02
 6.000000000E-01 -1.000000000E+00 -2.949215967E-02
 6.500000000E-01 -1.000000000E+00 -2.676795262E-02
 7.000000000E-01 -1.000000000E+00 -2.263005144E-02
 7.500000000E-01 -1.000000000E+00 -1.741622097E-02
 8.000000000E-01 -1.000000000E+00 -1.139103965E-02
 8.500000000E-01 -1.000000000E+00 -4.895259357E-03
 9.000000000E-01 -1.000000000E+00 1.685892519E-03
 9.500000000E-01 -1.000000000E+00 8.193532891E-03
 1.000000000E+00 -1.000000000E+00 1.431983604E-02
 1.050000000E+00 -1.000000000E+00 1.990202330E-02
 1.100000000E+00 -1.000000000E+00 2.484253670E-02
 1.150000000E+00 -1.000000000E+00 2.906595822E-02
 1.200000000E+00 -1.000000000E+00 3.262388870E-02
 1.250000000E+00 -1.000000000E+00 3.547796698E-02
 1.300000000E+00 -1.000000000E+00 3.767034614E-02
 1.350000000E+00 -1.000000000E+00 3.929315069E-02
 1.400000000E+00 -1.000000000E+00 4.040931258E-02
 1.450000000E+00 -1.000000000E+00 4.099079610E-02
 1.500000000E+00 -1.000000000E+00 4.131911017E-02
 1.550000000E+00 -1.000000000E+00 4.109410485E-02
 1.600000000E+00 -1.000000000E+00 4.086074791E-02
 1.650000000E+00 -1.000000000E+00 4.026199897E-02
 1.700000000E+00 -1.000000000E+00 3.948530548E-02
 1.750000000E+00 -1.000000000E+00 3.860082974E-02
 1.800000000E+00 -1.000000000E+00 3.767903190E-02
 1.850000000E+00 -1.000000000E+00 3.654380847E-02
 1.900000000E+00 -1.000000000E+00 3.554886722E-02
 1.950000000E+00 -1.000000000E+00 3.434719366E-02
 2.000000000E+00 -1.000000000E+00 3.322261035E-02
 2.050000000E+00 -1.000000000E+00 3.209621385E-02
 2.100000000E+00 -1.000000000E+00 3.101191108E-02
 2.150000000E+00 -1.000000000E+00 2.989601700E-02
 2.200000000E+00 -1.000000000E+00 2.883199110E-02
 2.250000000E+00 -1.000000000E+00 2.780989848E-02
 2.300000000E+00 -1.000000000E+00 2.686092226E-02
 2.350000000E+00 -1.000000000E+00 2.589234341E-02
 2.400000000E+00 -1.000000000E+00 2.509150930E-02
 2.450000000E+00 -1.000000000E+00 2.419495042E-02
 2.500000000E+00 -1.000000000E+00 2.341177471E-02
 2.550000000E+00 -1.000000000E+00 2.271086356E-02
 2.600000000E+00 -1.000000000E+00 2.195003483E-02
 2.650000000E+00 -1.000000000E+00 2.136211470E-02
 2.700000000E+00 -1.000000000E+00 2.077893965E-02
 2.750000000E+00 -1.000000000E+00 2.025715538E-02
 2.800000000E+00 -1.000000000E+00 1.973519150E-02
 2.850000000E+00 -1.000000000E+00 1.933095655E-02
 2.900000000E+00 -1.000000000E+00 1.890055274E-02
 2.950000000E+00 -1.000000000E+00 1.856348776E-02
 3.000000000E+00 -1.000000000E+00 1.821422320E-02
 3.050000000E+00 -1.000000000E+00 1.791354966E-02
 3.100000000E+00 -1.000000000E+00 1.760208121E-02
 3.150000000E+00 -1.000000000E+00 1.731973412E-02
 3.200000000E+00 -1.000000000E+00 1.694399433E-02
 3.250000000E+00 -1.000000000E+00 1.654959078E-02
 3.300000000E+00 -1.000000000E+00 1.601490649E-02
 3.350000000E+00 -1.000000000E+00 1.525239204E-02
 3.400000000E+00 -1.000000000E+00 1.393513628E-02
 3.450000000E+00 -1.000000000E+00 1.126043023E-02
 3.500000000E+00 -9.500000000E-01 5.803718896E-03
 3.500000000E+00 -9.000000000E-01 7.195133356E-03
 3.500000000E+00 -8.500000000E-01 8.522518864E-03
 3.500000000E+00 -8.000000000E-01 9.946218866E-03
 3.500000000E+00 -7.500000000E-01 1.134022226E-02
 3.500000000E+00 -7.000000000E-01 1.264188232E-02
 3.500000000E+00 -6.500000000E-01 1.400080934E-02
 3.500000000E+00 -6.000000000E-01 1.539303403E-02
 3.500000000E+00 -5.500000000E-01 1.682443594E-02
 3.500000000E+00 -5.000000000E-01 1.827404402E-02
 3.500000000E+00 -4.500000000E-01 1.973684890E-02
 3.500000000E+00 -4.000000000E-01 2.122473082E-02
 3.500000000E+00 -3.500000000E-01 2.273100437E-02
 3.500000000E+00 -3.000000000E-01 2.407515252E-02
 3.500000000E+00 -2.500000000E-01 2.509204464E-02
 3.500000000E+00 -2.000000000E-01 2.554493584E-02
 3.500000000E+00 -1.500000000E-01 2.538451368E-02
 3.500000000E+00 -1.000000000E-01 2.495697090E-02
 3.500000000E+00 -5.000000000E-02 2.473321518E-02
 3.500000000E+00 -2.752242878E-12 2.485200354E-02
 3.500000000E+00 5.000000000E-02 2.512335956E-02
 3.500000000E+00 1.000000000E-01 2.512556054E-02
 3.500000000E+00 1.500000000E-01 2.472185858E-02
 3.500000000E+00 2.000000000E-01 2.383406297E-02
 3.500000000E+00 2.500000000E-01 2.241791506E-02
 3.500000000E+00 3.000000000E-01 2.087747954E-02
 3.500000000E+00 3.500000000E-01 1.928931946E-02
 3.500000000E+00 4.000000000E-01 1.774755881E-02
 3.500000000E+00 4.500000000E-01 1.619537329E-02
 3.500000000E+00 5.000000000E-01 1.465485754E-02
 3.500000000E+00 5.500000000E-01 1.328694878E-02
 3.500000000E+00 6.000000000E-01 1.244104439E-02
 3.500000000E+00 6.500000000E-01 1.223728124E-02
 3.500000000E+00 7.000000000E-01 1.158831606E-02
 3.500000000E+00 7.500000000E-01 9.256291929E-03
 3.500000000E+00 8.000000000E-01 2.520172142E-03
 3.500000000E+00 8.500000000E-01 -7.717063459E-03
 3.500000000E+00 9.000000000E-01 -2.200934054E-02
 3.500000000E+00 9.500000000E-01 -3.658672332E-02
 3.450000000E+00 1.000000000E+00 -1.551532953E-02
 3.400000000E+00 1.000000000E+00 -6.157375018E-03
 3.350000000E+00 1.000000000E+00 -2.305100435E-03
 3.300000000E+00 1.000000000E+00 -2.085843020E-03
 3.250000000E+00 1.000000000E+00 -2.103930432E-03
 3.200000000E+00 1.000000000E+00 -2.156544503E-03
 3.150000000E+00 1.000000000E+00 -2.947391383E-03
 3.100000000E+00 1.000000000E+00 -3.461949180E-03
 3.050000000E+00 1.000000000E+00 -4.625259130E-03
 3.000000000E+00 1.000000000E+00 -5.414355756E-03
 2.950000000E+00 1.000000000E+00 -6.575834068E-03
 2.900000000E+00 1.000000000E+00 -7.442653252E-03
 2.850000000E+00 1.000000000E+00 -8.664355115E-03
 2.800000000E+00 1.000000000E+00 -9.795793859E-03
 2.750000000E+00 1.000000000E+00 -1.096036379E-02
 2.700000000E+00 1.000000000E+00 -1.229907073E-02
 2.650000000E+00 1.000000000E+00 -1.355187948E-02
 2.600000000E+00 1.000000000E+00 -1.476296998E-02
 2.550000000E+00 1.000000000E+00 -1.614381907E-02
 2.500000000E+00 1.000000000E+00 -1.759921980E-02
 2.450000000E+00 1.000000000E+00 -1.916340083E-02
 2.400000000E+00 1.000000000E+00 -2.058994802E-02
 2.350000000E+00 1.000000000E+00 -2.248572331E-02
 2.300000000E+00 1.000000000E+00 -2.394295811E-02
 2.250000000E+00 1.000000000E+00 -2.589657249E-02
 2.200000000E+00 1.000000000E+00 -2.804881649E-02
 2.150000000E+00 1.000000000E+00 -2.995569457E-02
 2.100000000E+00 1.000000000E+00 -3.215169402E-02
 2.050000000E+00 1.000000000E+00 -3.462301630E-02
 2.000000000E+00 1.000000000E+00 -3.717852483E-02
 1.950000000E+00 1.000000000E+00 -3.991490036E-02
 1.900000000E+00 1.000000000E+00 -4.289006253E-02
 1.850000000E+00 1.000000000E+00 -4.609645208E-02
 1.800000000E+00 1.000000000E+00 -4.936751437E-02
 1.750000000E+00 1.000000000E+00 -5.348883785E-02
 1.700000000E+00 1.000000000E+00 -5.748278136E-02
 1.650000000E+00 1.000000000E+00 -6.193985480E-02
 1.600000000E+00 1.000000000E+00 -6.656367964E-02
 1.550000000E+00 1.000000000E+00 -7.198660936E-02
 1.500000000E+00 1.000000000E+00 -7.760432539E-02
 1.450000000E+00 1.000000000E+00 -8.386273295E-02
 1.400000000E+00 1.000000000E+00 -9.056020749E-02
 1.350000000E+00 1.000000000E+00 -9.780177767E-02
 1.300000000E+00 1.000000000E+00 -1.051841197E-01
 1.250000000E+00 1.000000000E+00 -1.130662950E-01
 1.200000000E+00 1.000000000E+00 -1.211887018E-01
 1.150000000E+00 1.000000000E+00 -1.295263252E-01
 1.100000000E+00 1.000000000E+00 -1.379546057E-01
 1.050000000E+00 1.000000000E+00 -1.456528981E-01
 1.000000000E+00 1.000000000E+00 -1.526412132E-01
 9.500000000E-01 1.000000000E+00 -1.586908416E-01
 9.000000000E-01 1.000000000E+00 -1.627880639E-01
 8.500000000E-01 1.000000000E+00 -1.658047547E-01
 8.000000000E-01 1.000000000E+00 -1.657043668E-01
 7.500000000E-01 1.000000000E+00 -1.639289071E-01
 7.000000000E-01 1.000000000E+00 -1.592852745E-01
 6.500000000E-01 1.000000000E+00 -1.519226944E-01
 6.000000000E-01 1.000000000E+00 -1.418562254E-01
 5.500000000E-01 1.000000000E+00 -1.311312914E-01
 5.000000000E-01 1.000000000E+00 -1.164484976E-01
 4.500000000E-01 1.000000000E+00 -1.027824547E-01
 4.000000000E-01 1.000000000E+00 -8.665693248E-02
 3.500000000E-01 1.000000000E+00 -6.991300449E-02
 3.000000000E-01 1.000000000E+00 -5.444148606E-02
 2.500000000E-01 1.000000000E+00 -3.854804079E-02
 2.000000000E-01 1.000000000E+00 -2.388103580E-02
 1.500000000E-01 1.000000000E+00 -1.009809265E-02
 1.000000000E-01 1.000000000E+00 2.272272693E-03
 5.000000000E-02 1.000000000E+00 1.315974611E-02
 1.733724275E-12 1.000000000E+00 2.226031671E-02
 -5.000000000E-02 1.000000000E+00 2.958081861E-02
 -1.000000000E-01 1.000000000E+00 3.486228381E-02
 -1.500000000E-01 1.000000000E+00 3.838728580E-02
 -2.000000000E-01 1.000000000E+00 4.013228658E-02
 -2.500000000E-01 1.000000000E+00 3.997673752E-02
 -3.000000000E-01 1.000000000E+00 3.821697879E-02
 -3.500000000E-01 1.000000000E+00 3.471232852E-02
 -4.000000000E-01 1.000000000E+00 2.903821520E-02
 -4.500000000E-01 1.000000000E+00 1.956631172E-02
 9.722940801E-01 -5.581443445E-03 3.899496039E-01
 8.723926038E-01 -6.894313744E-03 3.503240521E-01
 7.948852011E-01 -1.467195515E-02 2.529122791E-01
 7.204131850E-01 -2.542209347E-02 1.451503509E-01
 6.470301337E-01 -3.534076532E-02 2.852336387E-02
 5.728947536E-01 -4.542614564E-02 -1.248869739E-01
 5.059426836E-01 -5.440883389E-02 -3.029908893E-01
 4.439574833E-01 -5.933261965E-02 -4.861449122E-01
 3.859556297E-01 -6.306760461E-02 -6.266018560E-01
 3.301568114E-01 -6.340981538E-02 -6.304955146E-01
 2.733577461E-01 -6.133175679E-02 -5.438376984E-01
 2.130917038E-01 -5.711471715E-02 -4.464565960E-01
 1.567150976E-01 -5.099413501E-02 -3.615087346E-01