TITLE     = "Visualization of the solution"
VARIABLES = "x"
"y"
"Pressure_Coefficient"
ZONE T="Zone"
 STRANDID=0, SOLUTIONTIME=0
 Nodes=12132, Elements=23683, ZONETYPE=FEQuadrilateral
 DATAPACKING=POINT
 DT=(DOUBLE DOUBLE DOUBLE )
 9.999328852E-01 5.130845238E-04 3.374792815E-01
 9.880127311E-01 2.860339824E-03 2.342048786E-01
 9.757900238E-01 5.262825638E-03 1.560188695E-01
 9.599465132E-01 8.269774728E-03 1.152570977E-01
 9.457812905E-01 1.106294803E-02 5.517343552E-02
 9.318656325E-01 1.375629194E-02 9.539941135E-03
 9.202898145E-01 1.596286520E-02 -2.271984083E-02
 9.083105326E-01 1.824473031E-02 -6.980003718E-02
 8.965584040E-01 2.038749494E-02 -9.222877724E-02
 8.846439719E-01 2.254388481E-02 -1.301718598E-01
 8.723399043E-01 2.465940081E-02 -1.412596801E-01
 8.603752851E-01 2.673146501E-02 -1.814538560E-01
 8.477041125E-01 2.880262211E-02 -1.852750545E-01
 8.366508484E-01 3.064929694E-02 -2.341251159E-01
 8.247216940E-01 3.248622268E-02 -2.292775654E-01
 8.119794130E-01 3.445597365E-02 -2.496570037E-01
 7.991430163E-01 3.640707955E-02 -2.757050135E-01
 7.868838906E-01 3.823778406E-02 -3.047294532E-01
 7.741077542E-01 4.003886878E-02 -3.041431413E-01
 7.621676922E-01 4.174956679E-02 -3.382727458E-01
 7.488408089E-01 4.356889054E-02 -3.528446345E-01
 7.349005938E-01 4.543744773E-02 -3.798609084E-01
 7.241756320E-01 4.682501778E-02 -3.936444565E-01
 7.130804658E-01 4.823515192E-02 -4.143234663E-01
 7.014662623E-01 4.967217147E-02 -4.379588610E-01
 6.878646612E-01 5.129447952E-02 -4.583039954E-01
 6.747851372E-01 5.278284848E-02 -4.794104712E-01
 6.648803353E-01 5.389333144E-02 -5.033306572E-01
 6.536864042E-01 5.510199443E-02 -5.307801004E-01
 6.422510743E-01 5.625204742E-02 -5.376138497E-01
 6.305540800E-01 5.741374940E-02 -5.780614617E-01
 6.193408966E-01 5.844487622E-02 -5.863550965E-01
 6.085053086E-01 5.938974395E-02 -5.976389439E-01
 5.959930420E-01 6.043839827E-02 -6.275517329E-01
 5.845986009E-01 6.133678928E-02 -6.300903515E-01
 5.711654425E-01 6.227669120E-02 -6.657815642E-01
 5.589859486E-01 6.306638569E-02 -7.618330252E-01
 5.469067693E-01 6.377547979E-02 -8.025380056E-01
 5.360668898E-01 6.434820592E-02 -7.897474965E-01
 5.244225860E-01 6.488467753E-02 -7.868803916E-01
 5.117838383E-01 6.541881710E-02 -7.863166623E-01
 5.004529953E-01 6.580096483E-02 -7.673845408E-01
 4.872247577E-01 6.619346887E-02 -7.676765782E-01
 4.738396704E-01 6.650099158E-02 -7.545769131E-01
 4.598483443E-01 6.674696505E-02 -7.318554639E-01
 4.461867511E-01 6.687350571E-02 -6.944416879E-01
 4.331314564E-01 6.690344959E-02 -6.787175290E-01
 4.204264283E-01 6.688377261E-02 -6.939729974E-01
 4.083245695E-01 6.681122631E-02 -6.855969523E-01
 3.959214091E-01 6.663762033E-02 -6.504823085E-01
 3.835584521E-01 6.640046090E-02 -6.397332266E-01
 3.720531464E-01 6.614030898E-02 -6.319101996E-01
 3.587295115E-01 6.574367732E-02 -6.085809609E-01
 3.462057710E-01 6.531193852E-02 -5.992866614E-01
 3.335002959E-01 6.481086463E-02 -5.928579429E-01
 3.225442469E-01 6.430912763E-02 -5.717570551E-01
 3.097045720E-01 6.366668642E-02 -5.648013696E-01
 2.963267863E-01 6.291902810E-02 -5.503579964E-01
 2.823792994E-01 6.203595549E-02 -5.295902403E-01
 2.695142925E-01 6.115636602E-02 -5.204842126E-01
 2.575469315E-01 6.026142836E-02 -5.045758918E-01
 2.449267954E-01 5.924466997E-02 -4.916325317E-01
 2.323862463E-01 5.815429240E-02 -4.770109611E-01
 2.197344452E-01 5.696681142E-02 -4.606394522E-01
 2.079759240E-01 5.578516796E-02 -4.450279560E-01
 1.962953061E-01 5.453756452E-02 -4.299390269E-01
 1.839229316E-01 5.312700942E-02 -4.129671327E-01
 1.721030474E-01 5.168892816E-02 -3.965930706E-01
 1.608643383E-01 5.024548620E-02 -3.825418220E-01
 1.488557160E-01 4.859271646E-02 -3.645918542E-01
 1.382351816E-01 4.704407230E-02 -3.469942431E-01
 1.266706735E-01 4.524230957E-02 -3.227495410E-01
 1.153980494E-01 4.338266328E-02 -3.071974346E-01
 1.047141179E-01 4.149615765E-02 -2.787588385E-01
 9.481205046E-02 3.963691741E-02 -2.608683768E-01
 8.376839012E-02 3.742034733E-02 -2.334275772E-01
 7.190156728E-02 3.483986109E-02 -1.939527585E-01
 6.207881495E-02 3.252119571E-02 -1.702053198E-01
 5.221788585E-02 2.998952568E-02 -1.265703207E-01
 4.351547360E-02 2.754745074E-02 -9.100311435E-02
 3.616151214E-02 2.528659068E-02 -4.714657748E-02
 2.971817553E-02 2.311507799E-02 -1.772959119E-03
 2.421893366E-02 2.109057829E-02 3.582930220E-02
 2.027719282E-02 1.950246841E-02 8.764641040E-02
 1.648816653E-02 1.784149744E-02 1.319505092E-01
 1.361585781E-02 1.646864600E-02 1.782204676E-01
 1.100710128E-02 1.511601917E-02 2.300310676E-01
 9.045506828E-03 1.399954967E-02 2.771242589E-01
 7.370610256E-03 1.297821570E-02 3.195832973E-01
 5.820261315E-03 1.194093563E-02 3.964509497E-01
 3.748297226E-03 1.038920879E-02 4.920825367E-01
 1.928162179E-03 8.767595515E-03 6.099392855E-01
 3.959207388E-04 7.079963572E-03 8.050335159E-01
 -1.102788723E-03 4.731888883E-03 1.004160435E+00
 -1.748837298E-03 2.944227774E-03 1.136248365E+00
 -1.958606066E-03 1.530672773E-03 1.194822692E+00
 -1.884497819E-03 -4.768271901E-05 1.166792395E+00
 -1.469908631E-03 -1.679108711E-03 1.063268581E+00
 -5.515823723E-04 -3.590112086E-03 8.712684918E-01
 8.660993772E-04 -5.551426206E-03 6.888721486E-01
 2.875109902E-03 -7.604041137E-03 5.107886710E-01
 4.684895277E-03 -9.105416015E-03 3.641048932E-01
 6.780488417E-03 -1.060364675E-02 2.802845206E-01
 8.408329450E-03 -1.164102368E-02 1.936328531E-01
 1.048678998E-02 -1.284420490E-02 1.467607198E-01
 1.283763815E-02 -1.407985389E-02 9.098923251E-02
 1.617094316E-02 -1.566414721E-02 4.011632154E-02
 1.922597922E-02 -1.698089950E-02 -2.174949270E-02
 2.312606573E-02 -1.851335727E-02 -6.250520633E-02
 2.847936563E-02 -2.040094510E-02 -9.233037325E-02
 3.424843401E-02 -2.223337814E-02 -1.313860593E-01
 4.151980579E-02 -2.431445941E-02 -1.612404132E-01
 4.917317629E-02 -2.629518323E-02 -1.899699294E-01
 5.830779672E-02 -2.842902951E-02 -2.082326474E-01
 6.724392623E-02 -3.034011275E-02 -2.275321540E-01
 7.763937861E-02 -3.238493577E-02 -2.471761370E-01
 8.760549128E-02 -3.419015929E-02 -2.590646098E-01
 9.780095518E-02 -3.591633216E-02 -2.730965752E-01
 1.087572351E-01 -3.765258193E-02 -2.879989380E-01
 1.200849414E-01 -3.932481632E-02 -2.991505386E-01
 1.317313164E-01 -4.094377533E-02 -3.148249492E-01
 1.425319612E-01 -4.235706851E-02 -3.308426728E-01
 1.537137479E-01 -4.373453930E-02 -3.438231880E-01
 1.658683419E-01 -4.514085129E-02 -3.571711951E-01
 1.778046787E-01 -4.644266888E-02 -3.753270982E-01
 1.896863431E-01 -4.765568674E-02 -3.910299556E-01
 2.005057633E-01 -4.869469628E-02 -4.099987510E-01
 2.117598057E-01 -4.969730601E-02 -4.217660434E-01
 2.241654545E-01 -5.073137209E-02 -4.391608768E-01
 2.372178882E-01 -5.173476413E-02 -4.630382830E-01
 2.496856153E-01 -5.259140953E-02 -4.793598656E-01
 2.623091638E-01 -5.337702483E-02 -4.969043349E-01
 2.735177279E-01 -5.400488153E-02 -5.231595710E-01
 2.860364616E-01 -5.460151657E-02 -5.356680759E-01
 2.988106012E-01 -5.512942746E-02 -5.620491581E-01
 3.114616275E-01 -5.552455783E-02 -5.742874531E-01
 3.230837882E-01 -5.580903962E-02 -5.904818446E-01
 3.356951177E-01 -5.601034313E-02 -6.058751688E-01
 3.466094434E-01 -5.609697104E-02 -6.271646390E-01
 3.579956591E-01 -5.608164519E-02 -6.327258181E-01
 3.687933981E-01 -5.596080050E-02 -6.150682722E-01
 3.793670833E-01 -5.578337982E-02 -6.196130541E-01
 3.906146288E-01 -5.548105761E-02 -6.174040639E-01
 4.034323394E-01 -5.499916896E-02 -5.839220479E-01
 4.158084691E-01 -5.441262573E-02 -5.568333123E-01
 4.284559190E-01 -5.369209498E-02 -5.319829544E-01
 4.407912195E-01 -5.285879225E-02 -4.998429380E-01
 4.527613521E-01 -5.192639679E-02 -4.564127670E-01
 4.644927382E-01 -5.092433095E-02 -4.185106341E-01
 4.770272672E-01 -4.977283999E-02 -3.929829182E-01
 4.883825183E-01 -4.862004891E-02 -3.555810267E-01
 5.008437037E-01 -4.724672437E-02 -2.996027352E-01
 5.146386623E-01 -4.569049552E-02 -2.674314766E-01
 5.283349752E-01 -4.406900331E-02 -2.354787469E-01
 5.417854190E-01 -4.237914830E-02 -1.912343416E-01
 5.548688769E-01 -4.070527479E-02 -1.608456968E-01
 5.679364800E-01 -3.898273781E-02 -1.280419227E-01
 5.810669661E-01 -3.721228987E-02 -9.496849955E-02
 5.929195285E-01 -3.560256958E-02 -7.036867860E-02
 6.051694155E-01 -3.390460461E-02 -3.815334762E-02
 6.196872592E-01 -3.191125393E-02 -1.374803169E-02
 6.343453526E-01 -2.988217585E-02 1.462239821E-02
 6.492776871E-01 -2.782285772E-02 3.911806076E-02
 6.624508500E-01 -2.599662542E-02 6.527685381E-02
 6.762762666E-01 -2.411510795E-02 8.268626191E-02
 6.887211204E-01 -2.240656503E-02 1.076340810E-01
 7.012717724E-01 -2.072034962E-02 1.242718378E-01
 7.157891989E-01 -1.879073866E-02 1.432085093E-01
 7.287071943E-01 -1.706846617E-02 1.683547679E-01
 7.404321432E-01 -1.555413567E-02 1.837235632E-01
 7.533686161E-01 -1.390809938E-02 2.040018878E-01
 7.657549977E-01 -1.240746025E-02 2.115279166E-01
 7.783966064E-01 -1.085112337E-02 2.367680995E-01
 7.902473807E-01 -9.463265538E-03 2.504154080E-01
 8.027998805E-01 -8.038434200E-03 2.657124750E-01
 8.136194348E-01 -6.828295533E-03 2.868645239E-01
 8.252593279E-01 -5.610664375E-03 3.003748006E-01
 8.382404447E-01 -4.346883856E-03 3.115062001E-01
 8.506002426E-01 -3.204435809E-03 3.284760479E-01
 8.628322482E-01 -2.156887669E-03 3.445208868E-01
 8.749325871E-01 -1.238211640E-03 3.553196751E-01
 8.867425323E-01 -4.369947419E-04 3.679709699E-01
 8.999246955E-01 3.137644962E-04 3.775516815E-01
 9.104315042E-01 7.842428749E-04 3.825599829E-01
 9.207338691E-01 1.153184683E-03 3.873807736E-01
 9.301407933E-01 1.395992585E-03 3.889374048E-01
 9.389777184E-01 1.545055304E-03 3.918919655E-01
 9.508850574E-01 1.628916129E-03 3.910031859E-01
 9.632463455E-01 1.575985691E-03 3.911807377E-01
 9.773795009E-01 1.348354621E-03 3.960731512E-01
 9.893089533E-01 9.974223794E-04 4.094640298E-01
 -5.000000000E-01 -1.000000000E+00 1.498795039E-02
 3.500000000E+00 -1.000000000E+00 7.478984900E-03
 3.500000000E+00 1.000000000E+00 -2.952768853E-02
 -5.000000000E-01 1.000000000E+00 1.375217656E-02
 9.939728081E-01 1.686712174E-03 3.177193419E-01
 9.819013774E-01 4.061582731E-03 1.894290335E-01
 9.678682685E-01 6.766300183E-03 1.366921764E-01
 9.528639019E-01 9.666361380E-03 8.200393150E-02
 9.388234615E-01 1.240961999E-02 3.038601955E-02
 9.260777235E-01 1.485957857E-02 -4.985590536E-03
 9.143001735E-01 1.710379776E-02 -5.000278898E-02
 9.024344683E-01 1.931611262E-02 -7.834412140E-02
 8.906011879E-01 2.146568988E-02 -1.163152874E-01
 8.784919381E-01 2.360164281E-02 -1.305537141E-01
 8.663575947E-01 2.569543291E-02 -1.675498559E-01
 8.540396988E-01 2.776704356E-02 -1.764891479E-01
 8.421774805E-01 2.972595952E-02 -2.190308640E-01
 8.306862712E-01 3.156775981E-02 -2.276178807E-01
 8.183505535E-01 3.347109817E-02 -2.390159655E-01
 8.055612147E-01 3.543152660E-02 -2.605932046E-01
 7.930134535E-01 3.732243180E-02 -2.967249157E-01
 7.804958224E-01 3.913832642E-02 -2.974702062E-01
 7.681377232E-01 4.089421779E-02 -3.254784033E-01
 7.555042505E-01 4.265922867E-02 -3.437173363E-01
 7.418707013E-01 4.450316913E-02 -3.671731000E-01
 7.295381129E-01 4.613123275E-02 -3.861490257E-01
 7.186280489E-01 4.753008485E-02 -4.036976772E-01
 7.072733641E-01 4.895366170E-02 -4.262969397E-01
 6.946654618E-01 5.048332550E-02 -4.507237673E-01
 6.813248992E-01 5.203866400E-02 -4.627162645E-01
 6.592833698E-01 5.449766293E-02 -5.246079806E-01
 6.479687393E-01 5.567702092E-02 -5.279734297E-01
 6.364025772E-01 5.683289841E-02 -5.618711735E-01
 6.249474883E-01 5.792931281E-02 -5.835525650E-01
 6.139231026E-01 5.891731009E-02 -5.888953332E-01
 6.022491753E-01 5.991407111E-02 -6.131159752E-01
 5.902958214E-01 6.088759378E-02 -6.349482674E-01
 5.778820217E-01 6.180674024E-02 -6.346843819E-01
 5.650756955E-01 6.267153844E-02 -7.140994844E-01
 5.529463589E-01 6.342093274E-02 -7.919064218E-01
 5.414868295E-01 6.406184286E-02 -7.995381868E-01
 5.302447379E-01 6.461644173E-02 -7.827197416E-01
 5.181032121E-01 6.515174732E-02 -7.933352264E-01
 5.061184168E-01 6.560989097E-02 -7.717558704E-01
 4.938388765E-01 6.599721685E-02 -7.701320879E-01
 4.805322140E-01 6.634723023E-02 -7.608964770E-01
 4.668440074E-01 6.662397832E-02 -7.473106078E-01
 4.530175477E-01 6.681023538E-02 -7.119211243E-01
 4.396591038E-01 6.688847765E-02 -6.806507126E-01
 4.267789423E-01 6.689361110E-02 -6.851226448E-01
 4.143754989E-01 6.684749946E-02 -6.970869271E-01
 4.021229893E-01 6.672442332E-02 -6.664226332E-01
 3.897399306E-01 6.651904061E-02 -6.402663004E-01
 3.778057992E-01 6.627038494E-02 -6.413334354E-01
 3.653913289E-01 6.594199315E-02 -6.181201693E-01
 3.524676412E-01 6.552780792E-02 -6.024832491E-01
 3.398530334E-01 6.506140158E-02 -5.978815811E-01
 3.280222714E-01 6.455999613E-02 -5.814081285E-01
 3.161244094E-01 6.398790702E-02 -5.679888346E-01
 3.030156791E-01 6.329285726E-02 -5.606968166E-01
 2.893530428E-01 6.247749180E-02 -5.372858865E-01
 2.759467959E-01 6.159616075E-02 -5.253945940E-01
 2.635306120E-01 6.070889719E-02 -5.127460487E-01
 2.512368634E-01 5.975304917E-02 -4.979851580E-01
 2.386565208E-01 5.869948119E-02 -4.850784106E-01
 2.260603458E-01 5.756055191E-02 -4.684993359E-01
 2.138551846E-01 5.637598969E-02 -4.523487595E-01
 2.021356151E-01 5.516136624E-02 -4.383855053E-01
 1.901091188E-01 5.383228697E-02 -4.216578948E-01
 1.780129895E-01 5.240796879E-02 -4.029800986E-01
 1.664836928E-01 5.096720718E-02 -3.921383299E-01
 1.548600271E-01 4.941910133E-02 -3.716331979E-01
 1.435454488E-01 4.781839438E-02 -3.582518437E-01
 1.324529275E-01 4.614319094E-02 -3.339516170E-01
 1.210343614E-01 4.431248643E-02 -3.148689289E-01
 1.100560836E-01 4.243941046E-02 -2.971085220E-01
 8.929022029E-02 3.852863237E-02 -2.492515354E-01
 7.783497870E-02 3.613010421E-02 -2.193978345E-01
 5.714835040E-02 3.125536069E-02 -1.559416102E-01
 7.244165242E-02 -3.136252426E-02 -2.409009257E-01
 8.262243494E-02 -3.328754753E-02 -2.545105444E-01
 9.270322323E-02 -3.505324572E-02 -2.657898959E-01
 1.032790951E-01 -3.678445704E-02 -2.802931177E-01
 1.144210882E-01 -3.848869912E-02 -2.944451445E-01
 1.259081289E-01 -4.013429582E-02 -3.059820652E-01
 1.371316388E-01 -4.165042192E-02 -3.239967289E-01
 1.481228545E-01 -4.304580390E-02 -3.370569572E-01
 1.597910449E-01 -4.443769529E-02 -3.500781443E-01
 1.718365103E-01 -4.579176009E-02 -3.660791225E-01
 1.837455109E-01 -4.704917781E-02 -3.833949275E-01
 1.950960532E-01 -4.817519151E-02 -4.006845621E-01
 2.061327845E-01 -4.919600114E-02 -4.165038282E-01
 2.179626301E-01 -5.021433905E-02 -4.287843367E-01
 2.306916714E-01 -5.123306811E-02 -4.502721186E-01
 2.434517518E-01 -5.216308683E-02 -4.734722843E-01
 2.559973896E-01 -5.298421718E-02 -4.866534441E-01
 2.679134458E-01 -5.369095318E-02 -5.103799973E-01
 2.797770947E-01 -5.430319905E-02 -5.301750869E-01
 2.924235314E-01 -5.486547202E-02 -5.459426435E-01
 3.051361144E-01 -5.532699265E-02 -5.719983472E-01
 3.172727078E-01 -5.566679873E-02 -5.805733989E-01
 3.293894529E-01 -5.590969138E-02 -5.978351367E-01
 3.411522806E-01 -5.605365708E-02 -6.171880143E-01
 3.523025513E-01 -5.608930811E-02 -6.320703569E-01
 3.633945286E-01 -5.602122284E-02 -6.271691911E-01
 3.740802407E-01 -5.587209016E-02 -6.118465104E-01
 3.849908561E-01 -5.563221872E-02 -6.226412019E-01
 3.970234841E-01 -5.524011329E-02 -6.019167293E-01
 4.096204042E-01 -5.470589735E-02 -5.695346680E-01
 4.221321940E-01 -5.405236036E-02 -5.439673824E-01
 4.346235693E-01 -5.327544361E-02 -5.179674033E-01
 4.467762858E-01 -5.239259452E-02 -4.796544289E-01
 4.586270452E-01 -5.142536387E-02 -4.360856875E-01
 4.707600027E-01 -5.034858547E-02 -4.038807767E-01
 4.827048928E-01 -4.919644445E-02 -3.783595460E-01
 4.946131110E-01 -4.793338664E-02 -3.283380416E-01
 5.077411830E-01 -4.646860994E-02 -2.799331009E-01
 5.214868188E-01 -4.487974942E-02 -2.523427480E-01
 5.350601971E-01 -4.322407581E-02 -2.152499752E-01
 5.483271480E-01 -4.154221155E-02 -1.741926313E-01
 5.614026785E-01 -3.984400630E-02 -1.453693520E-01
 5.745017231E-01 -3.809751384E-02 -1.115153861E-01
 5.869932473E-01 -3.640742972E-02 -8.189274845E-02
 5.990444720E-01 -3.475358710E-02 -5.576418492E-02
 6.124283373E-01 -3.290792927E-02 -2.502670710E-02
 6.270163059E-01 -3.089671489E-02 -6.366345355E-05
 6.418115199E-01 -2.885251679E-02 2.745911246E-02
 6.558642685E-01 -2.690974157E-02 5.176009580E-02
 6.693635583E-01 -2.505586669E-02 7.511137352E-02
 6.824986935E-01 -2.326083649E-02 9.388822055E-02
 6.949964464E-01 -2.156345733E-02 1.169210512E-01
 7.085304856E-01 -1.975554414E-02 1.334488557E-01
 7.222481966E-01 -1.792960241E-02 1.548622780E-01
 7.345696688E-01 -1.631130092E-02 1.772990875E-01
 7.469003797E-01 -1.473111752E-02 1.931166222E-01
 7.595618069E-01 -1.315777982E-02 2.097905226E-01
 7.720758021E-01 -1.162929181E-02 2.217357592E-01
 7.843219936E-01 -1.015719445E-02 2.452762804E-01
 7.965236306E-01 -8.750849869E-03 2.577976166E-01
 8.082096577E-01 -7.433364866E-03 2.751861816E-01
 8.194393814E-01 -6.219479954E-03 2.938550638E-01
 8.317498863E-01 -4.978774115E-03 3.059527341E-01
 8.444203436E-01 -3.775659832E-03 3.197515513E-01
 8.567162454E-01 -2.680661739E-03 3.360081582E-01
 8.688824177E-01 -1.697549655E-03 3.505132646E-01
 8.808375597E-01 -8.376031910E-04 3.611618123E-01
 8.933336139E-01 -6.161512283E-05 3.724098312E-01
 9.051780999E-01 5.490036856E-04 3.828066661E-01
 9.155826867E-01 9.687137790E-04 3.851770278E-01
 9.449313879E-01 1.586985716E-03 3.901673689E-01
 9.570657015E-01 1.602450910E-03 3.909212963E-01
 9.703129232E-01 1.462170156E-03 3.914889700E-01
 9.833442271E-01 1.172888500E-03 4.025476257E-01
 9.946209192E-01 7.552534516E-04 4.522978432E-01
 -5.000000000E-01 9.500000000E-01 2.247769267E-02
 -5.000000000E-01 9.000000000E-01 3.401181626E-02
 -5.000000000E-01 8.500000000E-01 4.274166588E-02
 -5.000000000E-01 8.000000000E-01 5.059332449E-02
 -5.000000000E-01 7.500000000E-01 5.817884422E-02
 -5.000000000E-01 7.000000000E-01 6.557281973E-02
 -5.000000000E-01 6.500000000E-01 7.314071901E-02
 -5.000000000E-01 6.000000000E-01 8.096643153E-02
 -5.000000000E-01 5.500000000E-01 8.898575237E-02
 -5.000000000E-01 5.000000000E-01 9.719926599E-02
 -5.000000000E-01 4.500000000E-01 1.055035294E-01
 -5.000000000E-01 4.000000000E-01 1.139816098E-01
 -5.000000000E-01 3.500000000E-01 1.222833415E-01
 -5.000000000E-01 3.000000000E-01 1.302463943E-01
 -5.000000000E-01 2.500000000E-01 1.377582451E-01
 -5.000000000E-01 2.000000000E-01 1.442476687E-01
 -5.000000000E-01 1.500000000E-01 1.497716863E-01
 -5.000000000E-01 1.000000000E-01 1.539424379E-01
 -5.000000000E-01 5.000000000E-02 1.566091991E-01
 -5.000000000E-01 2.752242878E-12 1.576929974E-01
 -5.000000000E-01 -5.000000000E-02 1.570371419E-01
 -5.000000000E-01 -1.000000000E-01 1.546101444E-01
 -5.000000000E-01 -1.500000000E-01 1.508637970E-01
 -5.000000000E-01 -2.000000000E-01 1.456435409E-01
 -5.000000000E-01 -2.500000000E-01 1.394499521E-01
 -5.000000000E-01 -3.000000000E-01 1.325868786E-01
 -5.000000000E-01 -3.500000000E-01 1.249523901E-01
 -5.000000000E-01 -4.000000000E-01 1.171147765E-01
 -5.000000000E-01 -4.500000000E-01 1.090384287E-01
 -5.000000000E-01 -5.000000000E-01 1.010161297E-01
 -5.000000000E-01 -5.500000000E-01 9.303158891E-02
 -5.000000000E-01 -6.000000000E-01 8.517282478E-02
 -5.000000000E-01 -6.500000000E-01 7.749291673E-02
 -5.000000000E-01 -7.000000000E-01 6.981985858E-02
 -5.000000000E-01 -7.500000000E-01 6.235498840E-02
 -5.000000000E-01 -8.000000000E-01 5.459867555E-02
 -5.000000000E-01 -8.500000000E-01 4.632810662E-02
 -5.000000000E-01 -9.000000000E-01 3.687911351E-02
 -5.000000000E-01 -9.500000000E-01 2.447230834E-02
 -4.500000000E-01 -1.000000000E+00 2.025127614E-02
 -4.000000000E-01 -1.000000000E+00 3.011665746E-02
 -3.500000000E-01 -1.000000000E+00 3.633954269E-02
 -3.000000000E-01 -1.000000000E+00 4.041128837E-02
 -2.500000000E-01 -1.000000000E+00 4.296117650E-02
 -2.000000000E-01 -1.000000000E+00 4.404586261E-02
 -1.500000000E-01 -1.000000000E+00 4.370764660E-02
 -1.000000000E-01 -1.000000000E+00 4.198446064E-02
 -5.000000000E-02 -1.000000000E+00 3.882834739E-02
 -9.424683256E-13 -1.000000000E+00 3.438414937E-02
 5.000000000E-02 -1.000000000E+00 2.872274272E-02
 1.000000000E-01 -1.000000000E+00 2.206918678E-02
 1.500000000E-01 -1.000000000E+00 1.469263490E-02
 2.000000000E-01 -1.000000000E+00 6.986086582E-03
 2.500000000E-01 -1.000000000E+00 -7.488285972E-04
 3.000000000E-01 -1.000000000E+00 -7.958433058E-03
 3.500000000E-01 -1.000000000E+00 -1.446094421E-02
 4.000000000E-01 -1.000000000E+00 -1.962382522E-02
 4.500000000E-01 -1.000000000E+00 -2.353427242E-02
 5.000000000E-01 -1.000000000E+00 -2.579462592E-02
 5.500000000E-01 -1.000000000E+00 -2.636816753E-02
 6.000000000E-01 -1.000000000E+00 -2.524540364E-02
 6.500000000E-01 -1.000000000E+00 -2.252796161E-02
 7.000000000E-01 -1.000000000E+00 -1.849171405E-02
 7.500000000E-01 -1.000000000E+00 -1.337693851E-02
 8.000000000E-01 -1.000000000E+00 -7.531975162E-03
 8.500000000E-01 -1.000000000E+00 -1.269798601E-03
 9.000000000E-01 -1.000000000E+00 5.075261893E-03
 9.500000000E-01 -1.000000000E+00 1.130632863E-02
 1.000000000E+00 -1.000000000E+00 1.711095827E-02
 1.050000000E+00 -1.000000000E+00 2.233546368E-02
 1.100000000E+00 -1.000000000E+00 2.694770536E-02
 1.150000000E+00 -1.000000000E+00 3.092926148E-02
 1.200000000E+00 -1.000000000E+00 3.423973307E-02
 1.250000000E+00 -1.000000000E+00 3.686834813E-02
 1.300000000E+00 -1.000000000E+00 3.886287505E-02
 1.350000000E+00 -1.000000000E+00 4.028375762E-02
 1.400000000E+00 -1.000000000E+00 4.120696803E-02
 1.450000000E+00 -1.000000000E+00 4.170050768E-02
 1.500000000E+00 -1.000000000E+00 4.179826188E-02
 1.550000000E+00 -1.000000000E+00 4.161425945E-02
 1.600000000E+00 -1.000000000E+00 4.111613921E-02
 1.650000000E+00 -1.000000000E+00 4.053939326E-02
 1.700000000E+00 -1.000000000E+00 3.965369699E-02
 1.750000000E+00 -1.000000000E+00 3.879670479E-02
 1.800000000E+00 -1.000000000E+00 3.772282283E-02
 1.850000000E+00 -1.000000000E+00 3.666978240E-02
 1.900000000E+00 -1.000000000E+00 3.544922341E-02
 1.950000000E+00 -1.000000000E+00 3.435014597E-02
 2.000000000E+00 -1.000000000E+00 3.314722834E-02
 2.050000000E+00 -1.000000000E+00 3.202656647E-02
 2.100000000E+00 -1.000000000E+00 3.090826861E-02
 2.150000000E+00 -1.000000000E+00 2.978134038E-02
 2.200000000E+00 -1.000000000E+00 2.872659019E-02
 2.250000000E+00 -1.000000000E+00 2.768917089E-02
 2.300000000E+00 -1.000000000E+00 2.669610284E-02
 2.350000000E+00 -1.000000000E+00 2.574595880E-02
 2.400000000E+00 -1.000000000E+00 2.485416032E-02
 2.450000000E+00 -1.000000000E+00 2.400253797E-02
 2.500000000E+00 -1.000000000E+00 2.322417917E-02
 2.550000000E+00 -1.000000000E+00 2.244692410E-02
 2.600000000E+00 -1.000000000E+00 2.176237613E-02
 2.650000000E+00 -1.000000000E+00 2.110962179E-02
 2.700000000E+00 -1.000000000E+00 2.052874968E-02
 2.750000000E+00 -1.000000000E+00 1.998320944E-02
 2.800000000E+00 -1.000000000E+00 1.947725427E-02
 2.850000000E+00 -1.000000000E+00 1.902436961E-02
 2.900000000E+00 -1.000000000E+00 1.862004426E-02
 2.950000000E+00 -1.000000000E+00 1.821750749E-02
 3.000000000E+00 -1.000000000E+00 1.789546092E-02
 3.050000000E+00 -1.000000000E+00 1.753946613E-02
 3.100000000E+00 -1.000000000E+00 1.723804582E-02
 3.150000000E+00 -1.000000000E+00 1.690660464E-02
 3.200000000E+00 -1.000000000E+00 1.655208131E-02
 3.250000000E+00 -1.000000000E+00 1.614629827E-02
 3.300000000E+00 -1.000000000E+00 1.559900220E-02
 3.350000000E+00 -1.000000000E+00 1.487735941E-02
 3.400000000E+00 -1.000000000E+00 1.356139312E-02
 3.450000000E+00 -1.000000000E+00 1.100434597E-02
 3.500000000E+00 -9.500000000E-01 5.692138158E-03
 3.500000000E+00 -9.000000000E-01 6.858724284E-03
 3.500000000E+00 -8.500000000E-01 8.154798996E-03
 3.500000000E+00 -8.000000000E-01 9.577721538E-03
 3.500000000E+00 -7.500000000E-01 1.089972782E-02
 3.500000000E+00 -7.000000000E-01 1.213449013E-02
 3.500000000E+00 -6.500000000E-01 1.341391583E-02
 3.500000000E+00 -6.000000000E-01 1.474956530E-02
 3.500000000E+00 -5.500000000E-01 1.611060674E-02
 3.500000000E+00 -5.000000000E-01 1.748629970E-02
 3.500000000E+00 -4.500000000E-01 1.884641539E-02
 3.500000000E+00 -4.000000000E-01 2.027043555E-02
 3.500000000E+00 -3.500000000E-01 2.167957571E-02
 3.500000000E+00 -3.000000000E-01 2.294887634E-02
 3.500000000E+00 -2.500000000E-01 2.396319753E-02
 3.500000000E+00 -2.000000000E-01 2.442440167E-02
 3.500000000E+00 -1.500000000E-01 2.431999274E-02
 3.500000000E+00 -1.000000000E-01 2.400711722E-02
 3.500000000E+00 -5.000000000E-02 2.381193316E-02
 3.500000000E+00 -2.752242878E-12 2.392236201E-02
 3.500000000E+00 5.000000000E-02 2.412848475E-02
 3.500000000E+00 1.000000000E-01 2.410632092E-02
 3.500000000E+00 1.500000000E-01 2.386309264E-02
 3.500000000E+00 2.000000000E-01 2.282630505E-02
 3.500000000E+00 2.500000000E-01 2.129090253E-02
 3.500000000E+00 3.000000000E-01 1.982870183E-02
 3.500000000E+00 3.500000000E-01 1.839858302E-02
 3.500000000E+00 4.000000000E-01 1.700515834E-02
 3.500000000E+00 4.500000000E-01 1.544692689E-02
 3.500000000E+00 5.000000000E-01 1.391269840E-02
 3.500000000E+00 5.500000000E-01 1.267298620E-02
 3.500000000E+00 6.000000000E-01 1.189032989E-02
 3.500000000E+00 6.500000000E-01 1.165823284E-02
 3.500000000E+00 7.000000000E-01 1.109976956E-02
 3.500000000E+00 7.500000000E-01 8.891587323E-03
 3.500000000E+00 8.000000000E-01 2.383775856E-03
 3.500000000E+00 8.500000000E-01 -8.086232886E-03
 3.500000000E+00 9.000000000E-01 -2.009778424E-02
 3.500000000E+00 9.500000000E-01 -3.326563101E-02
 3.450000000E+00 1.000000000E+00 -1.530987740E-02
 3.400000000E+00 1.000000000E+00 -5.918188028E-03
 3.350000000E+00 1.000000000E+00 -2.652961598E-03
 3.300000000E+00 1.000000000E+00 -1.966438904E-03
 3.250000000E+00 1.000000000E+00 -2.077827104E-03
 3.200000000E+00 1.000000000E+00 -2.506079609E-03
 3.150000000E+00 1.000000000E+00 -3.118610853E-03
 3.100000000E+00 1.000000000E+00 -4.136736669E-03
 3.050000000E+00 1.000000000E+00 -4.690737821E-03
 3.000000000E+00 1.000000000E+00 -5.630922277E-03
 2.950000000E+00 1.000000000E+00 -6.880060488E-03
 2.900000000E+00 1.000000000E+00 -7.271995177E-03
 2.850000000E+00 1.000000000E+00 -8.929025251E-03
 2.800000000E+00 1.000000000E+00 -9.871199880E-03
 2.750000000E+00 1.000000000E+00 -1.112721866E-02
 2.700000000E+00 1.000000000E+00 -1.233286372E-02
 2.650000000E+00 1.000000000E+00 -1.384217969E-02
 2.600000000E+00 1.000000000E+00 -1.478800132E-02
 2.550000000E+00 1.000000000E+00 -1.642386394E-02
 2.500000000E+00 1.000000000E+00 -1.753637404E-02
 2.450000000E+00 1.000000000E+00 -1.919406188E-02
 2.400000000E+00 1.000000000E+00 -2.079926896E-02
 2.350000000E+00 1.000000000E+00 -2.219814134E-02
 2.300000000E+00 1.000000000E+00 -2.404963343E-02
 2.250000000E+00 1.000000000E+00 -2.583633818E-02
 2.200000000E+00 1.000000000E+00 -2.803220628E-02
 2.150000000E+00 1.000000000E+00 -2.988686743E-02
 2.100000000E+00 1.000000000E+00 -3.221075136E-02
 2.050000000E+00 1.000000000E+00 -3.434355117E-02
 2.000000000E+00 1.000000000E+00 -3.694379595E-02
 1.950000000E+00 1.000000000E+00 -3.961410862E-02
 1.900000000E+00 1.000000000E+00 -4.255047900E-02
 1.850000000E+00 1.000000000E+00 -4.570167387E-02
 1.800000000E+00 1.000000000E+00 -4.917977555E-02
 1.750000000E+00 1.000000000E+00 -5.278271956E-02
 1.700000000E+00 1.000000000E+00 -5.687025664E-02
 1.650000000E+00 1.000000000E+00 -6.120513370E-02
 1.600000000E+00 1.000000000E+00 -6.601842353E-02
 1.550000000E+00 1.000000000E+00 -7.104392551E-02
 1.500000000E+00 1.000000000E+00 -7.656387389E-02
 1.450000000E+00 1.000000000E+00 -8.280258136E-02
 1.400000000E+00 1.000000000E+00 -8.915941919E-02
 1.350000000E+00 1.000000000E+00 -9.624790149E-02
 1.300000000E+00 1.000000000E+00 -1.035608331E-01
 1.250000000E+00 1.000000000E+00 -1.112212838E-01
 1.200000000E+00 1.000000000E+00 -1.193747589E-01
 1.150000000E+00 1.000000000E+00 -1.271072279E-01
 1.100000000E+00 1.000000000E+00 -1.348326309E-01
 1.050000000E+00 1.000000000E+00 -1.422620697E-01
 1.000000000E+00 1.000000000E+00 -1.486341542E-01
 9.500000000E-01 1.000000000E+00 -1.545975793E-01
 9.000000000E-01 1.000000000E+00 -1.582274880E-01
 8.500000000E-01 1.000000000E+00 -1.606793112E-01
 8.000000000E-01 1.000000000E+00 -1.603425033E-01
 7.500000000E-01 1.000000000E+00 -1.589903762E-01
 7.000000000E-01 1.000000000E+00 -1.541290150E-01
 6.500000000E-01 1.000000000E+00 -1.480793581E-01
 6.000000000E-01 1.000000000E+00 -1.382796237E-01
 5.500000000E-01 1.000000000E+00 -1.272702350E-01
 5.000000000E-01 1.000000000E+00 -1.140432498E-01
 4.500000000E-01 1.000000000E+00 -9.982512481E-02
 4.000000000E-01 1.000000000E+00 -8.479128640E-02
 3.500000000E-01 1.000000000E+00 -6.923541646E-02
 3.000000000E-01 1.000000000E+00 -5.361523824E-02
 2.500000000E-01 1.000000000E+00 -3.873437770E-02
 2.000000000E-01 1.000000000E+00 -2.440045254E-02
 1.500000000E-01 1.000000000E+00 -1.105478481E-02
 1.000000000E-01 1.000000000E+00 9.627102135E-04
 5.000000000E-02 1.000000000E+00 1.150363252E-02
 1.733724275E-12 1.000000000E+00 2.034805585E-02
 -5.000000000E-02 1.000000000E+00 2.731860503E-02
 -1.000000000E-01 1.000000000E+00 3.261261575E-02
 -1.500000000E-01 1.000000000E+00 3.607998939E-02
 -2.000000000E-01 1.000000000E+00 3.776878331E-02
 -2.500000000E-01 1.000000000E+00 3.775868181E-02
 -3.000000000E-01 1.000000000E+00 3.616645889E-02
 -3.500000000E-01 1.000000000E+00 3.295758063E-02
 -4.000000000E-01 1.000000000E+00 2.745436590E-02
 -4.500000000E-01 1.000000000E+00 1.854303543E-02
 9.027986906E-01 -4.765343573E-03 3.723440380E-01
 8.230189493E-01 -1.053081842E-02 2.934876769E-01
 7.514583722E-01 -2.029668169E-02 1.962300016E-01
 6.800816559E-01 -2.872691434E-02 8.825680443E-02
 6.097440148E-01 -3.918215678E-02 -3.178163161E-02
 5.385567121E-01 -4.848063929E-02 -2.011553617E-01
 9.803685992E-01 -3.754965147E-03 3.895609489E-01
 4.806982140E-01 -5.443229754E-02 -3.747021823E-01
 4.252008318E-01 -5.887136214E-02 -5.275651605E-01
 3.662074128E-01 -6.118254713E-02 -6.099994169E-01
 3.134625037E-01 -5.978412460E-02 -5.697517473E-01
 2.588213011E-01 -5.857230110E-02 -4.837325414E-01