TITLE     = "Visualization of the solution"
VARIABLES = "x"
"y"
"Pressure_Coefficient"
ZONE T="Zone"
 STRANDID=0, SOLUTIONTIME=0
 Nodes=11992, Elements=23404, ZONETYPE=FEQuadrilateral
 DATAPACKING=POINT
 DT=(DOUBLE DOUBLE DOUBLE )
 9.998994470E-01 5.010460154E-04 3.397011336E-01
 9.882811904E-01 2.731001470E-03 2.720757269E-01
 9.751675725E-01 5.183912814E-03 1.951024419E-01
 9.574402571E-01 8.479373530E-03 1.401797000E-01
 9.416636825E-01 1.147046778E-02 9.195547934E-02
 9.258644581E-01 1.451370586E-02 3.398451570E-02
 9.133080840E-01 1.685454324E-02 8.663618861E-03
 9.008184671E-01 1.919883117E-02 -2.733698216E-02
 8.885809779E-01 2.146367170E-02 -5.769808876E-02
 8.765796423E-01 2.367503010E-02 -9.794099864E-02
 8.637626171E-01 2.593570389E-02 -1.164642952E-01
 8.511676192E-01 2.813228779E-02 -1.397831805E-01
 8.389157057E-01 3.025950864E-02 -1.775704314E-01
 8.280648589E-01 3.206972405E-02 -1.938433872E-01
 8.164033890E-01 3.395767882E-02 -1.999244815E-01
 8.042078018E-01 3.595625237E-02 -2.338155248E-01
 7.918851972E-01 3.791416809E-02 -2.579134222E-01
 7.796598673E-01 3.982882202E-02 -2.887192999E-01
 7.675465345E-01 4.162353650E-02 -2.907590669E-01
 7.562224865E-01 4.332701489E-02 -3.253452075E-01
 7.433347106E-01 4.517294839E-02 -3.373975014E-01
 7.301054001E-01 4.704430327E-02 -3.628459076E-01
 7.197350860E-01 4.848761111E-02 -3.935871910E-01
 7.090042830E-01 4.993557930E-02 -4.168135958E-01
 6.976116896E-01 5.140520632E-02 -4.301627524E-01
 6.844812036E-01 5.306844786E-02 -4.579766920E-01
 6.716402173E-01 5.461185426E-02 -4.851888071E-01
 6.618536711E-01 5.577062815E-02 -5.037224869E-01
 6.504031420E-01 5.705352500E-02 -5.228267913E-01
 6.386936903E-01 5.832579359E-02 -5.574161848E-01
 6.272718310E-01 5.950304866E-02 -5.922349314E-01
 6.158708334E-01 6.060463563E-02 -6.007615381E-01
 6.052157283E-01 6.156791002E-02 -5.619291054E-01
 5.929806232E-01 6.261248142E-02 -5.643160202E-01
 5.817274451E-01 6.352173537E-02 -7.441494123E-01
 5.688124895E-01 6.447105855E-02 -8.657141843E-01
 5.567335486E-01 6.527791172E-02 -8.454537101E-01
 5.449498296E-01 6.598766893E-02 -8.363396009E-01
 5.342375636E-01 6.657587737E-02 -8.217182591E-01
 5.228025317E-01 6.710924953E-02 -8.041558598E-01
 5.106660128E-01 6.762487441E-02 -8.158991894E-01
 4.996659458E-01 6.804671139E-02 -7.947784484E-01
 4.864587486E-01 6.842231750E-02 -7.628468226E-01
 4.729619920E-01 6.872554123E-02 -7.635362907E-01
 4.593152404E-01 6.897291541E-02 -7.583938031E-01
 4.464038610E-01 6.911051273E-02 -7.271764763E-01
 4.337463975E-01 6.915467232E-02 -7.008183770E-01
 4.214114249E-01 6.913314760E-02 -6.922115129E-01
 4.092157781E-01 6.905311346E-02 -6.874969018E-01
 3.969937265E-01 6.890293956E-02 -6.712255263E-01
 3.846337795E-01 6.867741048E-02 -6.515119831E-01
 3.728914559E-01 6.840056181E-02 -6.380447875E-01
 3.600483239E-01 6.804243475E-02 -6.264047834E-01
 3.473358750E-01 6.759635359E-02 -6.076053929E-01
 3.342177868E-01 6.708882749E-02 -6.082079592E-01
 3.229552805E-01 6.657245010E-02 -5.832121389E-01
 3.101111948E-01 6.591637433E-02 -5.693957441E-01
 2.968426347E-01 6.518208981E-02 -5.634755393E-01
 2.827912271E-01 6.429054588E-02 -5.466950448E-01
 2.706997693E-01 6.345602870E-02 -5.323909348E-01
 2.587154210E-01 6.254643202E-02 -5.144660927E-01
 2.464161068E-01 6.155852228E-02 -5.047839441E-01
 2.340359837E-01 6.046444923E-02 -4.850508590E-01
 2.217816114E-01 5.932395905E-02 -4.780599945E-01
 2.098039091E-01 5.810767040E-02 -4.580901355E-01
 1.979561895E-01 5.683596060E-02 -4.461245891E-01
 1.854303926E-01 5.538661405E-02 -4.277324370E-01
 1.734039485E-01 5.389596894E-02 -4.080676080E-01
 1.618995517E-01 5.238211527E-02 -3.896955399E-01
 1.498346776E-01 5.069228634E-02 -3.738043227E-01
 1.390575171E-01 4.908523709E-02 -3.541432521E-01
 1.271995604E-01 4.719922319E-02 -3.328207333E-01
 1.158172414E-01 4.526746646E-02 -3.146166920E-01
 1.052397266E-01 4.333424941E-02 -2.813541245E-01
 9.535536915E-02 4.142871499E-02 -2.633116915E-01
 8.430758864E-02 3.913871944E-02 -2.332467016E-01
 7.285337150E-02 3.657484800E-02 -1.978790002E-01
 6.309201568E-02 3.420069069E-02 -1.612396639E-01
 5.337144062E-02 3.163681179E-02 -1.245385257E-01
 4.492647573E-02 2.920188755E-02 -8.319513051E-02
 3.761560097E-02 2.690299228E-02 -3.782344716E-02
 3.107572533E-02 2.466299012E-02 8.358019647E-03
 2.549988590E-02 2.257890813E-02 5.253094032E-02
 2.145946585E-02 2.092872933E-02 1.009368261E-01
 1.760809310E-02 1.922653988E-02 1.475292214E-01
 1.451404672E-02 1.773873344E-02 2.032615202E-01
 1.162525266E-02 1.622739621E-02 2.533748293E-01
 9.525661357E-03 1.502346061E-02 3.079883076E-01
 7.699827198E-03 1.389271021E-02 3.496667426E-01
 6.037043408E-03 1.276849397E-02 4.243340241E-01
 3.847103799E-03 1.109946519E-02 5.246098961E-01
 1.917942660E-03 9.346347302E-03 6.394078628E-01
 3.185656096E-04 7.528239861E-03 8.487396112E-01
 -1.238155994E-03 4.931365140E-03 1.053515337E+00
 -1.833290677E-03 3.026705934E-03 1.168136927E+00
 -1.977341948E-03 1.500403625E-03 1.186455600E+00
 -1.809595269E-03 -8.523563884E-05 1.148341506E+00
 -1.363641815E-03 -1.600685879E-03 1.030390780E+00
 -4.354594857E-04 -3.440956352E-03 8.567070002E-01
 9.329660679E-04 -5.311143585E-03 6.603434011E-01
 2.840182511E-03 -7.280273363E-03 4.936995800E-01
 4.586451221E-03 -8.751223795E-03 3.523104702E-01
 6.546338554E-03 -1.018303633E-02 2.677649214E-01
 8.168169297E-03 -1.124079246E-02 1.868981523E-01
 1.020392496E-02 -1.244411897E-02 1.362930853E-01
 1.249869727E-02 -1.367993839E-02 7.874981359E-02
 1.571905054E-02 -1.524121966E-02 2.314431413E-02
 1.855062321E-02 -1.648282260E-02 -3.273997094E-02
 2.222444676E-02 -1.796751283E-02 -6.849339995E-02
 2.746586315E-02 -1.986788958E-02 -1.065112469E-01
 3.311361745E-02 -2.170426026E-02 -1.490487865E-01
 3.999444842E-02 -2.371101268E-02 -1.750439597E-01
 4.761343822E-02 -2.572121471E-02 -1.983180521E-01
 5.653212592E-02 -2.784767747E-02 -2.183954938E-01
 6.535555422E-02 -2.976805903E-02 -2.392437657E-01
 7.530153543E-02 -3.175364807E-02 -2.554958322E-01
 8.532182872E-02 -3.359954432E-02 -2.692508954E-01
 9.556731582E-02 -3.535327688E-02 -2.808755096E-01
 1.065688655E-01 -3.711492196E-02 -2.947079160E-01
 1.179334000E-01 -3.881229460E-02 -3.079262073E-01
 1.297217309E-01 -4.045860097E-02 -3.196537421E-01
 1.406920999E-01 -4.190693051E-02 -3.373423944E-01
 1.518283933E-01 -4.328648746E-02 -3.500439987E-01
 1.639846414E-01 -4.470226914E-02 -3.627524329E-01
 1.756409556E-01 -4.598006979E-02 -3.797787396E-01
 1.876856983E-01 -4.721547663E-02 -3.937459225E-01
 1.984672844E-01 -4.825621098E-02 -4.106374686E-01
 2.097477913E-01 -4.927930608E-02 -4.268685908E-01
 2.221435755E-01 -5.031864345E-02 -4.416035182E-01
 2.350580692E-01 -5.132855475E-02 -4.676408190E-01
 2.474271953E-01 -5.218998715E-02 -4.832764424E-01
 2.597166002E-01 -5.296586454E-02 -4.975418983E-01
 2.710889578E-01 -5.361292511E-02 -5.176075979E-01
 2.838946879E-01 -5.426307768E-02 -5.442699614E-01
 2.964343131E-01 -5.478633195E-02 -5.638222428E-01
 3.092620671E-01 -5.522260815E-02 -5.807470937E-01
 3.212189376E-01 -5.552698672E-02 -5.953004252E-01
 3.340227902E-01 -5.575444177E-02 -6.105222617E-01
 3.451900482E-01 -5.586123466E-02 -6.346371148E-01
 3.566825688E-01 -5.586046353E-02 -6.343163676E-01
 3.675975204E-01 -5.577363074E-02 -6.311685707E-01
 3.786208630E-01 -5.559731275E-02 -6.315933582E-01
 3.904291987E-01 -5.530373380E-02 -6.287633937E-01
 4.035612941E-01 -5.482706055E-02 -6.011041983E-01
 4.162514210E-01 -5.423086137E-02 -5.661583785E-01
 4.291505516E-01 -5.350825191E-02 -5.418294319E-01
 4.416185915E-01 -5.267190188E-02 -5.074792081E-01
 4.533834755E-01 -5.178102478E-02 -4.728453495E-01
 4.650972784E-01 -5.078139156E-02 -4.303482608E-01
 4.773422778E-01 -4.966752976E-02 -4.033476298E-01
 4.889222682E-01 -4.850655049E-02 -3.673336698E-01
 5.014341474E-01 -4.714852199E-02 -3.150573597E-01
 5.151095986E-01 -4.561411217E-02 -2.833335640E-01
 5.283735991E-01 -4.403306916E-02 -2.445494547E-01
 5.417327881E-01 -4.236303270E-02 -2.018674753E-01
 5.541157126E-01 -4.079117626E-02 -1.738120497E-01
 5.676376224E-01 -3.902732208E-02 -1.437262559E-01
 5.803560615E-01 -3.730741888E-02 -1.061477331E-01
 5.923747420E-01 -3.567893058E-02 -8.050113956E-02
 6.049790382E-01 -3.397016227E-02 -6.134549167E-02
 6.191452742E-01 -3.197138011E-02 -1.883709759E-02
 6.337096691E-01 -2.997786738E-02 -1.650301770E-03
 6.484389901E-01 -2.790898271E-02 3.288147615E-02
 6.614607573E-01 -2.611242607E-02 5.264327057E-02
 6.749026179E-01 -2.427874878E-02 6.808056098E-02
 6.869847775E-01 -2.258236334E-02 1.010207822E-01
 6.995432973E-01 -2.089428902E-02 1.132693830E-01
 7.138063908E-01 -1.897721924E-02 1.357772812E-01
 7.268040776E-01 -1.725758426E-02 1.542748752E-01
 7.390218973E-01 -1.566734165E-02 1.712278244E-01
 7.522638440E-01 -1.395226736E-02 1.951167350E-01
 7.645395994E-01 -1.243071165E-02 2.075195176E-01
 7.777695060E-01 -1.081810705E-02 2.244640239E-01
 7.890315056E-01 -9.445345961E-03 2.497819975E-01
 8.021079898E-01 -7.966279052E-03 2.592932865E-01
 8.128319979E-01 -6.774415728E-03 2.784620237E-01
 8.245218396E-01 -5.548321642E-03 2.911524924E-01
 8.372629881E-01 -4.276321735E-03 3.080421654E-01
 8.495248556E-01 -3.126298310E-03 3.267795448E-01
 8.618776202E-01 -2.104157116E-03 3.348087419E-01
 8.732677102E-01 -1.230306341E-03 3.504990244E-01
 8.852506876E-01 -4.494957975E-04 3.560185373E-01
 8.981283307E-01 2.773996093E-04 3.668094358E-01
 9.084062576E-01 7.333823014E-04 3.712550510E-01
 9.189361334E-01 1.100825146E-03 3.737470750E-01
 9.286247492E-01 1.337410766E-03 3.734903035E-01
 9.372299314E-01 1.480314997E-03 3.748893405E-01
 9.490132332E-01 1.560069621E-03 3.713578566E-01
 9.616464972E-01 1.512821531E-03 3.692445672E-01
 9.757059216E-01 1.299388590E-03 3.675133213E-01
 9.874792695E-01 9.749579476E-04 3.668740196E-01
 -5.000000000E-01 -1.000000000E+00 1.508009834E-02
 3.500000000E+00 -1.000000000E+00 7.215256825E-03
 3.500000000E+00 1.000000000E+00 -2.891563714E-02
 -5.000000000E-01 1.000000000E+00 1.421060094E-02
 9.940903187E-01 1.616023743E-03 3.568809253E-01
 9.817243814E-01 3.957457142E-03 2.292406649E-01
 9.663039148E-01 6.831643172E-03 1.663145967E-01
 9.495519698E-01 9.974920657E-03 1.159229723E-01
 9.337640703E-01 1.299208682E-02 5.862902086E-02
 9.195862710E-01 1.568412455E-02 2.266294648E-02
 9.070632756E-01 1.802668720E-02 -1.032099223E-02
 8.946997225E-01 2.033125143E-02 -4.144982891E-02
 8.825803101E-01 2.256935090E-02 -8.149135390E-02
 8.701711297E-01 2.480536699E-02 -1.061158958E-01
 8.574651182E-01 2.703399584E-02 -1.262815549E-01
 8.450416625E-01 2.919589821E-02 -1.607120194E-01
 8.334902823E-01 3.116461635E-02 -1.882366613E-01
 8.222341239E-01 3.301370144E-02 -1.920975917E-01
 8.103055954E-01 3.495696560E-02 -2.191425396E-01
 7.980464995E-01 3.693521023E-02 -2.436439045E-01
 7.857725322E-01 3.887149505E-02 -2.791755147E-01
 7.736032009E-01 4.072617926E-02 -2.834454522E-01
 7.618845105E-01 4.247527570E-02 -3.127484776E-01
 7.497785985E-01 4.424998164E-02 -3.298523905E-01
 7.367200553E-01 4.610862583E-02 -3.486572271E-01
 7.249202430E-01 4.776595719E-02 -3.785432572E-01
 7.143696845E-01 4.921159521E-02 -4.086676607E-01
 7.033079863E-01 5.067039281E-02 -4.200234417E-01
 6.910464466E-01 5.223682709E-02 -4.474659677E-01
 6.780607104E-01 5.384015106E-02 -4.643786276E-01
 6.561284065E-01 5.641207658E-02 -5.122247608E-01
 6.445484161E-01 5.768965930E-02 -5.393451163E-01
 6.329827607E-01 5.891442113E-02 -5.762766361E-01
 6.215713322E-01 6.005384214E-02 -6.022297641E-01
 6.105432808E-01 6.108627282E-02 -5.846797343E-01
 5.990981758E-01 6.209019572E-02 -5.482178880E-01
 5.873540342E-01 6.306710839E-02 -6.338335122E-01
 5.752699673E-01 6.399639696E-02 -8.334442929E-01
 5.627730191E-01 6.487448514E-02 -8.589782272E-01
 5.508416891E-01 6.563279033E-02 -8.373713748E-01
 5.395936966E-01 6.628177315E-02 -8.337338204E-01
 5.285200477E-01 6.684256345E-02 -8.080085896E-01
 5.167342722E-01 6.736706197E-02 -8.083574612E-01
 5.051659793E-01 6.783579290E-02 -8.156013397E-01
 4.930623472E-01 6.823451445E-02 -7.729835214E-01
 4.797103703E-01 6.857392937E-02 -7.602963225E-01
 4.661386162E-01 6.884922832E-02 -7.660467625E-01
 4.528595507E-01 6.904171407E-02 -7.439822748E-01
 4.400751293E-01 6.913259253E-02 -7.106252912E-01
 4.275789112E-01 6.914390996E-02 -6.948123624E-01
 4.153136015E-01 6.909313053E-02 -6.909977838E-01
 4.031047523E-01 6.897802651E-02 -6.810553246E-01
 3.908137530E-01 6.879017502E-02 -6.605570994E-01
 3.787626177E-01 6.853898615E-02 -6.426637127E-01
 3.664698899E-01 6.822149828E-02 -6.358286959E-01
 3.536920995E-01 6.781939417E-02 -6.127468738E-01
 3.407768309E-01 6.734259054E-02 -6.100976413E-01
 3.285865337E-01 6.683063880E-02 -5.972002833E-01
 3.165332377E-01 6.624441221E-02 -5.727528166E-01
 3.034769148E-01 6.554923207E-02 -5.706556830E-01
 2.898169309E-01 6.473631784E-02 -5.525444656E-01
 2.767454982E-01 6.387328729E-02 -5.414612948E-01
 2.647075951E-01 6.300123036E-02 -5.205970585E-01
 2.525657639E-01 6.205247715E-02 -5.130154518E-01
 2.402260453E-01 6.101148576E-02 -4.917007186E-01
 2.279087976E-01 5.989420414E-02 -4.844173169E-01
 2.157927603E-01 5.871581472E-02 -4.661741770E-01
 2.038800493E-01 5.747181550E-02 -4.538131604E-01
 1.916932911E-01 5.611128733E-02 -4.373333211E-01
 1.794171706E-01 5.464129150E-02 -4.170455657E-01
 1.676517501E-01 5.313904211E-02 -3.995343958E-01
 1.558671147E-01 5.153720081E-02 -3.806723366E-01
 1.444460973E-01 4.988876171E-02 -3.659094193E-01
 1.331285387E-01 4.814223014E-02 -3.426373678E-01
 1.215084009E-01 4.623334482E-02 -3.245948776E-01
 1.105284840E-01 4.430085793E-02 -2.992377247E-01
 8.983147889E-02 4.028371722E-02 -2.496929862E-01
 7.858048007E-02 3.785678372E-02 -2.210261268E-01
 7.032854483E-02 -3.076085355E-02 -2.511092839E-01
 8.031168208E-02 -3.267659619E-02 -2.632718464E-01
 9.044457227E-02 -3.447641060E-02 -2.756852047E-01
 1.010680906E-01 -3.623409942E-02 -2.867877686E-01
 1.122511327E-01 -3.796360828E-02 -3.019349038E-01
 1.238275655E-01 -3.963544779E-02 -3.140423786E-01
 1.352069154E-01 -4.118276574E-02 -3.282707812E-01
 1.462602466E-01 -4.259670898E-02 -3.444457274E-01
 1.579065174E-01 -4.399437830E-02 -3.556919649E-01
 1.698127985E-01 -4.534116946E-02 -3.714975271E-01
 1.816633269E-01 -4.659777321E-02 -3.869336187E-01
 1.930764914E-01 -4.773584381E-02 -4.027249463E-01
 2.041075379E-01 -4.876775853E-02 -4.180780844E-01
 2.159456834E-01 -4.979897477E-02 -4.340756820E-01
 2.286008224E-01 -5.082359910E-02 -4.525816019E-01
 2.412426323E-01 -5.175927095E-02 -4.786018546E-01
 2.535718977E-01 -5.257792585E-02 -4.893609713E-01
 2.654027790E-01 -5.328939483E-02 -5.076574701E-01
 2.774918228E-01 -5.393800139E-02 -5.284533193E-01
 2.901645005E-01 -5.452470481E-02 -5.567679386E-01
 3.028481901E-01 -5.500447005E-02 -5.708835326E-01
 3.152405024E-01 -5.537479743E-02 -5.903021072E-01
 3.276208639E-01 -5.564071424E-02 -5.998176143E-01
 3.396064192E-01 -5.580783822E-02 -6.245051417E-01
 3.509363085E-01 -5.586084910E-02 -6.374615964E-01
 3.621400446E-01 -5.581704713E-02 -6.321382611E-01
 3.731091917E-01 -5.568547174E-02 -6.308522695E-01
 3.845250309E-01 -5.545052327E-02 -6.310180174E-01
 3.969952464E-01 -5.506539717E-02 -6.173451178E-01
 4.099063575E-01 -5.452896096E-02 -5.841326942E-01
 4.227009863E-01 -5.386955664E-02 -5.521594121E-01
 4.353845716E-01 -5.309007689E-02 -5.276898509E-01
 4.475010335E-01 -5.222646333E-02 -4.891227733E-01
 4.592403769E-01 -5.128120817E-02 -4.540748614E-01
 4.712197781E-01 -5.022446066E-02 -4.131585715E-01
 4.831322730E-01 -4.908704013E-02 -3.891480850E-01
 4.951782078E-01 -4.782753624E-02 -3.419502177E-01
 5.082718730E-01 -4.638131708E-02 -2.961471216E-01
 5.217415988E-01 -4.482359067E-02 -2.660566536E-01
 5.350531936E-01 -4.319805093E-02 -2.235494067E-01
 5.479242504E-01 -4.157710448E-02 -1.861692451E-01
 5.608766675E-01 -3.990924917E-02 -1.591384121E-01
 5.739968419E-01 -3.816737048E-02 -1.263874922E-01
 5.863654017E-01 -3.649317473E-02 -9.174155035E-02
 5.986768901E-01 -3.482454643E-02 -7.034853820E-02
 6.120621562E-01 -3.297077119E-02 -4.278383434E-02
 6.264274716E-01 -3.097462375E-02 -6.736655016E-03
 6.410743296E-01 -2.894342504E-02 1.288129235E-02
 6.549498737E-01 -2.701070439E-02 4.496814814E-02
 6.681816876E-01 -2.519558743E-02 6.110696962E-02
 6.809436977E-01 -2.343055606E-02 8.157026599E-02
 6.932640374E-01 -2.173832618E-02 1.098712477E-01
 7.066748440E-01 -1.993575413E-02 1.231009837E-01
 7.203052342E-01 -1.811740175E-02 1.456565980E-01
 7.329129875E-01 -1.646246295E-02 1.630016662E-01
 7.456428707E-01 -1.480980450E-02 1.818087223E-01
 7.584017217E-01 -1.319148950E-02 2.032993258E-01
 7.711545527E-01 -1.162440935E-02 2.152061158E-01
 7.834005058E-01 -1.013172651E-02 2.355281482E-01
 7.955697477E-01 -8.705812506E-03 2.559740218E-01
 8.074699938E-01 -7.370347390E-03 2.682754687E-01
 8.186769187E-01 -6.161368685E-03 2.848298541E-01
 8.308924139E-01 -4.912321689E-03 2.986072616E-01
 8.433939219E-01 -3.701310023E-03 3.167938665E-01
 8.557012379E-01 -2.615227713E-03 3.319262326E-01
 8.675726652E-01 -1.667231729E-03 3.419387085E-01
 8.792591989E-01 -8.399010694E-04 3.538564445E-01
 8.916895092E-01 -8.604809409E-05 3.601529479E-01
 9.032672942E-01 5.053909554E-04 3.715830802E-01
 9.136711955E-01 9.171037236E-04 3.726587694E-01
 9.431215823E-01 1.520192309E-03 3.726785801E-01
 9.553298652E-01 1.536445576E-03 3.696842272E-01
 9.686762094E-01 1.406105061E-03 3.670167156E-01
 9.815925956E-01 1.137173269E-03 3.696474435E-01
 9.936893582E-01 7.380019815E-04 4.064058641E-01
 -5.000000000E-01 9.500000000E-01 2.340856152E-02
 -5.000000000E-01 9.000000000E-01 3.501511898E-02
 -5.000000000E-01 8.500000000E-01 4.438880731E-02
 -5.000000000E-01 8.000000000E-01 5.219401167E-02
 -5.000000000E-01 7.500000000E-01 6.009730239E-02
 -5.000000000E-01 7.000000000E-01 6.772057002E-02
 -5.000000000E-01 6.500000000E-01 7.550209931E-02
 -5.000000000E-01 6.000000000E-01 8.355012833E-02
 -5.000000000E-01 5.500000000E-01 9.173588504E-02
 -5.000000000E-01 5.000000000E-01 1.000290109E-01
 -5.000000000E-01 4.500000000E-01 1.087110480E-01
 -5.000000000E-01 4.000000000E-01 1.172120526E-01
 -5.000000000E-01 3.500000000E-01 1.256543083E-01
 -5.000000000E-01 3.000000000E-01 1.336909047E-01
 -5.000000000E-01 2.500000000E-01 1.411967139E-01
 -5.000000000E-01 2.000000000E-01 1.478867951E-01
 -5.000000000E-01 1.500000000E-01 1.533313861E-01
 -5.000000000E-01 1.000000000E-01 1.574648624E-01
 -5.000000000E-01 5.000000000E-02 1.600659765E-01
 -5.000000000E-01 2.752242878E-12 1.608553679E-01
 -5.000000000E-01 -5.000000000E-02 1.600537803E-01
 -5.000000000E-01 -1.000000000E-01 1.575897512E-01
 -5.000000000E-01 -1.500000000E-01 1.534915213E-01
 -5.000000000E-01 -2.000000000E-01 1.481930978E-01
 -5.000000000E-01 -2.500000000E-01 1.417528424E-01
 -5.000000000E-01 -3.000000000E-01 1.344263936E-01
 -5.000000000E-01 -3.500000000E-01 1.267003483E-01
 -5.000000000E-01 -4.000000000E-01 1.185863849E-01
 -5.000000000E-01 -4.500000000E-01 1.102729916E-01
 -5.000000000E-01 -5.000000000E-01 1.020739622E-01
 -5.000000000E-01 -5.500000000E-01 9.387552705E-02
 -5.000000000E-01 -6.000000000E-01 8.600474831E-02
 -5.000000000E-01 -6.500000000E-01 7.811270341E-02
 -5.000000000E-01 -7.000000000E-01 7.047275894E-02
 -5.000000000E-01 -7.500000000E-01 6.269564802E-02
 -5.000000000E-01 -8.000000000E-01 5.493725241E-02
 -5.000000000E-01 -8.500000000E-01 4.660043014E-02
 -5.000000000E-01 -9.000000000E-01 3.717091272E-02
 -5.000000000E-01 -9.500000000E-01 2.451705591E-02
 -4.500000000E-01 -1.000000000E+00 2.038132092E-02
 -4.000000000E-01 -1.000000000E+00 3.022095293E-02
 -3.500000000E-01 -1.000000000E+00 3.656258821E-02
 -3.000000000E-01 -1.000000000E+00 4.057274936E-02
 -2.500000000E-01 -1.000000000E+00 4.301979265E-02
 -2.000000000E-01 -1.000000000E+00 4.405105777E-02
 -1.500000000E-01 -1.000000000E+00 4.362212206E-02
 -1.000000000E-01 -1.000000000E+00 4.172050832E-02
 -5.000000000E-02 -1.000000000E+00 3.839602410E-02
 -9.424683256E-13 -1.000000000E+00 3.375990662E-02
 5.000000000E-02 -1.000000000E+00 2.794093981E-02
 1.000000000E-01 -1.000000000E+00 2.102395947E-02
 1.500000000E-01 -1.000000000E+00 1.341276340E-02
 2.000000000E-01 -1.000000000E+00 5.312968479E-03
 2.500000000E-01 -1.000000000E+00 -2.760641717E-03
 3.000000000E-01 -1.000000000E+00 -1.035898296E-02
 3.500000000E-01 -1.000000000E+00 -1.712649040E-02
 4.000000000E-01 -1.000000000E+00 -2.276799120E-02
 4.500000000E-01 -1.000000000E+00 -2.699145899E-02
 5.000000000E-01 -1.000000000E+00 -2.950623115E-02
 5.500000000E-01 -1.000000000E+00 -3.031292434E-02
 6.000000000E-01 -1.000000000E+00 -2.949323044E-02
 6.500000000E-01 -1.000000000E+00 -2.707021916E-02
 7.000000000E-01 -1.000000000E+00 -2.324742884E-02
 7.500000000E-01 -1.000000000E+00 -1.825558447E-02
 8.000000000E-01 -1.000000000E+00 -1.254920778E-02
 8.500000000E-01 -1.000000000E+00 -6.318489591E-03
 9.000000000E-01 -1.000000000E+00 -3.483072836E-05
 9.500000000E-01 -1.000000000E+00 6.141290353E-03
 1.000000000E+00 -1.000000000E+00 1.197933798E-02
 1.050000000E+00 -1.000000000E+00 1.737409317E-02
 1.100000000E+00 -1.000000000E+00 2.215222168E-02
 1.150000000E+00 -1.000000000E+00 2.621335124E-02
 1.200000000E+00 -1.000000000E+00 2.966304250E-02
 1.250000000E+00 -1.000000000E+00 3.240482227E-02
 1.300000000E+00 -1.000000000E+00 3.458047679E-02
 1.350000000E+00 -1.000000000E+00 3.617948172E-02
 1.400000000E+00 -1.000000000E+00 3.728793657E-02
 1.450000000E+00 -1.000000000E+00 3.793038512E-02
 1.500000000E+00 -1.000000000E+00 3.823818971E-02
 1.550000000E+00 -1.000000000E+00 3.818095285E-02
 1.600000000E+00 -1.000000000E+00 3.791296333E-02
 1.650000000E+00 -1.000000000E+00 3.740552686E-02
 1.700000000E+00 -1.000000000E+00 3.674814149E-02
 1.750000000E+00 -1.000000000E+00 3.593801980E-02
 1.800000000E+00 -1.000000000E+00 3.507082352E-02
 1.850000000E+00 -1.000000000E+00 3.406100728E-02
 1.900000000E+00 -1.000000000E+00 3.311594085E-02
 1.950000000E+00 -1.000000000E+00 3.204013128E-02
 2.000000000E+00 -1.000000000E+00 3.107433335E-02
 2.050000000E+00 -1.000000000E+00 3.001903581E-02
 2.100000000E+00 -1.000000000E+00 2.898699786E-02
 2.150000000E+00 -1.000000000E+00 2.797713585E-02
 2.200000000E+00 -1.000000000E+00 2.699739835E-02
 2.250000000E+00 -1.000000000E+00 2.605617300E-02
 2.300000000E+00 -1.000000000E+00 2.514679131E-02
 2.350000000E+00 -1.000000000E+00 2.429012119E-02
 2.400000000E+00 -1.000000000E+00 2.348814616E-02
 2.450000000E+00 -1.000000000E+00 2.271233906E-02
 2.500000000E+00 -1.000000000E+00 2.199920565E-02
 2.550000000E+00 -1.000000000E+00 2.133746108E-02
 2.600000000E+00 -1.000000000E+00 2.069361085E-02
 2.650000000E+00 -1.000000000E+00 2.013611758E-02
 2.700000000E+00 -1.000000000E+00 1.958393189E-02
 2.750000000E+00 -1.000000000E+00 1.908675830E-02
 2.800000000E+00 -1.000000000E+00 1.863440871E-02
 2.850000000E+00 -1.000000000E+00 1.827676563E-02
 2.900000000E+00 -1.000000000E+00 1.787294306E-02
 2.950000000E+00 -1.000000000E+00 1.758108911E-02
 3.000000000E+00 -1.000000000E+00 1.728277431E-02
 3.050000000E+00 -1.000000000E+00 1.698766485E-02
 3.100000000E+00 -1.000000000E+00 1.673478546E-02
 3.150000000E+00 -1.000000000E+00 1.646899851E-02
 3.200000000E+00 -1.000000000E+00 1.612858426E-02
 3.250000000E+00 -1.000000000E+00 1.578345672E-02
 3.300000000E+00 -1.000000000E+00 1.525571530E-02
 3.350000000E+00 -1.000000000E+00 1.456328199E-02
 3.400000000E+00 -1.000000000E+00 1.329388308E-02
 3.450000000E+00 -1.000000000E+00 1.071895091E-02
 3.500000000E+00 -9.500000000E-01 5.482022868E-03
 3.500000000E+00 -9.000000000E-01 6.859595036E-03
 3.500000000E+00 -8.500000000E-01 8.151229706E-03
 3.500000000E+00 -8.000000000E-01 9.550305798E-03
 3.500000000E+00 -7.500000000E-01 1.090773204E-02
 3.500000000E+00 -7.000000000E-01 1.214378293E-02
 3.500000000E+00 -6.500000000E-01 1.349711388E-02
 3.500000000E+00 -6.000000000E-01 1.482164007E-02
 3.500000000E+00 -5.500000000E-01 1.621280709E-02
 3.500000000E+00 -5.000000000E-01 1.759337103E-02
 3.500000000E+00 -4.500000000E-01 1.900977867E-02
 3.500000000E+00 -4.000000000E-01 2.045836844E-02
 3.500000000E+00 -3.500000000E-01 2.192230261E-02
 3.500000000E+00 -3.000000000E-01 2.332523338E-02
 3.500000000E+00 -2.500000000E-01 2.445469905E-02
 3.500000000E+00 -2.000000000E-01 2.495818779E-02
 3.500000000E+00 -1.500000000E-01 2.471275719E-02
 3.500000000E+00 -1.000000000E-01 2.428132258E-02
 3.500000000E+00 -5.000000000E-02 2.399210595E-02
 3.500000000E+00 -2.752242878E-12 2.410910080E-02
 3.500000000E+00 5.000000000E-02 2.454535501E-02
 3.500000000E+00 1.000000000E-01 2.480373516E-02
 3.500000000E+00 1.500000000E-01 2.439339630E-02
 3.500000000E+00 2.000000000E-01 2.331849368E-02
 3.500000000E+00 2.500000000E-01 2.192261104E-02
 3.500000000E+00 3.000000000E-01 2.052339557E-02
 3.500000000E+00 3.500000000E-01 1.914088264E-02
 3.500000000E+00 4.000000000E-01 1.755215184E-02
 3.500000000E+00 4.500000000E-01 1.596850701E-02
 3.500000000E+00 5.000000000E-01 1.443378745E-02
 3.500000000E+00 5.500000000E-01 1.310602985E-02
 3.500000000E+00 6.000000000E-01 1.226342148E-02
 3.500000000E+00 6.500000000E-01 1.199081676E-02
 3.500000000E+00 7.000000000E-01 1.140665255E-02
 3.500000000E+00 7.500000000E-01 8.809792950E-03
 3.500000000E+00 8.000000000E-01 3.254011324E-03
 3.500000000E+00 8.500000000E-01 -6.813547702E-03
 3.500000000E+00 9.000000000E-01 -1.915147328E-02
 3.500000000E+00 9.500000000E-01 -3.269548690E-02
 3.450000000E+00 1.000000000E+00 -1.477192392E-02
 3.400000000E+00 1.000000000E+00 -5.161943393E-03
 3.350000000E+00 1.000000000E+00 -1.834541842E-03
 3.300000000E+00 1.000000000E+00 -1.205932866E-03
 3.250000000E+00 1.000000000E+00 -1.102077576E-03
 3.200000000E+00 1.000000000E+00 -1.791655871E-03
 3.150000000E+00 1.000000000E+00 -2.207377615E-03
 3.100000000E+00 1.000000000E+00 -3.349445062E-03
 3.050000000E+00 1.000000000E+00 -3.928447612E-03
 3.000000000E+00 1.000000000E+00 -4.915694177E-03
 2.950000000E+00 1.000000000E+00 -5.763914073E-03
 2.900000000E+00 1.000000000E+00 -6.785831290E-03
 2.850000000E+00 1.000000000E+00 -7.598357088E-03
 2.800000000E+00 1.000000000E+00 -8.829314494E-03
 2.750000000E+00 1.000000000E+00 -9.854257670E-03
 2.700000000E+00 1.000000000E+00 -1.112068167E-02
 2.650000000E+00 1.000000000E+00 -1.242554771E-02
 2.600000000E+00 1.000000000E+00 -1.365132463E-02
 2.550000000E+00 1.000000000E+00 -1.514402076E-02
 2.500000000E+00 1.000000000E+00 -1.622586941E-02
 2.450000000E+00 1.000000000E+00 -1.770142087E-02
 2.400000000E+00 1.000000000E+00 -1.923930787E-02
 2.350000000E+00 1.000000000E+00 -2.076063681E-02
 2.300000000E+00 1.000000000E+00 -2.233299307E-02
 2.250000000E+00 1.000000000E+00 -2.405934509E-02
 2.200000000E+00 1.000000000E+00 -2.588199117E-02
 2.150000000E+00 1.000000000E+00 -2.792446416E-02
 2.100000000E+00 1.000000000E+00 -3.006721600E-02
 2.050000000E+00 1.000000000E+00 -3.230210579E-02
 2.000000000E+00 1.000000000E+00 -3.467611977E-02
 1.950000000E+00 1.000000000E+00 -3.733958629E-02
 1.900000000E+00 1.000000000E+00 -3.999747109E-02
 1.850000000E+00 1.000000000E+00 -4.308548932E-02
 1.800000000E+00 1.000000000E+00 -4.627669701E-02
 1.750000000E+00 1.000000000E+00 -4.979777966E-02
 1.700000000E+00 1.000000000E+00 -5.397209499E-02
 1.650000000E+00 1.000000000E+00 -5.795365619E-02
 1.600000000E+00 1.000000000E+00 -6.258359460E-02
 1.550000000E+00 1.000000000E+00 -6.749131940E-02
 1.500000000E+00 1.000000000E+00 -7.290036692E-02
 1.450000000E+00 1.000000000E+00 -7.901230176E-02
 1.400000000E+00 1.000000000E+00 -8.514059832E-02
 1.350000000E+00 1.000000000E+00 -9.235407878E-02
 1.300000000E+00 1.000000000E+00 -9.958144835E-02
 1.250000000E+00 1.000000000E+00 -1.072442951E-01
 1.200000000E+00 1.000000000E+00 -1.155514765E-01
 1.150000000E+00 1.000000000E+00 -1.231352917E-01
 1.100000000E+00 1.000000000E+00 -1.321805794E-01
 1.050000000E+00 1.000000000E+00 -1.389843250E-01
 1.000000000E+00 1.000000000E+00 -1.463547388E-01
 9.500000000E-01 1.000000000E+00 -1.524996073E-01
 9.000000000E-01 1.000000000E+00 -1.567890523E-01
 8.500000000E-01 1.000000000E+00 -1.602944512E-01
 8.000000000E-01 1.000000000E+00 -1.602554570E-01
 7.500000000E-01 1.000000000E+00 -1.592099528E-01
 7.000000000E-01 1.000000000E+00 -1.548633163E-01
 6.500000000E-01 1.000000000E+00 -1.484980741E-01
 6.000000000E-01 1.000000000E+00 -1.396045356E-01
 5.500000000E-01 1.000000000E+00 -1.279635963E-01
 5.000000000E-01 1.000000000E+00 -1.152350412E-01
 4.500000000E-01 1.000000000E+00 -1.001006039E-01
 4.000000000E-01 1.000000000E+00 -8.524574647E-02
 3.500000000E-01 1.000000000E+00 -6.923013295E-02
 3.000000000E-01 1.000000000E+00 -5.355270734E-02
 2.500000000E-01 1.000000000E+00 -3.814260936E-02
 2.000000000E-01 1.000000000E+00 -2.373560718E-02
 1.500000000E-01 1.000000000E+00 -1.018600994E-02
 1.000000000E-01 1.000000000E+00 2.052187397E-03
 5.000000000E-02 1.000000000E+00 1.271741090E-02
 1.733724275E-12 1.000000000E+00 2.179820022E-02
 -5.000000000E-02 1.000000000E+00 2.889048883E-02
 -1.000000000E-01 1.000000000E+00 3.415658566E-02
 -1.500000000E-01 1.000000000E+00 3.758547383E-02
 -2.000000000E-01 1.000000000E+00 3.931901288E-02
 -2.500000000E-01 1.000000000E+00 3.922332503E-02
 -3.000000000E-01 1.000000000E+00 3.751331301E-02
 -3.500000000E-01 1.000000000E+00 3.411603564E-02
 -4.000000000E-01 1.000000000E+00 2.843734225E-02
 -4.500000000E-01 1.000000000E+00 1.913218893E-02
 9.009864919E-01 -3.739433136E-03 3.637001608E-01
 8.223279172E-01 -1.097212755E-02 2.841335758E-01
 9.901417364E-01 -4.358544430E-03 3.497779517E-01
 7.496154964E-01 -1.964343772E-02 1.862956201E-01
 6.793639459E-01 -2.926453270E-02 7.753762621E-02
 6.093016148E-01 -3.948571923E-02 -4.951884524E-02
 5.390549732E-01 -4.812603857E-02 -2.091552190E-01
 4.812725547E-01 -5.469497181E-02 -3.843230102E-01
 4.271138687E-01 -5.946939125E-02 -5.329007418E-01
 3.707947408E-01 -6.112501350E-02 -6.192436620E-01
 3.121194849E-01 -6.047617962E-02 -5.742973623E-01
 2.508960207E-01 -5.747723234E-02 -4.797585249E-01
 1.902271549E-01 -5.225189126E-02 -3.921652551E-01