TITLE     = "Visualization of the solution"
VARIABLES = "x"
"y"
"Pressure_Coefficient"
ZONE T="Zone"
 STRANDID=0, SOLUTIONTIME=0
 Nodes=12118, Elements=23656, ZONETYPE=FEQuadrilateral
 DATAPACKING=POINT
 DT=(DOUBLE DOUBLE DOUBLE )
 9.999167323E-01 5.245219218E-04 3.515394959E-01
 9.862944484E-01 3.107436467E-03 2.394464061E-01
 9.742383957E-01 5.433342420E-03 1.682036253E-01
 9.595268965E-01 8.272744715E-03 1.045486745E-01
 9.460924268E-01 1.083506923E-02 5.604272577E-02
 9.338905215E-01 1.314899977E-02 1.070077326E-02
 9.228259921E-01 1.520346664E-02 -2.291433433E-02
 9.111501575E-01 1.735757291E-02 -6.963764292E-02
 8.996006846E-01 1.939145662E-02 -9.298688587E-02
 8.877884746E-01 2.147088014E-02 -1.445115982E-01
 8.753803968E-01 2.349336818E-02 -1.602082432E-01
 8.631643653E-01 2.541979030E-02 -1.769960038E-01
 8.506397605E-01 2.734091505E-02 -1.968551278E-01
 8.390926719E-01 2.906186692E-02 -2.138805442E-01
 8.273222446E-01 3.077202663E-02 -2.319088082E-01
 8.145793676E-01 3.256616369E-02 -2.479066038E-01
 8.013207912E-01 3.436034173E-02 -2.531546063E-01
 7.890786529E-01 3.600648046E-02 -2.691470913E-01
 7.766829729E-01 3.765068203E-02 -2.927908992E-01
 7.648603916E-01 3.919672221E-02 -3.194744668E-01
 7.514770031E-01 4.083062708E-02 -3.155601105E-01
 7.379014492E-01 4.252646118E-02 -3.575327676E-01
 7.266438603E-01 4.383386299E-02 -3.568238032E-01
 7.151330709E-01 4.517010972E-02 -3.768651707E-01
 7.032430172E-01 4.650674760E-02 -3.930375598E-01
 6.897387505E-01 4.799124599E-02 -4.196904686E-01
 6.766244769E-01 4.936402291E-02 -4.359069333E-01
 6.656793356E-01 5.047241598E-02 -4.514523927E-01
 6.538617611E-01 5.163829401E-02 -4.780040344E-01
 6.426067948E-01 5.269865319E-02 -4.988156555E-01
 6.303374171E-01 5.379195884E-02 -5.163614167E-01
 6.186524630E-01 5.478027463E-02 -5.292727997E-01
 6.078183651E-01 5.564474314E-02 -5.428088586E-01
 5.954805613E-01 5.660104752E-02 -5.778345198E-01
 5.834038854E-01 5.745562166E-02 -5.863219582E-01
 5.694844723E-01 5.835667625E-02 -6.068787225E-01
 5.565124154E-01 5.914356187E-02 -6.356348026E-01
 5.434536934E-01 5.983182415E-02 -6.433542098E-01
 5.321549177E-01 6.037386879E-02 -6.590812131E-01
 5.199569464E-01 6.089383736E-02 -6.684536986E-01
 5.070155859E-01 6.135417894E-02 -6.853923733E-01
 4.960415959E-01 6.170811504E-02 -6.983433919E-01
 4.828703105E-01 6.203789636E-02 -6.773484749E-01
 4.697058797E-01 6.227092445E-02 -6.613327676E-01
 4.557741582E-01 6.246369332E-02 -6.697901261E-01
 4.421144426E-01 6.255715340E-02 -6.607822010E-01
 4.290995002E-01 6.256710738E-02 -6.494331883E-01
 4.160345197E-01 6.250266731E-02 -6.413620188E-01
 4.037148058E-01 6.237546727E-02 -6.281071138E-01
 3.909252882E-01 6.216420978E-02 -6.112988283E-01
 3.789452612E-01 6.191020831E-02 -6.003617127E-01
 3.677135706E-01 6.161311641E-02 -5.903369228E-01
 3.545615971E-01 6.121150404E-02 -5.837877921E-01
 3.423285484E-01 6.074590981E-02 -5.586557187E-01
 3.299476206E-01 6.022826582E-02 -5.525942396E-01
 3.196852505E-01 5.975229666E-02 -5.434748377E-01
 3.075655699E-01 5.912838504E-02 -5.342107333E-01
 2.949780524E-01 5.841165781E-02 -5.181921897E-01
 2.813265324E-01 5.753951892E-02 -4.975556676E-01
 2.690266669E-01 5.670216307E-02 -4.906341855E-01
 2.573701143E-01 5.583266169E-02 -4.722497374E-01
 2.450530380E-01 5.485254526E-02 -4.569247631E-01
 2.325038165E-01 5.378893018E-02 -4.471552901E-01
 2.203201801E-01 5.268207937E-02 -4.350035154E-01
 2.086136788E-01 5.154005066E-02 -4.171573717E-01
 1.969823837E-01 5.034274608E-02 -4.026075015E-01
 1.847183853E-01 4.900543392E-02 -3.898512970E-01
 1.728766710E-01 4.763416573E-02 -3.751098635E-01
 1.610609442E-01 4.617851973E-02 -3.564713858E-01
 1.491528302E-01 4.463443905E-02 -3.443928455E-01
 1.382358670E-01 4.313379899E-02 -3.281951493E-01
 1.268854886E-01 4.148523510E-02 -3.124034404E-01
 1.155827567E-01 3.974690661E-02 -2.988424202E-01
 1.047440395E-01 3.797423840E-02 -2.768847435E-01
 9.485419840E-02 3.625804931E-02 -2.633110133E-01
 8.388876915E-02 3.423878178E-02 -2.435083343E-01
 7.224141061E-02 3.192784265E-02 -2.248566005E-01
 6.236258149E-02 2.981453948E-02 -2.023044003E-01
 5.286226794E-02 2.760987729E-02 -1.773593761E-01
 4.385697097E-02 2.532954514E-02 -1.542751371E-01
 3.614567965E-02 2.319548652E-02 -1.275995224E-01
 2.945501544E-02 2.115903981E-02 -9.944287739E-02
 2.371650748E-02 1.923240349E-02 -7.619153506E-02
 1.956179179E-02 1.769280806E-02 -4.006077401E-02
 1.563883387E-02 1.609351300E-02 -8.160140362E-03
 1.275201701E-02 1.479894668E-02 2.746709702E-02
 1.023898274E-02 1.355931256E-02 6.232118310E-02
 8.370853961E-03 1.255179290E-02 9.868806369E-02
 6.690761074E-03 1.155531220E-02 1.363677926E-01
 5.139838904E-03 1.054462604E-02 2.157906895E-01
 3.150480567E-03 9.060354903E-03 3.113291314E-01
 1.477626385E-03 7.556289900E-03 4.078859654E-01
 9.659276839E-05 5.986099131E-03 6.381467092E-01
 -1.226603286E-03 3.832163988E-03 8.770729386E-01
 -1.827039290E-03 2.116499934E-03 1.039648291E+00
 -2.038119594E-03 7.344664773E-04 1.145325112E+00
 -1.989781857E-03 -9.358843672E-04 1.211624481E+00
 -1.547709340E-03 -2.880975837E-03 1.166880807E+00
 -5.620314623E-04 -5.114669446E-03 1.045602441E+00
 1.018134644E-03 -7.501479704E-03 8.848109624E-01
 3.188724630E-03 -9.966220707E-03 7.168505987E-01
 5.178771447E-03 -1.182217430E-02 5.775441706E-01
 7.449461147E-03 -1.366246119E-02 4.807925975E-01
 9.156724438E-03 -1.490787975E-02 3.967733371E-01
 1.127024274E-02 -1.632389426E-02 3.355584117E-01
 1.376092248E-02 -1.785512827E-02 2.648489806E-01
 1.707330532E-02 -1.970925741E-02 1.919164022E-01
 2.023283020E-02 -2.132070437E-02 1.204299284E-01
 2.427654527E-02 -2.321158722E-02 6.696441592E-02
 2.965258062E-02 -2.548694611E-02 4.306300415E-03
 3.537534550E-02 -2.768621966E-02 -5.827294143E-02
 4.240095243E-02 -3.011262976E-02 -1.071451532E-01
 4.982651398E-02 -3.244475275E-02 -1.519754481E-01
 5.852833390E-02 -3.493350372E-02 -1.913723728E-01
 6.718664616E-02 -3.718914464E-02 -2.301221130E-01
 7.749897987E-02 -3.963974863E-02 -2.576282919E-01
 8.719013631E-02 -4.177400097E-02 -2.800211948E-01
 9.783055633E-02 -4.393601045E-02 -3.136366027E-01
 1.089005396E-01 -4.601631314E-02 -3.323319976E-01
 1.205035225E-01 -4.804284126E-02 -3.538105860E-01
 1.320579499E-01 -4.992467538E-02 -3.775813479E-01
 1.424293369E-01 -5.150490999E-02 -3.986624648E-01
 1.535881162E-01 -5.309420079E-02 -4.123294193E-01
 1.653494239E-01 -5.467776954E-02 -4.395681103E-01
 1.768062115E-01 -5.610702932E-02 -4.606158168E-01
 1.883627474E-01 -5.744675919E-02 -4.755263783E-01
 1.988644451E-01 -5.859190598E-02 -4.994027185E-01
 2.099984586E-01 -5.971931666E-02 -5.199862629E-01
 2.219739258E-01 -6.083387136E-02 -5.357829060E-01
 2.339408994E-01 -6.186432019E-02 -5.633935928E-01
 2.457886338E-01 -6.278631836E-02 -5.906802203E-01
 2.579681277E-01 -6.363499165E-02 -6.169326753E-01
 2.689805031E-01 -6.429922581E-02 -6.308739226E-01
 2.813667357E-01 -6.497059762E-02 -6.535305326E-01
 2.935117781E-01 -6.552483886E-02 -7.007391990E-01
 3.061862886E-01 -6.595953554E-02 -7.279677368E-01
 3.177108765E-01 -6.625960022E-02 -7.421125213E-01
 3.300133049E-01 -6.647761911E-02 -7.625198266E-01
 3.404727280E-01 -6.655451655E-02 -7.849491694E-01
 3.519282937E-01 -6.655506790E-02 -8.088437249E-01
 3.628083467E-01 -6.643186510E-02 -8.339991827E-01
 3.735536039E-01 -6.622241437E-02 -8.436050702E-01
 3.853338361E-01 -6.589204818E-02 -8.753920857E-01
 3.980795145E-01 -6.537977606E-02 -8.861406935E-01
 4.102652669E-01 -6.475561112E-02 -7.197442737E-01
 4.231242537E-01 -6.394213438E-02 -5.533894044E-01
 4.354836941E-01 -6.304980069E-02 -5.542842799E-01
 4.484348893E-01 -6.199726090E-02 -5.562097429E-01
 4.608581066E-01 -6.084645167E-02 -5.066259921E-01
 4.731682241E-01 -5.960618705E-02 -4.635191066E-01
 4.852739275E-01 -5.828095227E-02 -4.225374889E-01
 4.974482954E-01 -5.685996637E-02 -3.806556812E-01
 5.109067559E-01 -5.518823490E-02 -3.306250661E-01
 5.244304538E-01 -5.344945565E-02 -2.956893153E-01
 5.371562839E-01 -5.172773451E-02 -2.539125261E-01
 5.506374836E-01 -4.986261204E-02 -2.197486023E-01
 5.636787415E-01 -4.801476002E-02 -1.924481771E-01
 5.768375397E-01 -4.604886472E-02 -1.420515634E-01
 5.896962881E-01 -4.416241497E-02 -1.236137349E-01
 6.023660302E-01 -4.224299639E-02 -8.839774610E-02
 6.156598926E-01 -4.021024704E-02 -5.459284210E-02
 6.297719479E-01 -3.808346391E-02 -3.370562747E-02
 6.438868642E-01 -3.593800217E-02 -8.657229724E-03
 6.572017074E-01 -3.389894962E-02 1.611140989E-02
 6.709206700E-01 -3.178838268E-02 4.262465364E-02
 6.837015152E-01 -2.982414514E-02 6.847933312E-02
 6.963870525E-01 -2.791676857E-02 8.322517326E-02
 7.113551497E-01 -2.564069442E-02 1.128368370E-01
 7.248282433E-01 -2.364625037E-02 1.275718174E-01
 7.365081310E-01 -2.191309258E-02 1.476435299E-01
 7.494814396E-01 -1.998183504E-02 1.754707957E-01
 7.627118826E-01 -1.810168475E-02 1.874780120E-01
 7.760669589E-01 -1.620989665E-02 2.101459949E-01
 7.887110114E-01 -1.446970459E-02 2.264594618E-01
 8.017846942E-01 -1.271323767E-02 2.425275766E-01
 8.127154708E-01 -1.124048606E-02 2.691404436E-01
 8.241146207E-01 -9.797851555E-03 2.807199219E-01
 8.365101218E-01 -8.287779987E-03 2.960343899E-01
 8.485895991E-01 -6.852529477E-03 3.188459646E-01
 8.607475758E-01 -5.511475727E-03 3.345304320E-01
 8.720120788E-01 -4.367272370E-03 3.471256515E-01
 8.833772540E-01 -3.284305800E-03 3.647139972E-01
 8.962573409E-01 -2.215628512E-03 3.728314543E-01
 9.062831402E-01 -1.476363046E-03 3.826495677E-01
 9.164324999E-01 -8.150014910E-04 3.934000522E-01
 9.262646437E-01 -2.915703226E-04 3.965801717E-01
 9.359647632E-01 1.162428744E-04 4.001165301E-01
 9.480957389E-01 5.018246593E-04 4.021456804E-01
 9.618151784E-01 7.563923136E-04 4.035097153E-01
 9.765375257E-01 8.272246341E-04 4.087766545E-01
 9.893952608E-01 7.190631586E-04 4.259469159E-01
 -5.000000000E-01 -1.000000000E+00 1.549507980E-02
 3.500000000E+00 -1.000000000E+00 5.412788911E-03
 3.500000000E+00 1.000000000E+00 -2.249819094E-02
 -5.000000000E-01 1.000000000E+00 1.440716839E-02
 9.931055903E-01 1.815979194E-03 3.174155088E-01
 9.802664220E-01 4.270389443E-03 2.008116591E-01
 9.668826461E-01 6.853043567E-03 1.335769960E-01
 9.528096616E-01 9.553906973E-03 7.951924703E-02
 9.399914742E-01 1.199203450E-02 3.149370386E-02
 9.283582568E-01 1.417623321E-02 -4.528405556E-03
 9.169880748E-01 1.628051978E-02 -4.994365857E-02
 9.053754210E-01 1.837451477E-02 -7.675240210E-02
 8.936945796E-01 2.043116838E-02 -1.253786695E-01
 8.815844357E-01 2.248212416E-02 -1.517262060E-01
 8.692723811E-01 2.445657924E-02 -1.678552970E-01
 8.569020629E-01 2.638035268E-02 -1.870891229E-01
 8.448662162E-01 2.820139099E-02 -2.051681920E-01
 8.332074583E-01 2.991694678E-02 -2.230839367E-01
 8.209508061E-01 3.166909516E-02 -2.419028285E-01
 8.079500794E-01 3.346325271E-02 -2.484086022E-01
 7.951997221E-01 3.518341109E-02 -2.609302379E-01
 7.828808129E-01 3.682858124E-02 -2.782660719E-01
 7.707716823E-01 3.842370212E-02 -3.141479898E-01
 7.581686974E-01 4.001367465E-02 -3.090912114E-01
 7.446892262E-01 4.167854413E-02 -3.423039303E-01
 7.322726548E-01 4.318016209E-02 -3.541520306E-01
 7.208884656E-01 4.450198635E-02 -3.678714216E-01
 7.091880441E-01 4.583842866E-02 -3.833875748E-01
 6.964908838E-01 4.724899679E-02 -4.079562444E-01
 6.831816137E-01 4.867763445E-02 -4.276862758E-01
 6.711519063E-01 4.991821945E-02 -4.423974384E-01
 6.597705483E-01 5.105535500E-02 -4.647829691E-01
 6.482342780E-01 5.216847360E-02 -4.899378542E-01
 6.364721060E-01 5.324530602E-02 -5.071755384E-01
 6.244949400E-01 5.428611673E-02 -5.243122970E-01
 6.132354140E-01 5.521250889E-02 -5.316665621E-01
 6.016494632E-01 5.612289533E-02 -5.631879941E-01
 5.894422233E-01 5.702833459E-02 -5.846186265E-01
 5.764441788E-01 5.790614896E-02 -5.912672706E-01
 5.629984438E-01 5.875011906E-02 -6.267659533E-01
 5.499830544E-01 5.948769301E-02 -6.372516672E-01
 5.378043056E-01 6.010284647E-02 -6.510443425E-01
 5.260559320E-01 6.063385308E-02 -6.665562989E-01
 5.134862661E-01 6.112400815E-02 -6.715737368E-01
 5.015285909E-01 6.153114699E-02 -6.990660144E-01
 4.894559532E-01 6.187300570E-02 -6.907319766E-01
 4.762880951E-01 6.215441041E-02 -6.632136154E-01
 4.627400190E-01 6.236730888E-02 -6.683712952E-01
 4.489443004E-01 6.251042336E-02 -6.656053953E-01
 4.356069714E-01 6.256213039E-02 -6.549824720E-01
 4.225670099E-01 6.253488734E-02 -6.446412697E-01
 4.098746628E-01 6.243906729E-02 -6.366976822E-01
 3.973200470E-01 6.226983853E-02 -6.179512464E-01
 3.849352747E-01 6.203720905E-02 -6.062110093E-01
 3.733294159E-01 6.176166236E-02 -5.935684039E-01
 3.611375839E-01 6.141231023E-02 -5.908961303E-01
 3.484450728E-01 6.097870693E-02 -5.689026248E-01
 3.361380845E-01 6.048708782E-02 -5.540173070E-01
 3.248164356E-01 5.999028124E-02 -5.494439347E-01
 3.136254102E-01 5.944034085E-02 -5.386973571E-01
 3.012718111E-01 5.877002142E-02 -5.294879473E-01
 2.881522924E-01 5.797558837E-02 -5.042006211E-01
 2.751765996E-01 5.712084100E-02 -4.955310346E-01
 2.631983906E-01 5.626741238E-02 -4.814814538E-01
 2.512115762E-01 5.534260347E-02 -4.639330129E-01
 2.387784272E-01 5.432073772E-02 -4.517908169E-01
 2.264119983E-01 5.323550478E-02 -4.423005023E-01
 2.144669294E-01 5.211106502E-02 -4.252809234E-01
 2.027980313E-01 5.094139837E-02 -4.102638802E-01
 1.908503845E-01 4.967409000E-02 -3.960503680E-01
 1.787975281E-01 4.831979983E-02 -3.834099810E-01
 1.669688076E-01 4.690634273E-02 -3.652191423E-01
 1.551068872E-01 4.540647939E-02 -3.502513427E-01
 1.436943486E-01 4.388411902E-02 -3.368630689E-01
 1.325606778E-01 4.230951704E-02 -3.202197057E-01
 1.212341227E-01 4.061607085E-02 -3.056059070E-01
 1.101633981E-01 3.886057250E-02 -2.916674357E-01
 8.937148377E-02 3.524841554E-02 -2.565934957E-01
 7.806508988E-02 3.308331221E-02 -2.315387127E-01
 6.730199605E-02 3.087119106E-02 -2.190708739E-01
 7.234281301E-02 -3.841444664E-02 -2.491893673E-01
 9.251034632E-02 -4.285500571E-02 -3.033685254E-01
 1.033655480E-01 -4.497616179E-02 -3.225001274E-01
 1.147020310E-01 -4.702957720E-02 -3.429098888E-01
 1.262807362E-01 -4.898375832E-02 -3.663669754E-01
 1.372436434E-01 -5.071479268E-02 -3.899135379E-01
 1.480087265E-01 -5.229955539E-02 -4.053743360E-01
 1.594687700E-01 -5.388598517E-02 -4.235562857E-01
 1.710778177E-01 -5.539239943E-02 -4.525438317E-01
 1.825844795E-01 -5.677689426E-02 -4.681933417E-01
 1.936135963E-01 -5.801933259E-02 -4.868334139E-01
 2.044314519E-01 -5.915561132E-02 -5.098892242E-01
 2.159861922E-01 -6.027659401E-02 -5.278811949E-01
 2.279574126E-01 -6.134909578E-02 -5.474891960E-01
 2.398647666E-01 -6.232531928E-02 -5.783568093E-01
 2.518783808E-01 -6.321065500E-02 -6.026083254E-01
 2.634743154E-01 -6.396710873E-02 -6.281829851E-01
 2.751736194E-01 -6.463491172E-02 -6.364858192E-01
 2.874392569E-01 -6.524771824E-02 -6.756095301E-01
 2.998490334E-01 -6.574218720E-02 -7.191200939E-01
 3.119485825E-01 -6.610956788E-02 -7.357856225E-01
 3.238620907E-01 -6.636860967E-02 -7.488235872E-01
 3.352430165E-01 -6.651606783E-02 -7.787286158E-01
 3.462005109E-01 -6.655479223E-02 -7.914982852E-01
 3.573683202E-01 -6.649346650E-02 -8.262081374E-01
 3.681809753E-01 -6.632713974E-02 -8.385682464E-01
 3.794437200E-01 -6.605723128E-02 -8.530588820E-01
 3.917066753E-01 -6.563591212E-02 -8.937802993E-01
 4.041723907E-01 -6.506769359E-02 -8.290899160E-01
 4.166947603E-01 -6.434887275E-02 -6.118514837E-01
 4.293039739E-01 -6.349596754E-02 -5.431356068E-01
 4.419592917E-01 -6.252353080E-02 -5.612306004E-01
 4.546464980E-01 -6.142185628E-02 -5.363440016E-01
 4.670131654E-01 -6.022631936E-02 -4.821946396E-01
 4.792210758E-01 -5.894356966E-02 -4.446193628E-01
 4.913611114E-01 -5.757045932E-02 -4.016569181E-01
 5.041775256E-01 -5.602410063E-02 -3.557643249E-01
 5.176686049E-01 -5.431884527E-02 -3.114767099E-01
 5.307933688E-01 -5.258859508E-02 -2.771236047E-01
 5.438968837E-01 -5.079517327E-02 -2.346811191E-01
 5.571581125E-01 -4.893868603E-02 -2.059802157E-01
 5.702581406E-01 -4.703181237E-02 -1.712551798E-01
 5.832669139E-01 -4.510563985E-02 -1.277628315E-01
 5.960311592E-01 -4.320270568E-02 -1.086995063E-01
 6.090129614E-01 -4.122662172E-02 -7.149524671E-02
 6.227159202E-01 -3.914685547E-02 -4.242749436E-02
 6.368294060E-01 -3.701073304E-02 -2.152166545E-02
 6.505442858E-01 -3.491847590E-02 3.550810030E-03
 6.640611887E-01 -3.284366615E-02 2.894384449E-02
 6.773110926E-01 -3.080626391E-02 5.551459186E-02
 6.900442839E-01 -2.887045685E-02 7.751627346E-02
 7.038711011E-01 -2.677873150E-02 9.565107472E-02
 7.180916965E-01 -2.464347240E-02 1.224343964E-01
 7.306681871E-01 -2.277967148E-02 1.366661550E-01
 7.429947853E-01 -2.094746381E-02 1.595057573E-01
 7.560966611E-01 -1.904175989E-02 1.837419112E-01
 7.693894207E-01 -1.715579070E-02 1.976794873E-01
 7.823889852E-01 -1.533980062E-02 2.191432618E-01
 7.952478528E-01 -1.359147113E-02 2.347291203E-01
 8.072500825E-01 -1.197686186E-02 2.541159191E-01
 8.184150457E-01 -1.051916881E-02 2.762189988E-01
 8.303123713E-01 -9.042815771E-03 2.881127555E-01
 8.425498605E-01 -7.570154732E-03 3.059697860E-01
 8.546685874E-01 -6.182002602E-03 3.273292977E-01
 8.663798273E-01 -4.939374048E-03 3.416830834E-01
 8.776946664E-01 -3.825789085E-03 3.543361347E-01
 8.898172975E-01 -2.749967156E-03 3.691519528E-01
 9.113578200E-01 -1.145682269E-03 3.894719716E-01
 9.420302510E-01 3.090337668E-04 3.998931272E-01
 9.549554586E-01 6.291084865E-04 4.017923163E-01
 9.691763520E-01 7.918084739E-04 4.045510740E-01
 9.829663932E-01 7.731438964E-04 4.158659863E-01
 9.946559966E-01 6.217925402E-04 4.757540664E-01
 -5.000000000E-01 9.500000000E-01 2.362651935E-02
 -5.000000000E-01 9.000000000E-01 3.571988685E-02
 -5.000000000E-01 8.500000000E-01 4.507278162E-02
 -5.000000000E-01 8.000000000E-01 5.311549183E-02
 -5.000000000E-01 7.500000000E-01 6.109319401E-02
 -5.000000000E-01 7.000000000E-01 6.875818717E-02
 -5.000000000E-01 6.500000000E-01 7.661257250E-02
 -5.000000000E-01 6.000000000E-01 8.474570042E-02
 -5.000000000E-01 5.500000000E-01 9.313295553E-02
 -5.000000000E-01 5.000000000E-01 1.015493999E-01
 -5.000000000E-01 4.500000000E-01 1.104167241E-01
 -5.000000000E-01 4.000000000E-01 1.190363984E-01
 -5.000000000E-01 3.500000000E-01 1.278714514E-01
 -5.000000000E-01 3.000000000E-01 1.363083226E-01
 -5.000000000E-01 2.500000000E-01 1.441647587E-01
 -5.000000000E-01 2.000000000E-01 1.512043192E-01
 -5.000000000E-01 1.500000000E-01 1.572226650E-01
 -5.000000000E-01 1.000000000E-01 1.617784348E-01
 -5.000000000E-01 5.000000000E-02 1.648136423E-01
 -5.000000000E-01 2.752242878E-12 1.661885139E-01
 -5.000000000E-01 -5.000000000E-02 1.655977859E-01
 -5.000000000E-01 -1.000000000E-01 1.633397281E-01
 -5.000000000E-01 -1.500000000E-01 1.594321425E-01
 -5.000000000E-01 -2.000000000E-01 1.539786862E-01
 -5.000000000E-01 -2.500000000E-01 1.474942055E-01
 -5.000000000E-01 -3.000000000E-01 1.399989011E-01
 -5.000000000E-01 -3.500000000E-01 1.318802222E-01
 -5.000000000E-01 -4.000000000E-01 1.233921600E-01
 -5.000000000E-01 -4.500000000E-01 1.147358032E-01
 -5.000000000E-01 -5.000000000E-01 1.060179552E-01
 -5.000000000E-01 -5.500000000E-01 9.740525557E-02
 -5.000000000E-01 -6.000000000E-01 8.893472594E-02
 -5.000000000E-01 -6.500000000E-01 8.080193003E-02
 -5.000000000E-01 -7.000000000E-01 7.267769261E-02
 -5.000000000E-01 -7.500000000E-01 6.462719255E-02
 -5.000000000E-01 -8.000000000E-01 5.643534304E-02
 -5.000000000E-01 -8.500000000E-01 4.782998707E-02
 -5.000000000E-01 -9.000000000E-01 3.806054887E-02
 -5.000000000E-01 -9.500000000E-01 2.520466296E-02
 -4.500000000E-01 -1.000000000E+00 2.085392569E-02
 -4.000000000E-01 -1.000000000E+00 3.096178317E-02
 -3.500000000E-01 -1.000000000E+00 3.728213046E-02
 -3.000000000E-01 -1.000000000E+00 4.115751377E-02
 -2.500000000E-01 -1.000000000E+00 4.349066439E-02
 -2.000000000E-01 -1.000000000E+00 4.402617181E-02
 -1.500000000E-01 -1.000000000E+00 4.311215754E-02
 -1.000000000E-01 -1.000000000E+00 4.051688143E-02
 -5.000000000E-02 -1.000000000E+00 3.620937221E-02
 -9.424683256E-13 -1.000000000E+00 3.034648768E-02
 5.000000000E-02 -1.000000000E+00 2.280468553E-02
 1.000000000E-01 -1.000000000E+00 1.411611914E-02
 1.500000000E-01 -1.000000000E+00 4.466168153E-03
 2.000000000E-01 -1.000000000E+00 -5.687152630E-03
 2.500000000E-01 -1.000000000E+00 -1.596730379E-02
 3.000000000E-01 -1.000000000E+00 -2.571261179E-02
 3.500000000E-01 -1.000000000E+00 -3.467714657E-02
 4.000000000E-01 -1.000000000E+00 -4.240132282E-02
 4.500000000E-01 -1.000000000E+00 -4.833102703E-02
 5.000000000E-01 -1.000000000E+00 -5.235333302E-02
 5.500000000E-01 -1.000000000E+00 -5.415699872E-02
 6.000000000E-01 -1.000000000E+00 -5.393224374E-02
 6.500000000E-01 -1.000000000E+00 -5.145921729E-02
 7.000000000E-01 -1.000000000E+00 -4.753495400E-02
 7.500000000E-01 -1.000000000E+00 -4.189996075E-02
 8.000000000E-01 -1.000000000E+00 -3.560635941E-02
 8.500000000E-01 -1.000000000E+00 -2.815622554E-02
 9.000000000E-01 -1.000000000E+00 -2.116623325E-02
 9.500000000E-01 -1.000000000E+00 -1.375614721E-02
 1.000000000E+00 -1.000000000E+00 -6.475017604E-03
 1.050000000E+00 -1.000000000E+00 3.283836975E-04
 1.100000000E+00 -1.000000000E+00 6.306094188E-03
 1.150000000E+00 -1.000000000E+00 1.156869502E-02
 1.200000000E+00 -1.000000000E+00 1.601021023E-02
 1.250000000E+00 -1.000000000E+00 1.969468244E-02
 1.300000000E+00 -1.000000000E+00 2.291131726E-02
 1.350000000E+00 -1.000000000E+00 2.521278322E-02
 1.400000000E+00 -1.000000000E+00 2.712356832E-02
 1.450000000E+00 -1.000000000E+00 2.837566917E-02
 1.500000000E+00 -1.000000000E+00 2.930357254E-02
 1.550000000E+00 -1.000000000E+00 2.986226687E-02
 1.600000000E+00 -1.000000000E+00 3.005117444E-02
 1.650000000E+00 -1.000000000E+00 3.011036122E-02
 1.700000000E+00 -1.000000000E+00 2.977455693E-02
 1.750000000E+00 -1.000000000E+00 2.947299397E-02
 1.800000000E+00 -1.000000000E+00 2.887564645E-02
 1.850000000E+00 -1.000000000E+00 2.833957360E-02
 1.900000000E+00 -1.000000000E+00 2.761532645E-02
 1.950000000E+00 -1.000000000E+00 2.694368725E-02
 2.000000000E+00 -1.000000000E+00 2.614322353E-02
 2.050000000E+00 -1.000000000E+00 2.539636584E-02
 2.100000000E+00 -1.000000000E+00 2.464892009E-02
 2.150000000E+00 -1.000000000E+00 2.385246099E-02
 2.200000000E+00 -1.000000000E+00 2.316093941E-02
 2.250000000E+00 -1.000000000E+00 2.244725234E-02
 2.300000000E+00 -1.000000000E+00 2.172384031E-02
 2.350000000E+00 -1.000000000E+00 2.106434168E-02
 2.400000000E+00 -1.000000000E+00 2.046832576E-02
 2.450000000E+00 -1.000000000E+00 1.981480066E-02
 2.500000000E+00 -1.000000000E+00 1.930873920E-02
 2.550000000E+00 -1.000000000E+00 1.872046737E-02
 2.600000000E+00 -1.000000000E+00 1.826844505E-02
 2.650000000E+00 -1.000000000E+00 1.783667280E-02
 2.700000000E+00 -1.000000000E+00 1.750261344E-02
 2.750000000E+00 -1.000000000E+00 1.713340855E-02
 2.800000000E+00 -1.000000000E+00 1.684885920E-02
 2.850000000E+00 -1.000000000E+00 1.655933569E-02
 2.900000000E+00 -1.000000000E+00 1.628757452E-02
 2.950000000E+00 -1.000000000E+00 1.609336676E-02
 3.000000000E+00 -1.000000000E+00 1.589944699E-02
 3.050000000E+00 -1.000000000E+00 1.575732464E-02
 3.100000000E+00 -1.000000000E+00 1.559175218E-02
 3.150000000E+00 -1.000000000E+00 1.540899542E-02
 3.200000000E+00 -1.000000000E+00 1.517175662E-02
 3.250000000E+00 -1.000000000E+00 1.491961632E-02
 3.300000000E+00 -1.000000000E+00 1.449313984E-02
 3.350000000E+00 -1.000000000E+00 1.383147052E-02
 3.400000000E+00 -1.000000000E+00 1.256754944E-02
 3.450000000E+00 -1.000000000E+00 9.610987092E-03
 3.500000000E+00 -9.500000000E-01 3.593230442E-03
 3.500000000E+00 -9.000000000E-01 5.985752124E-03
 3.500000000E+00 -8.500000000E-01 7.987567505E-03
 3.500000000E+00 -8.000000000E-01 9.700022266E-03
 3.500000000E+00 -7.500000000E-01 1.107854253E-02
 3.500000000E+00 -7.000000000E-01 1.240102353E-02
 3.500000000E+00 -6.500000000E-01 1.365023122E-02
 3.500000000E+00 -6.000000000E-01 1.500380494E-02
 3.500000000E+00 -5.500000000E-01 1.648073544E-02
 3.500000000E+00 -5.000000000E-01 1.803469679E-02
 3.500000000E+00 -4.500000000E-01 1.954627075E-02
 3.500000000E+00 -4.000000000E-01 2.104001593E-02
 3.500000000E+00 -3.500000000E-01 2.250430664E-02
 3.500000000E+00 -3.000000000E-01 2.397097696E-02
 3.500000000E+00 -2.500000000E-01 2.511129564E-02
 3.500000000E+00 -2.000000000E-01 2.568381915E-02
 3.500000000E+00 -1.500000000E-01 2.579372052E-02
 3.500000000E+00 -1.000000000E-01 2.547785501E-02
 3.500000000E+00 -5.000000000E-02 2.526375068E-02
 3.500000000E+00 -2.752242878E-12 2.531489513E-02
 3.500000000E+00 5.000000000E-02 2.551173724E-02
 3.500000000E+00 1.000000000E-01 2.559621843E-02
 3.500000000E+00 1.500000000E-01 2.511473164E-02
 3.500000000E+00 2.000000000E-01 2.408577891E-02
 3.500000000E+00 2.500000000E-01 2.268608686E-02
 3.500000000E+00 3.000000000E-01 2.111789252E-02
 3.500000000E+00 3.500000000E-01 1.957041690E-02
 3.500000000E+00 4.000000000E-01 1.807460073E-02
 3.500000000E+00 4.500000000E-01 1.654639797E-02
 3.500000000E+00 5.000000000E-01 1.499472468E-02
 3.500000000E+00 5.500000000E-01 1.354031253E-02
 3.500000000E+00 6.000000000E-01 1.246167629E-02
 3.500000000E+00 6.500000000E-01 1.195468253E-02
 3.500000000E+00 7.000000000E-01 1.134781607E-02
 3.500000000E+00 7.500000000E-01 9.685660113E-03
 3.500000000E+00 8.000000000E-01 5.296784945E-03
 3.500000000E+00 8.500000000E-01 -3.149861358E-03
 3.500000000E+00 9.000000000E-01 -1.432870946E-02
 3.500000000E+00 9.500000000E-01 -2.551796852E-02
 3.450000000E+00 1.000000000E+00 -1.023573300E-02
 3.400000000E+00 1.000000000E+00 -2.155917495E-03
 3.350000000E+00 1.000000000E+00 3.236204359E-04
 3.300000000E+00 1.000000000E+00 7.322500053E-04
 3.250000000E+00 1.000000000E+00 6.510490518E-04
 3.200000000E+00 1.000000000E+00 1.055848509E-04
 3.150000000E+00 1.000000000E+00 -3.873674085E-04
 3.100000000E+00 1.000000000E+00 -1.311864266E-03
 3.050000000E+00 1.000000000E+00 -1.968411300E-03
 3.000000000E+00 1.000000000E+00 -2.815301799E-03
 2.950000000E+00 1.000000000E+00 -3.670982268E-03
 2.900000000E+00 1.000000000E+00 -4.554560850E-03
 2.850000000E+00 1.000000000E+00 -5.656958378E-03
 2.800000000E+00 1.000000000E+00 -6.523403259E-03
 2.750000000E+00 1.000000000E+00 -7.628313679E-03
 2.700000000E+00 1.000000000E+00 -8.742589969E-03
 2.650000000E+00 1.000000000E+00 -9.721765899E-03
 2.600000000E+00 1.000000000E+00 -1.101532639E-02
 2.550000000E+00 1.000000000E+00 -1.195905957E-02
 2.500000000E+00 1.000000000E+00 -1.327497032E-02
 2.450000000E+00 1.000000000E+00 -1.430175766E-02
 2.400000000E+00 1.000000000E+00 -1.568550101E-02
 2.350000000E+00 1.000000000E+00 -1.709596811E-02
 2.300000000E+00 1.000000000E+00 -1.868797990E-02
 2.250000000E+00 1.000000000E+00 -2.015097779E-02
 2.200000000E+00 1.000000000E+00 -2.203449601E-02
 2.150000000E+00 1.000000000E+00 -2.353428717E-02
 2.100000000E+00 1.000000000E+00 -2.556889969E-02
 2.050000000E+00 1.000000000E+00 -2.738431223E-02
 2.000000000E+00 1.000000000E+00 -2.960973121E-02
 1.950000000E+00 1.000000000E+00 -3.168393163E-02
 1.900000000E+00 1.000000000E+00 -3.437105719E-02
 1.850000000E+00 1.000000000E+00 -3.693092474E-02
 1.800000000E+00 1.000000000E+00 -3.992235631E-02
 1.750000000E+00 1.000000000E+00 -4.346205909E-02
 1.700000000E+00 1.000000000E+00 -4.681690772E-02
 1.650000000E+00 1.000000000E+00 -5.067574514E-02
 1.600000000E+00 1.000000000E+00 -5.488877998E-02
 1.550000000E+00 1.000000000E+00 -5.913024655E-02
 1.500000000E+00 1.000000000E+00 -6.424379840E-02
 1.450000000E+00 1.000000000E+00 -6.972871060E-02
 1.400000000E+00 1.000000000E+00 -7.524574969E-02
 1.350000000E+00 1.000000000E+00 -8.161197201E-02
 1.300000000E+00 1.000000000E+00 -8.816732275E-02
 1.250000000E+00 1.000000000E+00 -9.538182753E-02
 1.200000000E+00 1.000000000E+00 -1.025912117E-01
 1.150000000E+00 1.000000000E+00 -1.099024817E-01
 1.100000000E+00 1.000000000E+00 -1.171936009E-01
 1.050000000E+00 1.000000000E+00 -1.237466033E-01
 1.000000000E+00 1.000000000E+00 -1.299547198E-01
 9.500000000E-01 1.000000000E+00 -1.354010486E-01
 9.000000000E-01 1.000000000E+00 -1.394594463E-01
 8.500000000E-01 1.000000000E+00 -1.413434811E-01
 8.000000000E-01 1.000000000E+00 -1.423347530E-01
 7.500000000E-01 1.000000000E+00 -1.399355856E-01
 7.000000000E-01 1.000000000E+00 -1.365346436E-01
 6.500000000E-01 1.000000000E+00 -1.303631454E-01
 6.000000000E-01 1.000000000E+00 -1.220471592E-01
 5.500000000E-01 1.000000000E+00 -1.123817929E-01
 5.000000000E-01 1.000000000E+00 -1.003805619E-01
 4.500000000E-01 1.000000000E+00 -8.780043422E-02
 4.000000000E-01 1.000000000E+00 -7.447032916E-02
 3.500000000E-01 1.000000000E+00 -5.984508804E-02
 3.000000000E-01 1.000000000E+00 -4.570962885E-02
 2.500000000E-01 1.000000000E+00 -3.144186204E-02
 2.000000000E-01 1.000000000E+00 -1.813879546E-02
 1.500000000E-01 1.000000000E+00 -5.718218386E-03
 1.000000000E-01 1.000000000E+00 5.555977853E-03
 5.000000000E-02 1.000000000E+00 1.561492223E-02
 1.733724275E-12 1.000000000E+00 2.400165599E-02
 -5.000000000E-02 1.000000000E+00 3.069853346E-02
 -1.000000000E-01 1.000000000E+00 3.563894932E-02
 -1.500000000E-01 1.000000000E+00 3.881823685E-02
 -2.000000000E-01 1.000000000E+00 4.031221502E-02
 -2.500000000E-01 1.000000000E+00 4.009164673E-02
 -3.000000000E-01 1.000000000E+00 3.825306083E-02
 -3.500000000E-01 1.000000000E+00 3.472301573E-02
 -4.000000000E-01 1.000000000E+00 2.891311990E-02
 -4.500000000E-01 1.000000000E+00 1.945011891E-02
 8.867836223E-01 -8.431859528E-03 3.585864919E-01
 8.058773874E-01 -1.799795871E-02 2.483553204E-01
 7.343386384E-01 -2.740392179E-02 1.408904972E-01
 9.801874866E-01 -5.233973249E-03 4.015960512E-01
 6.686105118E-01 -3.815297881E-02 3.652610954E-02
 6.003066354E-01 -4.861270234E-02 -9.551280035E-02
 5.339321289E-01 -5.708139110E-02 -2.643249862E-01
 4.765796262E-01 -6.398959392E-02 -4.460452323E-01
 4.212147903E-01 -6.880586971E-02 -5.538416256E-01
 3.659041887E-01 -7.126213459E-02 -8.256200055E-01
 3.082427172E-01 -7.106009491E-02 -7.211951814E-01
 2.543702029E-01 -6.856476704E-02 -5.986637313E-01
 1.960996976E-01 -6.333471819E-02 -4.843906204E-01