TITLE     = "Visualization of the solution"
VARIABLES = "x"
"y"
"Pressure_Coefficient"
ZONE T="Zone"
 STRANDID=0, SOLUTIONTIME=0
 Nodes=11893, Elements=23208, ZONETYPE=FEQuadrilateral
 DATAPACKING=POINT
 DT=(DOUBLE DOUBLE DOUBLE )
 1.000249624E+00 5.284959334E-04 3.176825229E-01
 9.889003038E-01 2.596295672E-03 2.224211838E-01
 9.777961969E-01 4.657158628E-03 1.488891455E-01
 9.648980498E-01 7.043168880E-03 8.446430073E-02
 9.518580437E-01 9.388302453E-03 4.249849190E-02
 9.391279221E-01 1.167505514E-02 -1.099727041E-03
 9.283494353E-01 1.360317506E-02 -4.570564844E-02
 9.161807299E-01 1.572636142E-02 -9.341625475E-02
 9.045195580E-01 1.765224710E-02 -1.187581875E-01
 8.923007846E-01 1.961972378E-02 -1.522286039E-01
 8.802382946E-01 2.149505727E-02 -1.901989218E-01
 8.681060076E-01 2.324296720E-02 -1.996337411E-01
 8.547623754E-01 2.507425100E-02 -2.045930664E-01
 8.428938389E-01 2.667270973E-02 -2.182125245E-01
 8.308152556E-01 2.825922519E-02 -2.318070048E-01
 8.172480464E-01 2.999853343E-02 -2.499050222E-01
 8.037409186E-01 3.165952489E-02 -2.574466011E-01
 7.912458181E-01 3.317067400E-02 -2.704695573E-01
 7.783177495E-01 3.470586985E-02 -2.880637678E-01
 7.654508948E-01 3.618076816E-02 -2.968635706E-01
 7.516937852E-01 3.772528097E-02 -3.082442229E-01
 7.372282743E-01 3.933521360E-02 -3.344978356E-01
 7.260664701E-01 4.053590447E-02 -3.498799760E-01
 7.146884799E-01 4.172010720E-02 -3.615876310E-01
 7.027008533E-01 4.294585809E-02 -3.812861371E-01
 6.885853410E-01 4.431812838E-02 -3.894652349E-01
 6.750448346E-01 4.559699446E-02 -4.134086855E-01
 6.650313735E-01 4.653185233E-02 -4.304319895E-01
 6.532683969E-01 4.756747559E-02 -4.457735552E-01
 6.418702006E-01 4.853074998E-02 -4.590154638E-01
 6.296954751E-01 4.951922223E-02 -4.811284484E-01
 6.185944080E-01 5.037771910E-02 -4.991275411E-01
 6.072516441E-01 5.119040981E-02 -5.041820059E-01
 5.942114592E-01 5.208620057E-02 -5.276638161E-01
 5.822950006E-01 5.284539983E-02 -5.409095388E-01
 5.686462522E-01 5.363715068E-02 -5.544375876E-01
 5.561178327E-01 5.431034416E-02 -5.770008106E-01
 5.437176824E-01 5.490402505E-02 -5.882561035E-01
 5.328350067E-01 5.535554141E-02 -5.887145653E-01
 5.209927559E-01 5.580887571E-02 -5.984761358E-01
 5.080362558E-01 5.621727556E-02 -6.044787027E-01
 4.970814586E-01 5.652188510E-02 -6.131511890E-01
 4.838073254E-01 5.679973960E-02 -6.040033283E-01
 4.706633091E-01 5.699286982E-02 -5.889546116E-01
 4.564380646E-01 5.713606253E-02 -5.900155659E-01
 4.427030683E-01 5.720499530E-02 -5.907694329E-01
 4.297308624E-01 5.718096346E-02 -5.792594909E-01
 4.167397022E-01 5.709761754E-02 -5.755939228E-01
 4.045494795E-01 5.694700032E-02 -5.630652335E-01
 3.924995959E-01 5.673736334E-02 -5.482525767E-01
 3.803403080E-01 5.646774173E-02 -5.373484120E-01
 3.692760766E-01 5.617938191E-02 -5.298614777E-01
 3.563095629E-01 5.578062311E-02 -5.191899253E-01
 3.443422318E-01 5.534138158E-02 -5.027837705E-01
 3.321480751E-01 5.486053601E-02 -5.019647570E-01
 3.214094639E-01 5.436922237E-02 -4.863040906E-01
 3.091223240E-01 5.376323313E-02 -4.754134636E-01
 2.957857549E-01 5.302504823E-02 -4.550218563E-01
 2.818849087E-01 5.219550803E-02 -4.446386538E-01
 2.689852715E-01 5.136927590E-02 -4.387676518E-01
 2.567410469E-01 5.050109699E-02 -4.196107047E-01
 2.438889891E-01 4.954162613E-02 -4.101182748E-01
 2.309740335E-01 4.849803448E-02 -3.942411292E-01
 2.185522318E-01 4.742689431E-02 -3.792702049E-01
 2.068830281E-01 4.637042060E-02 -3.701046740E-01
 1.956679076E-01 4.529243708E-02 -3.565042284E-01
 1.833630800E-01 4.404680431E-02 -3.443949645E-01
 1.713984460E-01 4.276311770E-02 -3.317319989E-01
 1.599313617E-01 4.146378860E-02 -3.171335524E-01
 1.479091197E-01 4.002941027E-02 -3.070835844E-01
 1.371710896E-01 3.867428377E-02 -2.940598808E-01
 1.256988645E-01 3.713737056E-02 -2.762003807E-01
 1.141160578E-01 3.550350294E-02 -2.642052489E-01
 1.033039913E-01 3.388570249E-02 -2.471611199E-01
 9.337215871E-02 3.230906650E-02 -2.348739306E-01
 8.199752867E-02 3.038905375E-02 -2.179464232E-01
 6.977712363E-02 2.815503068E-02 -1.974494918E-01
 5.995120108E-02 2.621231228E-02 -1.785597504E-01
 5.009437352E-02 2.408855781E-02 -1.560891020E-01
 4.137311876E-02 2.202338725E-02 -1.356245524E-01
 3.402443975E-02 2.011789382E-02 -1.116196044E-01
 2.776035480E-02 1.831925288E-02 -8.117639294E-02
 2.234961838E-02 1.659739204E-02 -5.631070015E-02
 1.857218705E-02 1.528180111E-02 -2.071260214E-02
 1.506222412E-02 1.392939128E-02 5.717208019E-03
 1.254633442E-02 1.287454180E-02 4.295664356E-02
 1.027217973E-02 1.182438061E-02 8.256402614E-02
 8.591606282E-03 1.098537538E-02 1.140680473E-01
 7.077170536E-03 1.016443036E-02 1.454528694E-01
 5.650757346E-03 9.322544560E-03 2.185634297E-01
 3.732322017E-03 8.037378080E-03 3.075089671E-01
 2.066275803E-03 6.719319150E-03 4.106367755E-01
 6.261466770E-04 5.306800362E-03 6.115525154E-01
 -7.607617299E-04 3.426884999E-03 8.489338048E-01
 -1.460692147E-03 1.891244319E-03 1.013034074E+00
 -1.746592694E-03 6.869428325E-04 1.146070846E+00
 -1.799181686E-03 -7.064237725E-04 1.191306466E+00
 -1.507047215E-03 -2.290409990E-03 1.126618285E+00
 -7.324623875E-04 -4.115756601E-03 9.888345252E-01
 6.023281021E-04 -6.053763442E-03 7.921049293E-01
 2.549400553E-03 -8.084231988E-03 6.049118865E-01
 4.269677214E-03 -9.525265545E-03 4.508387762E-01
 6.381584331E-03 -1.103595924E-02 3.608045245E-01
 7.929712534E-03 -1.201803051E-02 2.751209345E-01
 9.925364517E-03 -1.317437179E-02 2.248686863E-01
 1.225042250E-02 -1.439841185E-02 1.600746059E-01
 1.548774447E-02 -1.592913643E-02 1.020853397E-01
 1.856316999E-02 -1.724428684E-02 4.142432656E-02
 2.256327868E-02 -1.881194301E-02 -2.221736787E-03
 2.800775319E-02 -2.071374655E-02 -4.171625716E-02
 3.377289325E-02 -2.253388613E-02 -8.751717151E-02
 4.142412543E-02 -2.469354495E-02 -1.196433688E-01
 4.904945567E-02 -2.664463595E-02 -1.511834122E-01
 5.820932239E-02 -2.876380458E-02 -1.738576741E-01
 6.703703105E-02 -3.063947149E-02 -1.961593044E-01
 7.745000720E-02 -3.267386928E-02 -2.157285946E-01
 8.761984855E-02 -3.452123329E-02 -2.368337353E-01
 9.799879044E-02 -3.626520932E-02 -2.495162683E-01
 1.088875905E-01 -3.798751906E-02 -2.664229858E-01
 1.203636155E-01 -3.968711570E-02 -2.827723226E-01
 1.318365335E-01 -4.128268361E-02 -2.998676674E-01
 1.425960809E-01 -4.268837720E-02 -3.136944911E-01
 1.538159847E-01 -4.407896474E-02 -3.295840843E-01
 1.660114229E-01 -4.550006241E-02 -3.461980432E-01
 1.778598130E-01 -4.679801688E-02 -3.626605525E-01
 1.898862123E-01 -4.803691059E-02 -3.806532085E-01
 2.005114406E-01 -4.906234518E-02 -3.959591777E-01
 2.119682878E-01 -5.011074618E-02 -4.164758489E-01
 2.244049162E-01 -5.116247386E-02 -4.371917716E-01
 2.371486872E-01 -5.214393511E-02 -4.526203872E-01
 2.497062534E-01 -5.302906036E-02 -4.708958407E-01
 2.627222836E-01 -5.387154967E-02 -4.993195724E-01
 2.739438713E-01 -5.450735614E-02 -5.220206027E-01
 2.869025171E-01 -5.515400693E-02 -5.426013086E-01
 2.998906672E-01 -5.568442121E-02 -5.594734389E-01
 3.125756383E-01 -5.610806122E-02 -5.785327067E-01
 3.242596090E-01 -5.640767142E-02 -6.036776035E-01
 3.365717828E-01 -5.661322176E-02 -6.166684408E-01
 3.472291231E-01 -5.671033263E-02 -6.369999962E-01
 3.583880067E-01 -5.671253428E-02 -6.444118821E-01
 3.693796694E-01 -5.662377924E-02 -6.507161739E-01
 3.798754811E-01 -5.644321814E-02 -6.483210888E-01
 3.909442723E-01 -5.615440384E-02 -6.317303665E-01
 4.036056697E-01 -5.571271479E-02 -6.194400904E-01
 4.156067371E-01 -5.515111983E-02 -5.954033731E-01
 4.286965728E-01 -5.440751463E-02 -5.576590145E-01
 4.413848519E-01 -5.354247615E-02 -5.195052981E-01
 4.539334178E-01 -5.256953090E-02 -4.816253810E-01
 4.660366476E-01 -5.151763558E-02 -4.418736664E-01
 4.785549343E-01 -5.034349859E-02 -4.136945771E-01
 4.896852374E-01 -4.918165877E-02 -3.704534495E-01
 5.020791888E-01 -4.780969396E-02 -3.238985990E-01
 5.158933401E-01 -4.620803520E-02 -2.877754572E-01
 5.297981501E-01 -4.450072721E-02 -2.467595405E-01
 5.434548259E-01 -4.274268821E-02 -2.036916859E-01
 5.571450591E-01 -4.093290865E-02 -1.674551082E-01
 5.698866844E-01 -3.920270875E-02 -1.333136476E-01
 5.833806992E-01 -3.735221922E-02 -1.044273170E-01
 5.950236917E-01 -3.571208939E-02 -7.037358556E-02
 6.073459983E-01 -3.400708735E-02 -5.275261578E-02
 6.209432483E-01 -3.207739443E-02 -2.048015501E-02
 6.352881193E-01 -3.004668839E-02 6.749959351E-03
 6.494395137E-01 -2.804531343E-02 3.252849778E-02
 6.627482772E-01 -2.617172711E-02 5.582206704E-02
 6.762724519E-01 -2.426991425E-02 8.212433017E-02
 6.891283393E-01 -2.251463011E-02 9.592866168E-02
 7.016855478E-01 -2.079808339E-02 1.159488686E-01
 7.159481049E-01 -1.884900033E-02 1.428547805E-01
 7.292404175E-01 -1.711886935E-02 1.524052741E-01
 7.408478260E-01 -1.558857504E-02 1.757176836E-01
 7.532314658E-01 -1.400458626E-02 1.905020031E-01
 7.655364871E-01 -1.246974710E-02 2.050205088E-01
 7.779148817E-01 -1.092632394E-02 2.293024901E-01
 7.895959616E-01 -9.545631707E-03 2.424548063E-01
 8.019557595E-01 -8.132161573E-03 2.592197525E-01
 8.133710623E-01 -6.897761486E-03 2.696850370E-01
 8.249722123E-01 -5.678732879E-03 2.850196719E-01
 8.373854756E-01 -4.431386013E-03 3.030623853E-01
 8.494453430E-01 -3.303429112E-03 3.182943352E-01
 8.616113067E-01 -2.273674821E-03 3.295467617E-01
 8.737524748E-01 -1.338303438E-03 3.431464973E-01
 8.859832883E-01 -5.146161420E-04 3.540357817E-01
 8.996789455E-01 2.376836055E-04 3.585958823E-01
 9.095776081E-01 6.977216108E-04 3.660286274E-01
 9.194866419E-01 1.057567773E-03 3.704953033E-01
 9.288599491E-01 1.304140082E-03 3.710683098E-01
 9.377634525E-01 1.462172484E-03 3.714067073E-01
 9.502261281E-01 1.566890976E-03 3.702336407E-01
 9.631368518E-01 1.528247842E-03 3.694549314E-01
 9.777028561E-01 1.313184388E-03 3.717512918E-01
 9.901044965E-01 9.621195495E-04 3.829402287E-01
 -5.000000000E-01 -1.000000000E+00 1.331208182E-02
 3.500000000E+00 -1.000000000E+00 5.965859607E-03
 3.500000000E+00 1.000000000E+00 -2.117483659E-02
 -5.000000000E-01 1.000000000E+00 1.198110336E-02
 9.945749640E-01 1.562395802E-03 2.978798203E-01
 9.833482504E-01 3.626727150E-03 1.821027362E-01
 9.713471234E-01 5.850163754E-03 1.130971044E-01
 9.583780468E-01 8.215735666E-03 6.381730802E-02
 9.454929829E-01 1.053167880E-02 2.090629626E-02
 9.337386787E-01 1.263911510E-02 -2.421167380E-02
 9.222650826E-01 1.466476824E-02 -7.249191872E-02
 9.103501439E-01 1.668930426E-02 -1.053221395E-01
 8.984101713E-01 1.863598544E-02 -1.343441938E-01
 8.862695396E-01 2.055739053E-02 -1.751517332E-01
 8.741721511E-01 2.236901224E-02 -1.961845814E-01
 8.614341915E-01 2.415860910E-02 -1.997264074E-01
 8.488281071E-01 2.587348036E-02 -2.114549567E-01
 8.368545473E-01 2.746596746E-02 -2.245162265E-01
 8.240316510E-01 2.912887931E-02 -2.423968445E-01
 8.104944825E-01 3.082902916E-02 -2.526534816E-01
 7.974933684E-01 3.241509944E-02 -2.630005229E-01
 7.847817838E-01 3.393827192E-02 -2.805768980E-01
 7.718843222E-01 3.544331901E-02 -2.925692642E-01
 7.585723400E-01 3.695302457E-02 -3.005360991E-01
 7.444610298E-01 3.853024729E-02 -3.215100424E-01
 7.316473722E-01 3.993555903E-02 -3.438878816E-01
 7.203774750E-01 4.112800583E-02 -3.537040300E-01
 7.086946666E-01 4.233298264E-02 -3.738709619E-01
 6.956430972E-01 4.363199323E-02 -3.854716767E-01
 6.818150878E-01 4.495756142E-02 -3.954777836E-01
 6.591498852E-01 4.704966396E-02 -4.391795055E-01
 6.475692987E-01 4.804911278E-02 -4.518094553E-01
 6.357828379E-01 4.902498610E-02 -4.688594882E-01
 6.241449416E-01 4.994847067E-02 -4.934688919E-01
 6.129230261E-01 5.078406446E-02 -4.997137514E-01
 6.007315516E-01 5.163830519E-02 -5.156130323E-01
 5.882532299E-01 5.246580020E-02 -5.368420578E-01
 5.754706264E-01 5.324127525E-02 -5.451963486E-01
 5.623820424E-01 5.397374742E-02 -5.665232880E-01
 5.499177575E-01 5.460718460E-02 -5.850997253E-01
 5.382763445E-01 5.512978323E-02 -5.855730634E-01
 5.269138813E-01 5.558220856E-02 -5.969800400E-01
 5.145145059E-01 5.601307563E-02 -5.977069579E-01
 5.025588572E-01 5.636958033E-02 -6.129211822E-01
 4.904443920E-01 5.666081235E-02 -6.102107587E-01
 4.772353172E-01 5.689630471E-02 -5.950271681E-01
 4.635506868E-01 5.706446618E-02 -5.876116215E-01
 4.495705664E-01 5.717052892E-02 -5.930849557E-01
 4.362169653E-01 5.719297938E-02 -5.834601816E-01
 4.232352823E-01 5.713929050E-02 -5.781995833E-01
 4.106445909E-01 5.702230893E-02 -5.695994791E-01
 3.985245377E-01 5.684218183E-02 -5.558247198E-01
 3.864199519E-01 5.660255253E-02 -5.410644476E-01
 3.748081923E-01 5.632356182E-02 -5.343874857E-01
 3.627928197E-01 5.598000251E-02 -5.263980202E-01
 3.503258973E-01 5.556100234E-02 -5.076596549E-01
 3.382451534E-01 5.510095879E-02 -5.044697435E-01
 3.267787695E-01 5.461487919E-02 -4.930470082E-01
 3.152658939E-01 5.406622775E-02 -4.832111087E-01
 3.024540395E-01 5.339414068E-02 -4.646413398E-01
 2.888353318E-01 5.261027813E-02 -4.477946979E-01
 2.754350901E-01 5.178239197E-02 -4.441343837E-01
 2.628631592E-01 5.093518645E-02 -4.275566044E-01
 2.503150180E-01 5.002136156E-02 -4.158241146E-01
 2.374315113E-01 4.901983030E-02 -4.025231941E-01
 2.247631326E-01 4.796246439E-02 -3.855569871E-01
 2.127176300E-01 4.689865746E-02 -3.750169846E-01
 2.012754679E-01 4.583142884E-02 -3.636393486E-01
 1.895154938E-01 4.466962069E-02 -3.506855501E-01
 1.773807630E-01 4.340496100E-02 -3.378106856E-01
 1.656649038E-01 4.211345315E-02 -3.247651882E-01
 1.539202407E-01 4.074659944E-02 -3.113175318E-01
 1.425401047E-01 3.935184702E-02 -3.021920529E-01
 1.314349771E-01 3.790582716E-02 -2.850242030E-01
 1.199074611E-01 3.632043675E-02 -2.694503830E-01
 1.087100245E-01 3.469460271E-02 -2.587909295E-01
 8.768484369E-02 3.134906013E-02 -2.290478231E-01
 7.588732615E-02 2.927204221E-02 -2.090706609E-01
 7.224351913E-02 -3.165667038E-02 -2.094362956E-01
 8.253492787E-02 -3.359755129E-02 -2.261892572E-01
 9.280931950E-02 -3.539322130E-02 -2.448854396E-01
 1.034431905E-01 -3.712636419E-02 -2.570772736E-01
 1.146256030E-01 -3.883731738E-02 -2.750281333E-01
 1.261000745E-01 -4.048489965E-02 -2.914399000E-01
 1.372163072E-01 -4.198553041E-02 -3.080242581E-01
 1.482060328E-01 -4.338367097E-02 -3.208089970E-01
 1.599137038E-01 -4.478951357E-02 -3.377375699E-01
 1.719356179E-01 -4.614903964E-02 -3.547817526E-01
 1.838730127E-01 -4.741746373E-02 -3.714279527E-01
 1.951988265E-01 -4.854962789E-02 -3.897396275E-01
 2.062398642E-01 -4.958654568E-02 -4.041871767E-01
 2.181866020E-01 -5.063661002E-02 -4.272606479E-01
 2.307768017E-01 -5.165320449E-02 -4.454632300E-01
 2.434274703E-01 -5.258649774E-02 -4.613133106E-01
 2.562142685E-01 -5.345030501E-02 -4.831113896E-01
 2.683330774E-01 -5.418945290E-02 -5.138778274E-01
 2.804231942E-01 -5.483068153E-02 -5.293368262E-01
 2.933965921E-01 -5.541921407E-02 -5.534382570E-01
 3.062331527E-01 -5.589624122E-02 -5.672254985E-01
 3.184176236E-01 -5.625786632E-02 -5.921684117E-01
 3.304156959E-01 -5.651044659E-02 -6.108263339E-01
 3.419004530E-01 -5.666177720E-02 -6.267793701E-01
 3.528085649E-01 -5.671143346E-02 -6.424277921E-01
 3.638838381E-01 -5.666815676E-02 -6.470257025E-01
 3.746275753E-01 -5.653349869E-02 -6.519112340E-01
 3.854098767E-01 -5.629881099E-02 -6.405316022E-01
 3.972749710E-01 -5.593355931E-02 -6.230806042E-01
 4.096062034E-01 -5.543191731E-02 -6.119165554E-01
 4.221516550E-01 -5.477931723E-02 -5.749881947E-01
 4.350407124E-01 -5.397499539E-02 -5.404274550E-01
 4.476591349E-01 -5.305600353E-02 -5.000446918E-01
 4.599850327E-01 -5.204358324E-02 -4.628970169E-01
 4.722957909E-01 -5.093056709E-02 -4.250961415E-01
 4.841200858E-01 -4.976257868E-02 -3.972235761E-01
 4.958822131E-01 -4.849567637E-02 -3.453174872E-01
 5.089862645E-01 -4.700886458E-02 -3.050242007E-01
 5.228457451E-01 -4.535438120E-02 -2.685285823E-01
 5.366264880E-01 -4.362170771E-02 -2.254903882E-01
 5.502999425E-01 -4.183779843E-02 -1.852101802E-01
 5.635158718E-01 -4.006780870E-02 -1.512285775E-01
 5.766336918E-01 -3.827746399E-02 -1.178398688E-01
 5.892021954E-01 -3.653215431E-02 -8.905371219E-02
 6.011848450E-01 -3.485958837E-02 -5.888775895E-02
 6.141446233E-01 -3.304224089E-02 -3.889225861E-02
 6.281156838E-01 -3.106204141E-02 -6.169341612E-03
 6.423638165E-01 -2.904600091E-02 1.974411663E-02
 6.560938954E-01 -2.710852027E-02 4.432985676E-02
 6.695103645E-01 -2.522082068E-02 6.825468614E-02
 6.827003956E-01 -2.339227218E-02 9.108527073E-02
 6.954069436E-01 -2.165635675E-02 1.048248620E-01
 7.088168263E-01 -1.982354186E-02 1.277850895E-01
 7.225942612E-01 -1.798393484E-02 1.504961350E-01
 7.350441217E-01 -1.635372220E-02 1.620400131E-01
 7.470396459E-01 -1.479658065E-02 1.836709139E-01
 7.593839765E-01 -1.323716668E-02 1.981883053E-01
 7.717256844E-01 -1.169803552E-02 2.154652955E-01
 7.837554216E-01 -1.023597782E-02 2.374297739E-01
 7.957758605E-01 -8.838896640E-03 2.501519257E-01
 8.076634109E-01 -7.514961530E-03 2.657656943E-01
 8.191716373E-01 -6.288247183E-03 2.763329818E-01
 8.311788440E-01 -5.055059446E-03 2.928845021E-01
 8.434154093E-01 -3.867407562E-03 3.105183856E-01
 8.555283248E-01 -2.788551967E-03 3.243257529E-01
 8.676818907E-01 -1.805989130E-03 3.358731237E-01
 8.798678815E-01 -9.264597902E-04 3.482856464E-01
 8.928311169E-01 -1.384662683E-04 3.566198601E-01
 9.439947903E-01 1.514531730E-03 3.692535528E-01
 9.566814899E-01 1.547569409E-03 3.695377327E-01
 9.704198539E-01 1.420716115E-03 3.682713860E-01
 9.839036763E-01 1.137651969E-03 3.763372970E-01
 9.951770604E-01 7.453077414E-04 4.192094245E-01
 -5.000000000E-01 9.500000000E-01 1.955386748E-02
 -5.000000000E-01 9.000000000E-01 2.996534547E-02
 -5.000000000E-01 8.500000000E-01 3.769278831E-02
 -5.000000000E-01 8.000000000E-01 4.447600161E-02
 -5.000000000E-01 7.500000000E-01 5.105700495E-02
 -5.000000000E-01 7.000000000E-01 5.769454514E-02
 -5.000000000E-01 6.500000000E-01 6.435235471E-02
 -5.000000000E-01 6.000000000E-01 7.124961215E-02
 -5.000000000E-01 5.500000000E-01 7.839405924E-02
 -5.000000000E-01 5.000000000E-01 8.564263440E-02
 -5.000000000E-01 4.500000000E-01 9.309140214E-02
 -5.000000000E-01 4.000000000E-01 1.006175081E-01
 -5.000000000E-01 3.500000000E-01 1.079855314E-01
 -5.000000000E-01 3.000000000E-01 1.151223423E-01
 -5.000000000E-01 2.500000000E-01 1.218673231E-01
 -5.000000000E-01 2.000000000E-01 1.278916568E-01
 -5.000000000E-01 1.500000000E-01 1.329145831E-01
 -5.000000000E-01 1.000000000E-01 1.368241001E-01
 -5.000000000E-01 5.000000000E-02 1.393858048E-01
 -5.000000000E-01 2.752242878E-12 1.405457594E-01
 -5.000000000E-01 -5.000000000E-02 1.400883509E-01
 -5.000000000E-01 -1.000000000E-01 1.382633110E-01
 -5.000000000E-01 -1.500000000E-01 1.349196443E-01
 -5.000000000E-01 -2.000000000E-01 1.304769684E-01
 -5.000000000E-01 -2.500000000E-01 1.250694303E-01
 -5.000000000E-01 -3.000000000E-01 1.188200728E-01
 -5.000000000E-01 -3.500000000E-01 1.120310458E-01
 -5.000000000E-01 -4.000000000E-01 1.049858576E-01
 -5.000000000E-01 -4.500000000E-01 9.772129555E-02
 -5.000000000E-01 -5.000000000E-01 9.044406779E-02
 -5.000000000E-01 -5.500000000E-01 8.326482984E-02
 -5.000000000E-01 -6.000000000E-01 7.616246887E-02
 -5.000000000E-01 -6.500000000E-01 6.912288014E-02
 -5.000000000E-01 -7.000000000E-01 6.235811060E-02
 -5.000000000E-01 -7.500000000E-01 5.547552873E-02
 -5.000000000E-01 -8.000000000E-01 4.853387322E-02
 -5.000000000E-01 -8.500000000E-01 4.117466945E-02
 -5.000000000E-01 -9.000000000E-01 3.276804338E-02
 -5.000000000E-01 -9.500000000E-01 2.167804160E-02
 -4.500000000E-01 -1.000000000E+00 1.793111272E-02
 -4.000000000E-01 -1.000000000E+00 2.663428387E-02
 -3.500000000E-01 -1.000000000E+00 3.223081632E-02
 -3.000000000E-01 -1.000000000E+00 3.564798696E-02
 -2.500000000E-01 -1.000000000E+00 3.785179602E-02
 -2.000000000E-01 -1.000000000E+00 3.867095502E-02
 -1.500000000E-01 -1.000000000E+00 3.807550421E-02
 -1.000000000E-01 -1.000000000E+00 3.620832534E-02
 -5.000000000E-02 -1.000000000E+00 3.294415959E-02
 -9.424683256E-13 -1.000000000E+00 2.841229821E-02
 5.000000000E-02 -1.000000000E+00 2.254625898E-02
 1.000000000E-01 -1.000000000E+00 1.590097889E-02
 1.500000000E-01 -1.000000000E+00 8.401201601E-03
 2.000000000E-01 -1.000000000E+00 5.517221010E-04
 2.500000000E-01 -1.000000000E+00 -7.358307593E-03
 3.000000000E-01 -1.000000000E+00 -1.472867759E-02
 3.500000000E-01 -1.000000000E+00 -2.139261585E-02
 4.000000000E-01 -1.000000000E+00 -2.692631565E-02
 4.500000000E-01 -1.000000000E+00 -3.114482342E-02
 5.000000000E-01 -1.000000000E+00 -3.383942033E-02
 5.500000000E-01 -1.000000000E+00 -3.467246420E-02
 6.000000000E-01 -1.000000000E+00 -3.380870181E-02
 6.500000000E-01 -1.000000000E+00 -3.142039615E-02
 7.000000000E-01 -1.000000000E+00 -2.759870008E-02
 7.500000000E-01 -1.000000000E+00 -2.275945744E-02
 8.000000000E-01 -1.000000000E+00 -1.710020126E-02
 8.500000000E-01 -1.000000000E+00 -1.090611023E-02
 9.000000000E-01 -1.000000000E+00 -4.593174212E-03
 9.500000000E-01 -1.000000000E+00 1.348722045E-03
 1.000000000E+00 -1.000000000E+00 7.283763631E-03
 1.050000000E+00 -1.000000000E+00 1.260773016E-02
 1.100000000E+00 -1.000000000E+00 1.738178369E-02
 1.150000000E+00 -1.000000000E+00 2.141294185E-02
 1.200000000E+00 -1.000000000E+00 2.484434375E-02
 1.250000000E+00 -1.000000000E+00 2.763253548E-02
 1.300000000E+00 -1.000000000E+00 2.984080187E-02
 1.350000000E+00 -1.000000000E+00 3.143360507E-02
 1.400000000E+00 -1.000000000E+00 3.258858410E-02
 1.450000000E+00 -1.000000000E+00 3.330631257E-02
 1.500000000E+00 -1.000000000E+00 3.363055856E-02
 1.550000000E+00 -1.000000000E+00 3.369476084E-02
 1.600000000E+00 -1.000000000E+00 3.346881265E-02
 1.650000000E+00 -1.000000000E+00 3.307093928E-02
 1.700000000E+00 -1.000000000E+00 3.251128907E-02
 1.750000000E+00 -1.000000000E+00 3.183330335E-02
 1.800000000E+00 -1.000000000E+00 3.106054825E-02
 1.850000000E+00 -1.000000000E+00 3.021245560E-02
 1.900000000E+00 -1.000000000E+00 2.931887343E-02
 1.950000000E+00 -1.000000000E+00 2.841482644E-02
 2.000000000E+00 -1.000000000E+00 2.749051002E-02
 2.050000000E+00 -1.000000000E+00 2.658734709E-02
 2.100000000E+00 -1.000000000E+00 2.566774541E-02
 2.150000000E+00 -1.000000000E+00 2.480395654E-02
 2.200000000E+00 -1.000000000E+00 2.389579124E-02
 2.250000000E+00 -1.000000000E+00 2.312642375E-02
 2.300000000E+00 -1.000000000E+00 2.229491799E-02
 2.350000000E+00 -1.000000000E+00 2.151035733E-02
 2.400000000E+00 -1.000000000E+00 2.079249546E-02
 2.450000000E+00 -1.000000000E+00 2.006849731E-02
 2.500000000E+00 -1.000000000E+00 1.943194242E-02
 2.550000000E+00 -1.000000000E+00 1.888974748E-02
 2.600000000E+00 -1.000000000E+00 1.834402345E-02
 2.650000000E+00 -1.000000000E+00 1.777423046E-02
 2.700000000E+00 -1.000000000E+00 1.733452712E-02
 2.750000000E+00 -1.000000000E+00 1.684769947E-02
 2.800000000E+00 -1.000000000E+00 1.646499286E-02
 2.850000000E+00 -1.000000000E+00 1.609097854E-02
 2.900000000E+00 -1.000000000E+00 1.579822751E-02
 2.950000000E+00 -1.000000000E+00 1.547868863E-02
 3.000000000E+00 -1.000000000E+00 1.524575520E-02
 3.050000000E+00 -1.000000000E+00 1.498394816E-02
 3.100000000E+00 -1.000000000E+00 1.474249247E-02
 3.150000000E+00 -1.000000000E+00 1.449387317E-02
 3.200000000E+00 -1.000000000E+00 1.420023327E-02
 3.250000000E+00 -1.000000000E+00 1.386389740E-02
 3.300000000E+00 -1.000000000E+00 1.340695765E-02
 3.350000000E+00 -1.000000000E+00 1.277841940E-02
 3.400000000E+00 -1.000000000E+00 1.162256228E-02
 3.450000000E+00 -1.000000000E+00 9.222181101E-03
 3.500000000E+00 -9.500000000E-01 4.375157504E-03
 3.500000000E+00 -9.000000000E-01 5.681059518E-03
 3.500000000E+00 -8.500000000E-01 7.056051366E-03
 3.500000000E+00 -8.000000000E-01 8.367923687E-03
 3.500000000E+00 -7.500000000E-01 9.548891075E-03
 3.500000000E+00 -7.000000000E-01 1.063348479E-02
 3.500000000E+00 -6.500000000E-01 1.175466761E-02
 3.500000000E+00 -6.000000000E-01 1.290507511E-02
 3.500000000E+00 -5.500000000E-01 1.412054697E-02
 3.500000000E+00 -5.000000000E-01 1.535182245E-02
 3.500000000E+00 -4.500000000E-01 1.660769626E-02
 3.500000000E+00 -4.000000000E-01 1.783156771E-02
 3.500000000E+00 -3.500000000E-01 1.907590660E-02
 3.500000000E+00 -3.000000000E-01 2.016909890E-02
 3.500000000E+00 -2.500000000E-01 2.114138362E-02
 3.500000000E+00 -2.000000000E-01 2.160549379E-02
 3.500000000E+00 -1.500000000E-01 2.160714688E-02
 3.500000000E+00 -1.000000000E-01 2.132878014E-02
 3.500000000E+00 -5.000000000E-02 2.109835995E-02
 3.500000000E+00 -2.752242878E-12 2.116102897E-02
 3.500000000E+00 5.000000000E-02 2.134254470E-02
 3.500000000E+00 1.000000000E-01 2.138155220E-02
 3.500000000E+00 1.500000000E-01 2.100607545E-02
 3.500000000E+00 2.000000000E-01 2.012602632E-02
 3.500000000E+00 2.500000000E-01 1.893776312E-02
 3.500000000E+00 3.000000000E-01 1.769412562E-02
 3.500000000E+00 3.500000000E-01 1.643405292E-02
 3.500000000E+00 4.000000000E-01 1.515600448E-02
 3.500000000E+00 4.500000000E-01 1.388280104E-02
 3.500000000E+00 5.000000000E-01 1.256601580E-02
 3.500000000E+00 5.500000000E-01 1.131158388E-02
 3.500000000E+00 6.000000000E-01 1.041998734E-02
 3.500000000E+00 6.500000000E-01 1.011473284E-02
 3.500000000E+00 7.000000000E-01 9.863357898E-03
 3.500000000E+00 7.500000000E-01 8.375437903E-03
 3.500000000E+00 8.000000000E-01 4.064728599E-03
 3.500000000E+00 8.500000000E-01 -3.102402292E-03
 3.500000000E+00 9.000000000E-01 -1.264103801E-02
 3.500000000E+00 9.500000000E-01 -2.381813964E-02
 3.450000000E+00 1.000000000E+00 -9.979564854E-03
 3.400000000E+00 1.000000000E+00 -2.908694874E-03
 3.350000000E+00 1.000000000E+00 -7.031123159E-04
 3.300000000E+00 1.000000000E+00 -4.302210081E-04
 3.250000000E+00 1.000000000E+00 -6.979112891E-04
 3.200000000E+00 1.000000000E+00 -1.197573090E-03
 3.150000000E+00 1.000000000E+00 -1.815837574E-03
 3.100000000E+00 1.000000000E+00 -2.732709532E-03
 3.050000000E+00 1.000000000E+00 -3.271062744E-03
 3.000000000E+00 1.000000000E+00 -4.213758498E-03
 2.950000000E+00 1.000000000E+00 -4.902873405E-03
 2.900000000E+00 1.000000000E+00 -5.920376910E-03
 2.850000000E+00 1.000000000E+00 -6.847655351E-03
 2.800000000E+00 1.000000000E+00 -7.897154220E-03
 2.750000000E+00 1.000000000E+00 -8.880501117E-03
 2.700000000E+00 1.000000000E+00 -9.797521643E-03
 2.650000000E+00 1.000000000E+00 -1.104160123E-02
 2.600000000E+00 1.000000000E+00 -1.190104318E-02
 2.550000000E+00 1.000000000E+00 -1.327497701E-02
 2.500000000E+00 1.000000000E+00 -1.423060419E-02
 2.450000000E+00 1.000000000E+00 -1.579570270E-02
 2.400000000E+00 1.000000000E+00 -1.669862005E-02
 2.350000000E+00 1.000000000E+00 -1.827873125E-02
 2.300000000E+00 1.000000000E+00 -1.982848229E-02
 2.250000000E+00 1.000000000E+00 -2.112420601E-02
 2.200000000E+00 1.000000000E+00 -2.305400181E-02
 2.150000000E+00 1.000000000E+00 -2.476903508E-02
 2.100000000E+00 1.000000000E+00 -2.653123262E-02
 2.050000000E+00 1.000000000E+00 -2.855274819E-02
 2.000000000E+00 1.000000000E+00 -3.065656310E-02
 1.950000000E+00 1.000000000E+00 -3.292461640E-02
 1.900000000E+00 1.000000000E+00 -3.544042179E-02
 1.850000000E+00 1.000000000E+00 -3.808515117E-02
 1.800000000E+00 1.000000000E+00 -4.095156698E-02
 1.750000000E+00 1.000000000E+00 -4.409438409E-02
 1.700000000E+00 1.000000000E+00 -4.742182196E-02
 1.650000000E+00 1.000000000E+00 -5.114327885E-02
 1.600000000E+00 1.000000000E+00 -5.526389605E-02
 1.550000000E+00 1.000000000E+00 -5.924007688E-02
 1.500000000E+00 1.000000000E+00 -6.398477782E-02
 1.450000000E+00 1.000000000E+00 -6.900015304E-02
 1.400000000E+00 1.000000000E+00 -7.423446473E-02
 1.350000000E+00 1.000000000E+00 -8.025210933E-02
 1.300000000E+00 1.000000000E+00 -8.638881947E-02
 1.250000000E+00 1.000000000E+00 -9.287567272E-02
 1.200000000E+00 1.000000000E+00 -9.970725386E-02
 1.150000000E+00 1.000000000E+00 -1.053778245E-01
 1.100000000E+00 1.000000000E+00 -1.122569947E-01
 1.050000000E+00 1.000000000E+00 -1.172274982E-01
 1.000000000E+00 1.000000000E+00 -1.231897371E-01
 9.500000000E-01 1.000000000E+00 -1.273543036E-01
 9.000000000E-01 1.000000000E+00 -1.303681559E-01
 8.500000000E-01 1.000000000E+00 -1.326822748E-01
 8.000000000E-01 1.000000000E+00 -1.327173587E-01
 7.500000000E-01 1.000000000E+00 -1.292280353E-01
 7.000000000E-01 1.000000000E+00 -1.268668732E-01
 6.500000000E-01 1.000000000E+00 -1.213027488E-01
 6.000000000E-01 1.000000000E+00 -1.125941349E-01
 5.500000000E-01 1.000000000E+00 -1.044490538E-01
 5.000000000E-01 1.000000000E+00 -9.354662410E-02
 4.500000000E-01 1.000000000E+00 -8.232674372E-02
 4.000000000E-01 1.000000000E+00 -6.979348191E-02
 3.500000000E-01 1.000000000E+00 -5.719968029E-02
 3.000000000E-01 1.000000000E+00 -4.432139320E-02
 2.500000000E-01 1.000000000E+00 -3.181597418E-02
 2.000000000E-01 1.000000000E+00 -1.984145641E-02
 1.500000000E-01 1.000000000E+00 -8.582260529E-03
 1.000000000E-01 1.000000000E+00 1.636203882E-03
 5.000000000E-02 1.000000000E+00 1.061783479E-02
 1.733724275E-12 1.000000000E+00 1.825764601E-02
 -5.000000000E-02 1.000000000E+00 2.428065794E-02
 -1.000000000E-01 1.000000000E+00 2.886226990E-02
 -1.500000000E-01 1.000000000E+00 3.181686765E-02
 -2.000000000E-01 1.000000000E+00 3.329574910E-02
 -2.500000000E-01 1.000000000E+00 3.325888599E-02
 -3.000000000E-01 1.000000000E+00 3.184052639E-02
 -3.500000000E-01 1.000000000E+00 2.893841900E-02
 -4.000000000E-01 1.000000000E+00 2.396500623E-02
 -4.500000000E-01 1.000000000E+00 1.614080474E-02
 9.744618632E-01 -5.256087279E-03 3.604837216E-01
 8.711222104E-01 -6.829426295E-03 3.331897545E-01
 7.936712809E-01 -1.455320051E-02 2.436447538E-01
 7.200203517E-01 -2.417220779E-02 1.444857551E-01
 6.462589729E-01 -3.449860641E-02 2.510052801E-02
 5.743173589E-01 -4.422782567E-02 -1.219283695E-01
 5.060091292E-01 -5.269291292E-02 -3.091974424E-01
 4.449161581E-01 -5.847191219E-02 -4.997052334E-01
 3.889741304E-01 -6.103377165E-02 -6.242453711E-01
 3.333959396E-01 -6.137763165E-02 -6.046379520E-01
 2.770822175E-01 -6.098812807E-02 -5.156732324E-01
 2.145036157E-01 -5.647511472E-02 -4.125605391E-01
 1.562167993E-01 -4.947968851E-02 -3.258698371E-01
 1.055372105E-01 -4.184121790E-02 -2.525774924E-01
 6.081123017E-02 -3.494286956E-02 -1.609238219E-01