TITLE     = "Visualization of the solution"
VARIABLES = "x"
"y"
"Pressure_Coefficient"
ZONE T="Zone"
 STRANDID=0, SOLUTIONTIME=0
 Nodes=12376, Elements=24170, ZONETYPE=FEQuadrilateral
 DATAPACKING=POINT
 DT=(DOUBLE DOUBLE DOUBLE )
 9.996551871E-01 5.066946032E-04 3.495454144E-01
 9.865024090E-01 3.042608732E-03 2.283284531E-01
 9.730377793E-01 5.560613237E-03 1.663679537E-01
 9.563602209E-01 8.710504510E-03 1.090415373E-01
 9.410789013E-01 1.158561185E-02 6.837086491E-02
 9.269246459E-01 1.428855956E-02 1.651704953E-02
 9.149051309E-01 1.651764475E-02 -1.203231778E-02
 9.023765326E-01 1.881002821E-02 -3.776353179E-02
 8.902213573E-01 2.102319896E-02 -6.432570491E-02
 8.781216741E-01 2.324664406E-02 -1.125835364E-01
 8.656486273E-01 2.542970888E-02 -1.377392240E-01
 8.529298306E-01 2.755724825E-02 -1.377852487E-01
 8.409986496E-01 2.962740324E-02 -1.896352205E-01
 8.296135664E-01 3.147802502E-02 -1.969991579E-01
 8.180404902E-01 3.334737569E-02 -2.175303908E-01
 8.057341576E-01 3.530254215E-02 -2.435559602E-01
 7.930800319E-01 3.723980486E-02 -2.534312312E-01
 7.810789347E-01 3.905940056E-02 -2.728379178E-01
 7.692097425E-01 4.086028412E-02 -3.111942107E-01
 7.575283051E-01 4.252219945E-02 -3.099345562E-01
 7.449344993E-01 4.432671145E-02 -3.362291444E-01
 7.317339778E-01 4.617052525E-02 -3.630377436E-01
 7.213603854E-01 4.758564755E-02 -3.839127614E-01
 7.104759216E-01 4.903067276E-02 -4.040862989E-01
 6.991671324E-01 5.049908534E-02 -4.278955858E-01
 6.860474944E-01 5.213436484E-02 -4.500234037E-01
 6.734983325E-01 5.365031585E-02 -4.766401928E-01
 6.633244753E-01 5.482281744E-02 -4.859845183E-01
 6.519768238E-01 5.610627308E-02 -5.140754059E-01
 6.408367157E-01 5.731920153E-02 -5.520411454E-01
 6.293443441E-01 5.850917846E-02 -5.656612736E-01
 6.179473400E-01 5.958705768E-02 -5.618749663E-01
 6.075271368E-01 6.058204919E-02 -5.960013441E-01
 5.955231786E-01 6.164653599E-02 -5.726052616E-01
 5.840353370E-01 6.258895993E-02 -5.734743446E-01
 5.707270503E-01 6.359188259E-02 -7.907266404E-01
 5.583207607E-01 6.445954740E-02 -8.720653204E-01
 5.460288525E-01 6.523115933E-02 -8.440164697E-01
 5.350223780E-01 6.584811211E-02 -8.366043007E-01
 5.234150887E-01 6.644946337E-02 -8.318473066E-01
 5.108948946E-01 6.700298190E-02 -8.184328600E-01
 4.998436272E-01 6.743136793E-02 -8.037779141E-01
 4.867459834E-01 6.785188615E-02 -7.923359338E-01
 4.736214876E-01 6.819927692E-02 -7.793949075E-01
 4.596637189E-01 6.846760958E-02 -7.579589184E-01
 4.461239874E-01 6.862732768E-02 -7.385642025E-01
 4.332924485E-01 6.870234013E-02 -7.297017993E-01
 4.204493165E-01 6.871164590E-02 -7.118717200E-01
 4.079364240E-01 6.862189621E-02 -6.911673364E-01
 3.953463137E-01 6.848911941E-02 -6.840296771E-01
 3.830268681E-01 6.826528907E-02 -6.562241350E-01
 3.713994622E-01 6.800133735E-02 -6.448680183E-01
 3.582885265E-01 6.764326990E-02 -6.437350591E-01
 3.456826806E-01 6.722117215E-02 -6.338444713E-01
 3.327802420E-01 6.670838594E-02 -6.191093898E-01
 3.219625950E-01 6.620994210E-02 -5.963717513E-01
 3.095920384E-01 6.558574736E-02 -5.802383511E-01
 2.964631021E-01 6.484241784E-02 -5.662923244E-01
 2.826597393E-01 6.399151683E-02 -5.629936989E-01
 2.701227069E-01 6.311975420E-02 -5.439784845E-01
 2.582052648E-01 6.221703440E-02 -5.261117480E-01
 2.457495183E-01 6.120331585E-02 -5.112402206E-01
 2.331467271E-01 6.009261310E-02 -4.972187728E-01
 2.208050489E-01 5.892924219E-02 -4.845017023E-01
 2.088625282E-01 5.770333484E-02 -4.637395078E-01
 1.971526891E-01 5.644087493E-02 -4.535144451E-01
 1.847413927E-01 5.499318987E-02 -4.325942332E-01
 1.729601622E-01 5.353058130E-02 -4.161900381E-01
 1.613218188E-01 5.199712887E-02 -4.005533154E-01
 1.495246589E-01 5.033103749E-02 -3.815320741E-01
 1.387322843E-01 4.870919138E-02 -3.594030746E-01
 1.272093207E-01 4.687020928E-02 -3.382541910E-01
 1.159858331E-01 4.496515542E-02 -3.213162654E-01
 1.054359004E-01 4.305044934E-02 -2.922559550E-01
 9.553115070E-02 4.113699123E-02 -2.736409801E-01
 8.465697616E-02 3.889274597E-02 -2.464686306E-01
 7.313936204E-02 3.631753474E-02 -2.042401369E-01
 6.336564571E-02 3.395259380E-02 -1.807658460E-01
 5.359103158E-02 3.138587624E-02 -1.354724852E-01
 4.473835975E-02 2.884786949E-02 -9.770956545E-02
 3.727838770E-02 2.650981396E-02 -5.566886495E-02
 3.060843796E-02 2.421662025E-02 -8.514446275E-03
 2.497974597E-02 2.210140601E-02 3.214678334E-02
 2.087446488E-02 2.041497454E-02 8.227693563E-02
 1.691505685E-02 1.864382997E-02 1.267990845E-01
 1.389575657E-02 1.717358083E-02 1.820998842E-01
 1.117499638E-02 1.572180539E-02 2.309004751E-01
 9.189303964E-03 1.457525603E-02 2.741811079E-01
 7.429777645E-03 1.346940361E-02 3.182549623E-01
 5.798693281E-03 1.234588772E-02 3.977688718E-01
 3.662332427E-03 1.069232542E-02 4.981039886E-01
 1.835185685E-03 9.002430364E-03 6.026501271E-01
 3.099557944E-04 7.241842803E-03 8.081990046E-01
 -1.164504676E-03 4.790712614E-03 1.024605747E+00
 -1.780560822E-03 2.944378415E-03 1.140114634E+00
 -1.975233667E-03 1.465157489E-03 1.195366058E+00
 -1.879496849E-03 -1.858989417E-04 1.180777395E+00
 -1.431748387E-03 -1.939202426E-03 1.066694644E+00
 -4.526982084E-04 -4.010349512E-03 9.267577470E-01
 1.043881406E-03 -6.136011332E-03 7.353126740E-01
 3.131260863E-03 -8.354000747E-03 5.670904044E-01
 5.004758947E-03 -9.983265772E-03 4.193307990E-01
 7.157112472E-03 -1.160252281E-02 3.349129244E-01
 8.821899071E-03 -1.272093505E-02 2.482208948E-01
 1.091808453E-02 -1.401401125E-02 2.045322007E-01
 1.331826486E-02 -1.536311675E-02 1.394337303E-01
 1.661452278E-02 -1.704522781E-02 7.836288940E-02
 1.965275034E-02 -1.845272444E-02 1.494851342E-02
 2.358805202E-02 -2.011487260E-02 -2.854415154E-02
 2.901265770E-02 -2.218465135E-02 -6.846027285E-02
 3.481069952E-02 -2.417961881E-02 -1.182092767E-01
 4.185586050E-02 -2.637015842E-02 -1.558745313E-01
 4.952032864E-02 -2.851741947E-02 -1.878296018E-01
 5.850150809E-02 -3.080313094E-02 -2.122522407E-01
 6.731656939E-02 -3.285279870E-02 -2.392820009E-01
 7.764373720E-02 -3.505240381E-02 -2.594024918E-01
 8.771533519E-02 -3.704101965E-02 -2.825998755E-01
 9.817443043E-02 -3.894385695E-02 -2.945593187E-01
 1.093320921E-01 -4.084614664E-02 -3.133751585E-01
 1.207327768E-01 -4.265930131E-02 -3.323490767E-01
 1.323786080E-01 -4.438051954E-02 -3.452182599E-01
 1.430650949E-01 -4.587190971E-02 -3.640440962E-01
 1.542254388E-01 -4.733182490E-02 -3.765827539E-01
 1.662473232E-01 -4.881704599E-02 -3.960300042E-01
 1.779424697E-01 -5.016672239E-02 -4.149670662E-01
 1.896986961E-01 -5.143379420E-02 -4.307948983E-01
 2.003263980E-01 -5.250867084E-02 -4.490869285E-01
 2.117475271E-01 -5.358826742E-02 -4.666330915E-01
 2.241220474E-01 -5.467711389E-02 -4.911754003E-01
 2.366650850E-01 -5.567250028E-02 -5.094591826E-01
 2.488122135E-01 -5.655086413E-02 -5.299972255E-01
 2.610952854E-01 -5.734477192E-02 -5.488739567E-01
 2.721442878E-01 -5.798196793E-02 -5.694692042E-01
 2.848285139E-01 -5.862675607E-02 -5.953247445E-01
 2.971568406E-01 -5.914787203E-02 -6.268559658E-01
 3.100096285E-01 -5.956622213E-02 -6.435911652E-01
 3.216820657E-01 -5.984062329E-02 -6.499399448E-01
 3.342869878E-01 -6.004997343E-02 -6.720315811E-01
 3.450780511E-01 -6.012538821E-02 -7.057534193E-01
 3.565109372E-01 -6.009852141E-02 -7.153191174E-01
 3.674052656E-01 -5.997508019E-02 -7.111517641E-01
 3.781849146E-01 -5.975929648E-02 -6.912880997E-01
 3.897450864E-01 -5.942328647E-02 -6.667302455E-01
 4.027298391E-01 -5.890716612E-02 -6.350860128E-01
 4.150819182E-01 -5.828610435E-02 -6.065908065E-01
 4.279250801E-01 -5.750850588E-02 -5.710748394E-01
 4.402828813E-01 -5.663434416E-02 -5.357557669E-01
 4.527078867E-01 -5.563034117E-02 -4.942838383E-01
 4.646970034E-01 -5.455765873E-02 -4.589051126E-01
 4.770240486E-01 -5.333051831E-02 -4.081075488E-01
 4.886956513E-01 -5.210813135E-02 -3.777768861E-01
 5.011775494E-01 -5.068243667E-02 -3.272435509E-01
 5.149782300E-01 -4.905330762E-02 -2.916670462E-01
 5.283022523E-01 -4.738888890E-02 -2.542173764E-01
 5.413084030E-01 -4.568562657E-02 -2.114421464E-01
 5.544151068E-01 -4.392800480E-02 -1.776182096E-01
 5.675377846E-01 -4.212187231E-02 -1.439646087E-01
 5.806139112E-01 -4.029149562E-02 -1.147515341E-01
 5.928548574E-01 -3.852916136E-02 -7.934064069E-02
 6.054735780E-01 -3.671588749E-02 -5.283097276E-02
 6.194432378E-01 -3.469768912E-02 -2.523766092E-02
 6.336541176E-01 -3.261886910E-02 8.090732774E-03
 6.481553912E-01 -3.053904325E-02 2.818205238E-02
 6.613908410E-01 -2.863703854E-02 4.897876737E-02
 6.747432947E-01 -2.670639567E-02 7.345721489E-02
 6.870804429E-01 -2.492361516E-02 9.697553019E-02
 6.993734241E-01 -2.317156643E-02 1.163728664E-01
 7.138547301E-01 -2.112771943E-02 1.387354492E-01
 7.268726826E-01 -1.931520179E-02 1.595119590E-01
 7.386925220E-01 -1.770637371E-02 1.742394388E-01
 7.516000271E-01 -1.596305147E-02 1.939490123E-01
 7.638311386E-01 -1.432469115E-02 2.176664756E-01
 7.770689130E-01 -1.264105737E-02 2.299080693E-01
 7.891052961E-01 -1.113943849E-02 2.462269857E-01
 8.016102910E-01 -9.604932740E-03 2.665516236E-01
 8.125851154E-01 -8.308688179E-03 2.845571865E-01
 8.240591288E-01 -7.018303964E-03 3.000174285E-01
 8.370925188E-01 -5.667358637E-03 3.075999265E-01
 8.492019773E-01 -4.422964994E-03 3.325064074E-01
 8.614808321E-01 -3.292077221E-03 3.441703871E-01
 8.730069399E-01 -2.324375557E-03 3.573078654E-01
 8.848180771E-01 -1.448352123E-03 3.663911344E-01
 8.978454471E-01 -6.034263060E-04 3.774990727E-01
 9.081456065E-01 -5.266432709E-05 3.843009065E-01
 9.188061357E-01 4.090477014E-04 3.871891899E-01
 9.284396172E-01 7.381934556E-04 3.900777684E-01
 9.377454519E-01 9.640284698E-04 3.929264345E-01
 9.495310783E-01 1.139303553E-03 3.927419715E-01
 9.626742005E-01 1.183468383E-03 3.926984525E-01
 9.769963026E-01 1.066617551E-03 3.985529275E-01
 9.887759686E-01 8.262587944E-04 4.129503393E-01
 -5.000000000E-01 -1.000000000E+00 1.565171787E-02
 3.500000000E+00 -1.000000000E+00 7.241388907E-03
 3.500000000E+00 1.000000000E+00 -2.957912113E-02
 -5.000000000E-01 1.000000000E+00 1.462450371E-02
 9.930787981E-01 1.774651668E-03 3.066258376E-01
 9.797700942E-01 4.301610985E-03 1.959365860E-01
 9.646990001E-01 7.135558873E-03 1.346790447E-01
 9.487195611E-01 1.014805818E-02 8.866498658E-02
 9.340017736E-01 1.293708570E-02 3.922529360E-02
 9.209148884E-01 1.540310215E-02 1.591915405E-03
 9.086408317E-01 1.766383648E-02 -2.485515612E-02
 8.962989450E-01 1.991661359E-02 -4.785151102E-02
 8.841715157E-01 2.213492151E-02 -9.229351491E-02
 8.718851507E-01 2.433817647E-02 -1.296265547E-01
 8.592892289E-01 2.649347857E-02 -1.292828196E-01
 8.469642401E-01 2.859232575E-02 -1.705805770E-01
 8.353061080E-01 3.055271413E-02 -1.916519850E-01
 8.238270283E-01 3.241270036E-02 -2.061711890E-01
 8.118873239E-01 3.432495892E-02 -2.328374813E-01
 7.994070947E-01 3.627117351E-02 -2.480558125E-01
 7.870794833E-01 3.814960271E-02 -2.586156136E-01
 7.751443386E-01 3.995984234E-02 -2.995164948E-01
 7.633690238E-01 4.169124179E-02 -3.062693612E-01
 7.512314022E-01 4.342445545E-02 -3.232294825E-01
 7.383342385E-01 4.524861835E-02 -3.492992530E-01
 7.265471816E-01 4.687808640E-02 -3.747622732E-01
 7.159181535E-01 4.830816016E-02 -3.923950872E-01
 7.048215270E-01 4.976487905E-02 -4.182475286E-01
 6.926073134E-01 5.131672509E-02 -4.368815268E-01
 6.797729135E-01 5.289234035E-02 -4.657878317E-01
 6.684114039E-01 5.423656665E-02 -4.793966174E-01
 6.576506495E-01 5.546454526E-02 -4.989881302E-01
 6.464067698E-01 5.671273731E-02 -5.321735346E-01
 6.350905299E-01 5.791418999E-02 -5.680417726E-01
 6.236458421E-01 5.904811807E-02 -5.528909239E-01
 6.127372384E-01 6.008455344E-02 -5.858201537E-01
 6.015251577E-01 6.111429259E-02 -5.917965550E-01
 5.897792578E-01 6.211774796E-02 -5.526255265E-01
 5.773811936E-01 6.309042126E-02 -6.681509410E-01
 5.645239055E-01 6.402571499E-02 -8.610680585E-01
 5.521748066E-01 6.484535336E-02 -8.579276191E-01
 5.405256152E-01 6.553963572E-02 -8.355081959E-01
 5.292187333E-01 6.614878774E-02 -8.391066889E-01
 5.171549916E-01 6.672622263E-02 -8.226102358E-01
 5.053692609E-01 6.721717492E-02 -8.131708989E-01
 4.932948053E-01 6.764162704E-02 -7.964257177E-01
 4.801837355E-01 6.802558154E-02 -7.882088144E-01
 4.666426033E-01 6.833344325E-02 -7.692528776E-01
 4.528938532E-01 6.854746863E-02 -7.463651936E-01
 4.397082180E-01 6.866483390E-02 -7.326213310E-01
 4.268708825E-01 6.870699301E-02 -7.253980236E-01
 4.141928703E-01 6.866677105E-02 -6.954403218E-01
 4.016413689E-01 6.855550781E-02 -6.926060575E-01
 3.891865909E-01 6.837720424E-02 -6.679765978E-01
 3.772131652E-01 6.813331321E-02 -6.485706887E-01
 3.648439944E-01 6.782230362E-02 -6.451414153E-01
 3.519856036E-01 6.743222103E-02 -6.397368435E-01
 3.392314613E-01 6.696477905E-02 -6.271795666E-01
 3.273714185E-01 6.645916402E-02 -6.064864339E-01
 3.157773167E-01 6.589784473E-02 -5.896868857E-01
 3.030275702E-01 6.521408260E-02 -5.708734696E-01
 2.895614207E-01 6.441696733E-02 -5.667297275E-01
 2.763912231E-01 6.355563551E-02 -5.534851250E-01
 2.641639858E-01 6.266839430E-02 -5.341599633E-01
 2.519773915E-01 6.171017513E-02 -5.196417960E-01
 2.394481227E-01 6.064796448E-02 -5.027703642E-01
 2.269758880E-01 5.951092765E-02 -4.935094769E-01
 2.148337886E-01 5.831628852E-02 -4.711309663E-01
 2.030076087E-01 5.707210489E-02 -4.614827597E-01
 1.909470409E-01 5.571703240E-02 -4.424498202E-01
 1.788507774E-01 5.426188558E-02 -4.235631794E-01
 1.671409905E-01 5.276385508E-02 -4.098340579E-01
 1.554232389E-01 5.116408318E-02 -3.903013404E-01
 1.441284716E-01 4.952011444E-02 -3.713500778E-01
 1.329708025E-01 4.778970033E-02 -3.486005104E-01
 1.215975769E-01 4.591768235E-02 -3.299029215E-01
 1.107108667E-01 4.400780238E-02 -3.107214244E-01
 9.009406343E-02 4.001486860E-02 -2.623605997E-01
 7.889816910E-02 3.760514036E-02 -2.299583455E-01
 5.847833864E-02 3.266923502E-02 -1.665388372E-01
 7.248015329E-02 -3.395260125E-02 -2.542515567E-01
 8.267953619E-02 -3.604671173E-02 -2.703835692E-01
 9.294488281E-02 -3.799243830E-02 -2.905724859E-01
 1.037532613E-01 -3.989500180E-02 -3.022021389E-01
 1.150324345E-01 -4.175272398E-02 -3.237935940E-01
 1.265556924E-01 -4.351991042E-02 -3.396978352E-01
 1.377218515E-01 -4.512621462E-02 -3.546437365E-01
 1.486452669E-01 -4.660186730E-02 -3.707942518E-01
 1.602363810E-01 -4.807443544E-02 -3.848640391E-01
 1.720948964E-01 -4.949188419E-02 -4.064282111E-01
 1.838205829E-01 -5.080025829E-02 -4.230663807E-01
 1.950125471E-01 -5.197123252E-02 -4.404087600E-01
 2.060369626E-01 -5.304846913E-02 -4.570031603E-01
 2.179347873E-01 -5.413269065E-02 -4.774360151E-01
 2.303935662E-01 -5.517480709E-02 -5.017899072E-01
 2.427386492E-01 -5.611168221E-02 -5.190571304E-01
 2.549537495E-01 -5.694781803E-02 -5.399080762E-01
 2.666197866E-01 -5.766336992E-02 -5.593975837E-01
 2.784864008E-01 -5.830436200E-02 -5.797482704E-01
 2.909926772E-01 -5.888731405E-02 -6.116150135E-01
 3.035832345E-01 -5.935704708E-02 -6.372672332E-01
 3.158458471E-01 -5.970342271E-02 -6.486482453E-01
 3.279845268E-01 -5.994529836E-02 -6.554778893E-01
 3.396825194E-01 -6.008768082E-02 -6.921506101E-01
 3.507944942E-01 -6.011195481E-02 -7.123377442E-01
 3.619581014E-01 -6.003680080E-02 -7.158121806E-01
 3.727950901E-01 -5.986718833E-02 -7.022719370E-01
 3.839650005E-01 -5.959129147E-02 -6.790172701E-01
 3.962374628E-01 -5.916522630E-02 -6.503838808E-01
 4.089058787E-01 -5.859663524E-02 -6.218337127E-01
 4.215034992E-01 -5.789730512E-02 -5.887331284E-01
 4.341039807E-01 -5.707142502E-02 -5.543117363E-01
 4.464953840E-01 -5.613234267E-02 -5.152257405E-01
 4.587024450E-01 -5.509399995E-02 -4.763727206E-01
 4.708605260E-01 -5.394408852E-02 -4.358776700E-01
 4.828598499E-01 -5.271932483E-02 -3.898208644E-01
 4.949366003E-01 -5.139528401E-02 -3.562404419E-01
 5.080778897E-01 -4.986787215E-02 -3.061681728E-01
 5.216402411E-01 -4.822109826E-02 -2.747274158E-01
 5.348053277E-01 -4.653725773E-02 -2.336396719E-01
 5.478617549E-01 -4.480681568E-02 -1.935723470E-01
 5.609764457E-01 -4.302493855E-02 -1.611549493E-01
 5.740758479E-01 -4.120668396E-02 -1.287731928E-01
 5.867343843E-01 -3.941032849E-02 -9.874219320E-02
 5.991642177E-01 -3.762252443E-02 -6.453075913E-02
 6.124584079E-01 -3.570678830E-02 -3.944982052E-02
 6.265486777E-01 -3.365827911E-02 -9.664509103E-03
 6.409047544E-01 -3.157895617E-02 2.011902031E-02
 6.547731161E-01 -2.958804090E-02 3.847648142E-02
 6.680670679E-01 -2.767171711E-02 6.059475094E-02
 6.809118688E-01 -2.581500541E-02 8.526076575E-02
 6.932269335E-01 -2.404759079E-02 1.069589344E-01
 7.066140771E-01 -2.214964293E-02 1.268503629E-01
 7.203637064E-01 -2.022146061E-02 1.497583606E-01
 7.327826023E-01 -1.851078775E-02 1.677172347E-01
 7.451462746E-01 -1.683471259E-02 1.832682508E-01
 7.577155828E-01 -1.514387131E-02 2.048144997E-01
 7.704500258E-01 -1.348287426E-02 2.251980829E-01
 7.830871046E-01 -1.189024793E-02 2.381276892E-01
 7.953577936E-01 -1.037218561E-02 2.552700438E-01
 8.070977032E-01 -8.956810459E-03 2.761764075E-01
 8.183221221E-01 -7.663496071E-03 2.920149209E-01
 8.305758238E-01 -6.342831301E-03 3.046996975E-01
 8.431472480E-01 -5.045161815E-03 3.182034930E-01
 8.553414047E-01 -3.857521107E-03 3.392231902E-01
 8.672438860E-01 -2.808226389E-03 3.510678832E-01
 8.789125085E-01 -1.886363840E-03 3.618997395E-01
 8.913317621E-01 -1.025889214E-03 3.709438695E-01
 9.029955268E-01 -3.280453166E-04 3.830180699E-01
 9.134758711E-01 1.781916872E-04 3.862255279E-01
 9.436382651E-01 1.051666011E-03 3.916564466E-01
 9.561026394E-01 1.161385968E-03 3.919350267E-01
 9.698352516E-01 1.125042967E-03 3.936155144E-01
 9.828861356E-01 9.464381728E-04 4.047683467E-01
 9.942155778E-01 6.664766988E-04 4.576995104E-01
 -5.000000000E-01 9.500000000E-01 2.406805694E-02
 -5.000000000E-01 9.000000000E-01 3.604796962E-02
 -5.000000000E-01 8.500000000E-01 4.567964979E-02
 -5.000000000E-01 8.000000000E-01 5.387486173E-02
 -5.000000000E-01 7.500000000E-01 6.184151047E-02
 -5.000000000E-01 7.000000000E-01 6.974841653E-02
 -5.000000000E-01 6.500000000E-01 7.781981975E-02
 -5.000000000E-01 6.000000000E-01 8.602746811E-02
 -5.000000000E-01 5.500000000E-01 9.450151970E-02
 -5.000000000E-01 5.000000000E-01 1.031772230E-01
 -5.000000000E-01 4.500000000E-01 1.120604725E-01
 -5.000000000E-01 4.000000000E-01 1.209346555E-01
 -5.000000000E-01 3.500000000E-01 1.298059884E-01
 -5.000000000E-01 3.000000000E-01 1.381150389E-01
 -5.000000000E-01 2.500000000E-01 1.460172320E-01
 -5.000000000E-01 2.000000000E-01 1.528837598E-01
 -5.000000000E-01 1.500000000E-01 1.587780043E-01
 -5.000000000E-01 1.000000000E-01 1.631852376E-01
 -5.000000000E-01 5.000000000E-02 1.660097825E-01
 -5.000000000E-01 2.752242878E-12 1.669484269E-01
 -5.000000000E-01 -5.000000000E-02 1.662779604E-01
 -5.000000000E-01 -1.000000000E-01 1.638089661E-01
 -5.000000000E-01 -1.500000000E-01 1.597028518E-01
 -5.000000000E-01 -2.000000000E-01 1.541960171E-01
 -5.000000000E-01 -2.500000000E-01 1.474822242E-01
 -5.000000000E-01 -3.000000000E-01 1.400633338E-01
 -5.000000000E-01 -3.500000000E-01 1.319711851E-01
 -5.000000000E-01 -4.000000000E-01 1.235110059E-01
 -5.000000000E-01 -4.500000000E-01 1.149252815E-01
 -5.000000000E-01 -5.000000000E-01 1.063431722E-01
 -5.000000000E-01 -5.500000000E-01 9.784478251E-02
 -5.000000000E-01 -6.000000000E-01 8.951562506E-02
 -5.000000000E-01 -6.500000000E-01 8.133456688E-02
 -5.000000000E-01 -7.000000000E-01 7.328731339E-02
 -5.000000000E-01 -7.500000000E-01 6.523329297E-02
 -5.000000000E-01 -8.000000000E-01 5.723203960E-02
 -5.000000000E-01 -8.500000000E-01 4.853628389E-02
 -5.000000000E-01 -9.000000000E-01 3.857273969E-02
 -5.000000000E-01 -9.500000000E-01 2.555979312E-02
 -4.500000000E-01 -1.000000000E+00 2.119007099E-02
 -4.000000000E-01 -1.000000000E+00 3.151994945E-02
 -3.500000000E-01 -1.000000000E+00 3.795838118E-02
 -3.000000000E-01 -1.000000000E+00 4.201505523E-02
 -2.500000000E-01 -1.000000000E+00 4.468428655E-02
 -2.000000000E-01 -1.000000000E+00 4.563300400E-02
 -1.500000000E-01 -1.000000000E+00 4.507658803E-02
 -1.000000000E-01 -1.000000000E+00 4.296430922E-02
 -5.000000000E-02 -1.000000000E+00 3.926634801E-02
 -9.424683256E-13 -1.000000000E+00 3.424517492E-02
 5.000000000E-02 -1.000000000E+00 2.788176775E-02
 1.000000000E-01 -1.000000000E+00 2.043649302E-02
 1.500000000E-01 -1.000000000E+00 1.214072320E-02
 2.000000000E-01 -1.000000000E+00 3.396075737E-03
 2.500000000E-01 -1.000000000E+00 -5.359943291E-03
 3.000000000E-01 -1.000000000E+00 -1.358683808E-02
 3.500000000E-01 -1.000000000E+00 -2.124490528E-02
 4.000000000E-01 -1.000000000E+00 -2.744333824E-02
 4.500000000E-01 -1.000000000E+00 -3.203671480E-02
 5.000000000E-01 -1.000000000E+00 -3.465175013E-02
 5.500000000E-01 -1.000000000E+00 -3.579474467E-02
 6.000000000E-01 -1.000000000E+00 -3.482187087E-02
 6.500000000E-01 -1.000000000E+00 -3.226398019E-02
 7.000000000E-01 -1.000000000E+00 -2.813327179E-02
 7.500000000E-01 -1.000000000E+00 -2.282368655E-02
 8.000000000E-01 -1.000000000E+00 -1.665674071E-02
 8.500000000E-01 -1.000000000E+00 -1.011532366E-02
 9.000000000E-01 -1.000000000E+00 -3.273449701E-03
 9.500000000E-01 -1.000000000E+00 3.352870828E-03
 1.000000000E+00 -1.000000000E+00 9.691628697E-03
 1.050000000E+00 -1.000000000E+00 1.550910628E-02
 1.100000000E+00 -1.000000000E+00 2.065271691E-02
 1.150000000E+00 -1.000000000E+00 2.511558306E-02
 1.200000000E+00 -1.000000000E+00 2.877777616E-02
 1.250000000E+00 -1.000000000E+00 3.184483396E-02
 1.300000000E+00 -1.000000000E+00 3.419798805E-02
 1.350000000E+00 -1.000000000E+00 3.597980778E-02
 1.400000000E+00 -1.000000000E+00 3.724247951E-02
 1.450000000E+00 -1.000000000E+00 3.800839443E-02
 1.500000000E+00 -1.000000000E+00 3.840792293E-02
 1.550000000E+00 -1.000000000E+00 3.843222260E-02
 1.600000000E+00 -1.000000000E+00 3.820999514E-02
 1.650000000E+00 -1.000000000E+00 3.776701593E-02
 1.700000000E+00 -1.000000000E+00 3.710132847E-02
 1.750000000E+00 -1.000000000E+00 3.634494433E-02
 1.800000000E+00 -1.000000000E+00 3.555510567E-02
 1.850000000E+00 -1.000000000E+00 3.453434829E-02
 1.900000000E+00 -1.000000000E+00 3.359406452E-02
 1.950000000E+00 -1.000000000E+00 3.253690630E-02
 2.000000000E+00 -1.000000000E+00 3.148291441E-02
 2.050000000E+00 -1.000000000E+00 3.044211653E-02
 2.100000000E+00 -1.000000000E+00 2.942994265E-02
 2.150000000E+00 -1.000000000E+00 2.841314596E-02
 2.200000000E+00 -1.000000000E+00 2.744635015E-02
 2.250000000E+00 -1.000000000E+00 2.651133407E-02
 2.300000000E+00 -1.000000000E+00 2.560024679E-02
 2.350000000E+00 -1.000000000E+00 2.474388467E-02
 2.400000000E+00 -1.000000000E+00 2.391281237E-02
 2.450000000E+00 -1.000000000E+00 2.313200925E-02
 2.500000000E+00 -1.000000000E+00 2.241847631E-02
 2.550000000E+00 -1.000000000E+00 2.174120435E-02
 2.600000000E+00 -1.000000000E+00 2.109874746E-02
 2.650000000E+00 -1.000000000E+00 2.053638494E-02
 2.700000000E+00 -1.000000000E+00 1.999301776E-02
 2.750000000E+00 -1.000000000E+00 1.952107750E-02
 2.800000000E+00 -1.000000000E+00 1.907957995E-02
 2.850000000E+00 -1.000000000E+00 1.869128478E-02
 2.900000000E+00 -1.000000000E+00 1.833040300E-02
 2.950000000E+00 -1.000000000E+00 1.801087356E-02
 3.000000000E+00 -1.000000000E+00 1.772338812E-02
 3.050000000E+00 -1.000000000E+00 1.743588209E-02
 3.100000000E+00 -1.000000000E+00 1.716510312E-02
 3.150000000E+00 -1.000000000E+00 1.691763148E-02
 3.200000000E+00 -1.000000000E+00 1.659835995E-02
 3.250000000E+00 -1.000000000E+00 1.623281878E-02
 3.300000000E+00 -1.000000000E+00 1.573649530E-02
 3.350000000E+00 -1.000000000E+00 1.498947758E-02
 3.400000000E+00 -1.000000000E+00 1.369776306E-02
 3.450000000E+00 -1.000000000E+00 1.097060991E-02
 3.500000000E+00 -9.500000000E-01 5.398511875E-03
 3.500000000E+00 -9.000000000E-01 7.041554299E-03
 3.500000000E+00 -8.500000000E-01 8.576444725E-03
 3.500000000E+00 -8.000000000E-01 1.007062383E-02
 3.500000000E+00 -7.500000000E-01 1.136222499E-02
 3.500000000E+00 -7.000000000E-01 1.268465584E-02
 3.500000000E+00 -6.500000000E-01 1.403384698E-02
 3.500000000E+00 -6.000000000E-01 1.539227585E-02
 3.500000000E+00 -5.500000000E-01 1.686604231E-02
 3.500000000E+00 -5.000000000E-01 1.834070269E-02
 3.500000000E+00 -4.500000000E-01 1.986754594E-02
 3.500000000E+00 -4.000000000E-01 2.135765187E-02
 3.500000000E+00 -3.500000000E-01 2.286380187E-02
 3.500000000E+00 -3.000000000E-01 2.425191296E-02
 3.500000000E+00 -2.500000000E-01 2.526014702E-02
 3.500000000E+00 -2.000000000E-01 2.586706170E-02
 3.500000000E+00 -1.500000000E-01 2.589442817E-02
 3.500000000E+00 -1.000000000E-01 2.562953565E-02
 3.500000000E+00 -5.000000000E-02 2.538509152E-02
 3.500000000E+00 -2.752242878E-12 2.547189478E-02
 3.500000000E+00 5.000000000E-02 2.567772486E-02
 3.500000000E+00 1.000000000E-01 2.572337374E-02
 3.500000000E+00 1.500000000E-01 2.522763283E-02
 3.500000000E+00 2.000000000E-01 2.413251098E-02
 3.500000000E+00 2.500000000E-01 2.270480413E-02
 3.500000000E+00 3.000000000E-01 2.117882359E-02
 3.500000000E+00 3.500000000E-01 1.963653004E-02
 3.500000000E+00 4.000000000E-01 1.812836191E-02
 3.500000000E+00 4.500000000E-01 1.649476622E-02
 3.500000000E+00 5.000000000E-01 1.486423022E-02
 3.500000000E+00 5.500000000E-01 1.349781739E-02
 3.500000000E+00 6.000000000E-01 1.261982367E-02
 3.500000000E+00 6.500000000E-01 1.225659889E-02
 3.500000000E+00 7.000000000E-01 1.162038953E-02
 3.500000000E+00 7.500000000E-01 9.845906029E-03
 3.500000000E+00 8.000000000E-01 3.440763516E-03
 3.500000000E+00 8.500000000E-01 -7.252267916E-03
 3.500000000E+00 9.000000000E-01 -1.965384276E-02
 3.500000000E+00 9.500000000E-01 -3.328377094E-02
 3.450000000E+00 1.000000000E+00 -1.496967889E-02
 3.400000000E+00 1.000000000E+00 -5.273350796E-03
 3.350000000E+00 1.000000000E+00 -1.905445472E-03
 3.300000000E+00 1.000000000E+00 -1.178124165E-03
 3.250000000E+00 1.000000000E+00 -1.395198389E-03
 3.200000000E+00 1.000000000E+00 -1.425486567E-03
 3.150000000E+00 1.000000000E+00 -2.461037429E-03
 3.100000000E+00 1.000000000E+00 -2.898301155E-03
 3.050000000E+00 1.000000000E+00 -3.816960769E-03
 3.000000000E+00 1.000000000E+00 -4.800220881E-03
 2.950000000E+00 1.000000000E+00 -5.763793325E-03
 2.900000000E+00 1.000000000E+00 -6.699898538E-03
 2.850000000E+00 1.000000000E+00 -7.911683158E-03
 2.800000000E+00 1.000000000E+00 -8.895415234E-03
 2.750000000E+00 1.000000000E+00 -1.007879481E-02
 2.700000000E+00 1.000000000E+00 -1.117810603E-02
 2.650000000E+00 1.000000000E+00 -1.261732984E-02
 2.600000000E+00 1.000000000E+00 -1.366100089E-02
 2.550000000E+00 1.000000000E+00 -1.509337904E-02
 2.500000000E+00 1.000000000E+00 -1.631895968E-02
 2.450000000E+00 1.000000000E+00 -1.785975375E-02
 2.400000000E+00 1.000000000E+00 -1.935744559E-02
 2.350000000E+00 1.000000000E+00 -2.098678596E-02
 2.300000000E+00 1.000000000E+00 -2.264405217E-02
 2.250000000E+00 1.000000000E+00 -2.448446589E-02
 2.200000000E+00 1.000000000E+00 -2.639285462E-02
 2.150000000E+00 1.000000000E+00 -2.822829529E-02
 2.100000000E+00 1.000000000E+00 -3.046597166E-02
 2.050000000E+00 1.000000000E+00 -3.273458658E-02
 2.000000000E+00 1.000000000E+00 -3.524038221E-02
 1.950000000E+00 1.000000000E+00 -3.797264307E-02
 1.900000000E+00 1.000000000E+00 -4.071729332E-02
 1.850000000E+00 1.000000000E+00 -4.380738143E-02
 1.800000000E+00 1.000000000E+00 -4.718308771E-02
 1.750000000E+00 1.000000000E+00 -5.082485524E-02
 1.700000000E+00 1.000000000E+00 -5.453673346E-02
 1.650000000E+00 1.000000000E+00 -5.878346993E-02
 1.600000000E+00 1.000000000E+00 -6.387980972E-02
 1.550000000E+00 1.000000000E+00 -6.873857503E-02
 1.500000000E+00 1.000000000E+00 -7.446581323E-02
 1.450000000E+00 1.000000000E+00 -8.031390993E-02
 1.400000000E+00 1.000000000E+00 -8.688944346E-02
 1.350000000E+00 1.000000000E+00 -9.372011057E-02
 1.300000000E+00 1.000000000E+00 -1.011535760E-01
 1.250000000E+00 1.000000000E+00 -1.093229808E-01
 1.200000000E+00 1.000000000E+00 -1.169146355E-01
 1.150000000E+00 1.000000000E+00 -1.254260198E-01
 1.100000000E+00 1.000000000E+00 -1.340731783E-01
 1.050000000E+00 1.000000000E+00 -1.404616962E-01
 1.000000000E+00 1.000000000E+00 -1.481000673E-01
 9.500000000E-01 1.000000000E+00 -1.544006010E-01
 9.000000000E-01 1.000000000E+00 -1.587728348E-01
 8.500000000E-01 1.000000000E+00 -1.618099136E-01
 8.000000000E-01 1.000000000E+00 -1.621097438E-01
 7.500000000E-01 1.000000000E+00 -1.604859812E-01
 7.000000000E-01 1.000000000E+00 -1.567473932E-01
 6.500000000E-01 1.000000000E+00 -1.490771639E-01
 6.000000000E-01 1.000000000E+00 -1.410594578E-01
 5.500000000E-01 1.000000000E+00 -1.290200922E-01
 5.000000000E-01 1.000000000E+00 -1.157437333E-01
 4.500000000E-01 1.000000000E+00 -1.015432122E-01
 4.000000000E-01 1.000000000E+00 -8.586378651E-02
 3.500000000E-01 1.000000000E+00 -6.993513893E-02
 3.000000000E-01 1.000000000E+00 -5.402070615E-02
 2.500000000E-01 1.000000000E+00 -3.835876049E-02
 2.000000000E-01 1.000000000E+00 -2.358579190E-02
 1.500000000E-01 1.000000000E+00 -9.972229740E-03
 1.000000000E-01 1.000000000E+00 2.487861266E-03
 5.000000000E-02 1.000000000E+00 1.339207324E-02
 1.733724275E-12 1.000000000E+00 2.254442662E-02
 -5.000000000E-02 1.000000000E+00 2.983552137E-02
 -1.000000000E-01 1.000000000E+00 3.518498243E-02
 -1.500000000E-01 1.000000000E+00 3.871951891E-02
 -2.000000000E-01 1.000000000E+00 4.037822169E-02
 -2.500000000E-01 1.000000000E+00 4.041390145E-02
 -3.000000000E-01 1.000000000E+00 3.862942391E-02
 -3.500000000E-01 1.000000000E+00 3.518793269E-02
 -4.000000000E-01 1.000000000E+00 2.941273526E-02
 -4.500000000E-01 1.000000000E+00 1.978752519E-02
 1.976885560E+00 -9.610697479E-01 3.142040972E-02
 1.975434423E+00 9.568569186E-01 -3.466897072E-02
 9.058017988E-01 -4.650961224E-03 3.768275646E-01
 9.858165780E-01 -3.214148305E-03 4.074888397E-01
 8.347770524E-01 -1.148977966E-02 3.026843736E-01
 7.538172462E-01 -2.031582507E-02 1.956253608E-01
 6.844355624E-01 -3.077926254E-02 8.987310093E-02
 6.162813878E-01 -4.166717818E-02 -3.261968026E-02
 5.453430775E-01 -5.089866759E-02 -1.998725787E-01
 4.806814788E-01 -5.812029053E-02 -3.900232262E-01
 4.251499581E-01 -6.254186083E-02 -5.692469991E-01