TITLE     = "Visualization of the solution"
VARIABLES = "x"
"y"
"Pressure_Coefficient"
ZONE T="Zone"
 STRANDID=0, SOLUTIONTIME=0
 Nodes=11905, Elements=23229, ZONETYPE=FEQuadrilateral
 DATAPACKING=POINT
 DT=(DOUBLE DOUBLE DOUBLE )
 9.999598861E-01 5.086130113E-04 3.291533668E-01
 9.887478948E-01 2.650050446E-03 2.468549660E-01
 9.759951234E-01 4.991533700E-03 1.827920089E-01
 9.591432810E-01 8.169730194E-03 1.168807944E-01
 9.440041184E-01 1.102825161E-02 6.389745356E-02
 9.283444285E-01 1.394553296E-02 2.683303055E-02
 9.165102839E-01 1.618471369E-02 -1.761068365E-02
 9.042103887E-01 1.847369969E-02 -6.047675594E-02
 8.920851946E-01 2.063528076E-02 -7.729338092E-02
 8.804059625E-01 2.275994420E-02 -1.296465176E-01
 8.677256703E-01 2.490770817E-02 -1.428710122E-01
 8.550969958E-01 2.699993365E-02 -1.543863953E-01
 8.429931998E-01 2.904979698E-02 -2.070535010E-01
 8.318629265E-01 3.079520538E-02 -2.087424105E-01
 8.202235103E-01 3.260277212E-02 -2.211538300E-01
 8.081403375E-01 3.447072953E-02 -2.485816915E-01
 7.956910729E-01 3.635015339E-02 -2.731267839E-01
 7.831637859E-01 3.816597536E-02 -2.834071066E-01
 7.712387443E-01 3.989903629E-02 -3.159274499E-01
 7.593077421E-01 4.154598340E-02 -3.234341378E-01
 7.462540269E-01 4.333941638E-02 -3.511691074E-01
 7.327685952E-01 4.512529448E-02 -3.742122133E-01
 7.219381332E-01 4.651825875E-02 -3.897201659E-01
 7.108984590E-01 4.789993167E-02 -4.045465712E-01
 6.994400620E-01 4.931383580E-02 -4.318516081E-01
 6.861724854E-01 5.089081451E-02 -4.601986948E-01
 6.732898355E-01 5.235219747E-02 -4.828519046E-01
 6.632061005E-01 5.344539881E-02 -4.981051249E-01
 6.516832709E-01 5.466680974E-02 -5.251259463E-01
 6.397295594E-01 5.585278198E-02 -5.374624581E-01
 6.281434894E-01 5.696720630E-02 -5.647417681E-01
 6.166259646E-01 5.801107362E-02 -5.840704294E-01
 6.059723496E-01 5.892428756E-02 -6.050600430E-01
 5.936162472E-01 5.993051082E-02 -6.338643832E-01
 5.821445584E-01 6.078753993E-02 -6.445782063E-01
 5.690393448E-01 6.170040369E-02 -6.647690213E-01
 5.567105412E-01 6.245125830E-02 -7.045392244E-01
 5.448986292E-01 6.311620027E-02 -7.620670543E-01
 5.339749455E-01 6.367059797E-02 -7.771992648E-01
 5.226777792E-01 6.418505311E-02 -7.613132548E-01
 5.101020336E-01 6.465836614E-02 -7.525071175E-01
 4.988589883E-01 6.503957510E-02 -7.536674486E-01
 4.858902097E-01 6.539628655E-02 -7.369639475E-01
 4.725106061E-01 6.566946954E-02 -7.181986652E-01
 4.584830105E-01 6.587388366E-02 -7.069259189E-01
 4.455714524E-01 6.597344577E-02 -6.918720242E-01
 4.329647124E-01 6.600715965E-02 -6.800847940E-01
 4.205553830E-01 6.596498936E-02 -6.598809108E-01
 4.082544148E-01 6.585380435E-02 -6.410490137E-01
 3.961251974E-01 6.568664312E-02 -6.293099400E-01
 3.839330673E-01 6.546195596E-02 -6.289648371E-01
 3.726055324E-01 6.520225108E-02 -6.181480784E-01
 3.597989380E-01 6.482142210E-02 -5.993000462E-01
 3.473666310E-01 6.439717859E-02 -5.845643488E-01
 3.344357908E-01 6.387322396E-02 -5.668295190E-01
 3.233986795E-01 6.338521838E-02 -5.607777915E-01
 3.106796741E-01 6.275714189E-02 -5.491496265E-01
 2.976059318E-01 6.202511862E-02 -5.308346700E-01
 2.838171124E-01 6.118650362E-02 -5.213564359E-01
 2.713789642E-01 6.033950672E-02 -5.015671760E-01
 2.596212626E-01 5.949417874E-02 -4.959550735E-01
 2.473673671E-01 5.853114277E-02 -4.795374833E-01
 2.348887175E-01 5.747513101E-02 -4.647519262E-01
 2.225376219E-01 5.635973066E-02 -4.537431465E-01
 2.107819468E-01 5.521301925E-02 -4.359719946E-01
 1.989082247E-01 5.398989841E-02 -4.234395899E-01
 1.862289011E-01 5.258914083E-02 -4.077814510E-01
 1.741229743E-01 5.115808919E-02 -3.909686929E-01
 1.625945419E-01 4.971170053E-02 -3.740263691E-01
 1.504391283E-01 4.808240011E-02 -3.549192770E-01
 1.394892931E-01 4.653339088E-02 -3.400078999E-01
 1.277320981E-01 4.475121945E-02 -3.171030152E-01
 1.161414683E-01 4.288835078E-02 -2.990705325E-01
 1.054351702E-01 4.104945436E-02 -2.789894922E-01
 9.536065906E-02 3.921215236E-02 -2.581399437E-01
 8.415596932E-02 3.701592237E-02 -2.284370663E-01
 7.259036601E-02 3.456385806E-02 -2.025526921E-01
 6.262116879E-02 3.227220103E-02 -1.646002798E-01
 5.286753178E-02 2.983875200E-02 -1.309363761E-01
 4.430224374E-02 2.749374509E-02 -9.332292482E-02
 3.697282448E-02 2.530710399E-02 -5.276744504E-02
 3.043125570E-02 2.317298017E-02 -1.266915306E-02
 2.485180087E-02 2.118114009E-02 2.539304647E-02
 2.078863047E-02 1.958952658E-02 7.687191112E-02
 1.695466600E-02 1.795855537E-02 1.192752564E-01
 1.389187574E-02 1.653962210E-02 1.733265902E-01
 1.109632757E-02 1.511610765E-02 2.264956637E-01
 9.051479399E-03 1.397604123E-02 2.776323791E-01
 7.263899315E-03 1.289621647E-02 3.192002533E-01
 5.645938683E-03 1.182513963E-02 4.028863634E-01
 3.507451387E-03 1.022497844E-02 5.040476714E-01
 1.651525963E-03 8.566170000E-03 6.261761922E-01
 1.085896947E-04 6.819477305E-03 8.382122854E-01
 -1.365829026E-03 4.371984862E-03 1.032372036E+00
 -1.931655454E-03 2.558779204E-03 1.157127716E+00
 -2.065856475E-03 1.104682451E-03 1.183271922E+00
 -1.895952853E-03 -4.304338945E-04 1.137416232E+00
 -1.422029454E-03 -1.956782537E-03 1.001958940E+00
 -4.729203065E-04 -3.734229831E-03 8.331180530E-01
 9.222287335E-04 -5.542870611E-03 6.162198511E-01
 2.850201447E-03 -7.426114287E-03 4.467710103E-01
 4.635772202E-03 -8.851660416E-03 3.041316067E-01
 6.617513020E-03 -1.020980719E-02 2.200612369E-01
 8.238767274E-03 -1.120598707E-02 1.499203452E-01
 1.025711652E-02 -1.233252138E-02 1.010221461E-01
 1.254169270E-02 -1.348938234E-02 4.485192007E-02
 1.572319120E-02 -1.494392008E-02 -4.393942999E-03
 1.853119396E-02 -1.610704884E-02 -5.517665280E-02
 2.210901305E-02 -1.746474952E-02 -8.539084019E-02
 2.723957598E-02 -1.921313815E-02 -1.138171753E-01
 3.288645297E-02 -2.094957232E-02 -1.505536177E-01
 3.968647122E-02 -2.282368764E-02 -1.751152938E-01
 4.722417518E-02 -2.469548211E-02 -1.945242937E-01
 5.602731928E-02 -2.668279037E-02 -2.110165762E-01
 6.487419456E-02 -2.849941887E-02 -2.264407659E-01
 7.477137446E-02 -3.037673421E-02 -2.383549880E-01
 8.458516002E-02 -3.208665550E-02 -2.509366793E-01
 9.492875636E-02 -3.377209976E-02 -2.618149976E-01
 1.058782265E-01 -3.544173390E-02 -2.731772767E-01
 1.174464002E-01 -3.709683195E-02 -2.890269042E-01
 1.291503310E-01 -3.865595534E-02 -2.980347994E-01
 1.402906179E-01 -4.005711153E-02 -3.108376776E-01
 1.515862644E-01 -4.140272364E-02 -3.253964516E-01
 1.637681872E-01 -4.276659340E-02 -3.388356216E-01
 1.754915267E-01 -4.400115088E-02 -3.534331641E-01
 1.877957582E-01 -4.521688074E-02 -3.665746390E-01
 1.987943500E-01 -4.624102637E-02 -3.830717901E-01
 2.103614360E-01 -4.725579172E-02 -4.007572334E-01
 2.228556871E-01 -4.826619476E-02 -4.142892219E-01
 2.359143198E-01 -4.924836010E-02 -4.356714760E-01
 2.485027611E-01 -5.010265484E-02 -4.539392037E-01
 2.611378431E-01 -5.088036880E-02 -4.734546643E-01
 2.724358141E-01 -5.149181560E-02 -4.868766774E-01
 2.852557003E-01 -5.211386830E-02 -5.038469034E-01
 2.978673279E-01 -5.264125392E-02 -5.330358641E-01
 3.107625544E-01 -5.305954441E-02 -5.465878104E-01
 3.227526248E-01 -5.336004123E-02 -5.600171461E-01
 3.353707194E-01 -5.357939005E-02 -5.782021637E-01
 3.466229141E-01 -5.367329344E-02 -5.899213516E-01
 3.581573665E-01 -5.368453264E-02 -5.998360443E-01
 3.689585626E-01 -5.357948318E-02 -5.877661720E-01
 3.798258007E-01 -5.342436954E-02 -5.982172447E-01
 3.915236592E-01 -5.312770605E-02 -5.934713978E-01
 4.043910801E-01 -5.267181247E-02 -5.671281300E-01
 4.170055985E-01 -5.209683254E-02 -5.440578603E-01
 4.298346937E-01 -5.138757080E-02 -5.200300732E-01
 4.418580234E-01 -5.058366433E-02 -4.792169999E-01
 4.534747005E-01 -4.973917082E-02 -4.600223352E-01
 4.651464522E-01 -4.876213893E-02 -4.224826727E-01
 4.771420956E-01 -4.766366631E-02 -3.819105928E-01
 4.887734056E-01 -4.651703686E-02 -3.492897526E-01
 5.011471510E-01 -4.520602152E-02 -3.084470302E-01
 5.143868923E-01 -4.371743649E-02 -2.678875157E-01
 5.274804235E-01 -4.217646644E-02 -2.306597170E-01
 5.407354832E-01 -4.054962471E-02 -1.932836113E-01
 5.531009436E-01 -3.899341449E-02 -1.632222563E-01
 5.663310289E-01 -3.727613762E-02 -1.290982086E-01
 5.789064169E-01 -3.561116755E-02 -9.819506648E-02
 5.907603502E-01 -3.402313590E-02 -7.108955271E-02
 6.029536128E-01 -3.236790001E-02 -4.077489726E-02
 6.170762777E-01 -3.047853522E-02 -2.223830481E-02
 6.314135194E-01 -2.851767465E-02 7.651571732E-03
 6.460422873E-01 -2.650316805E-02 3.776803471E-02
 6.588160396E-01 -2.475902624E-02 6.116598090E-02
 6.720348001E-01 -2.297927625E-02 8.006734135E-02
 6.843745112E-01 -2.131795324E-02 1.022540913E-01
 6.968204975E-01 -1.967656426E-02 1.175625695E-01
 7.110949159E-01 -1.779324934E-02 1.414174421E-01
 7.238636613E-01 -1.613517292E-02 1.618952431E-01
 7.358729243E-01 -1.461604517E-02 1.775840285E-01
 7.491274476E-01 -1.298733894E-02 1.892550826E-01
 7.609731555E-01 -1.150689926E-02 2.160939197E-01
 7.740756869E-01 -9.943404235E-03 2.335792548E-01
 7.858948708E-01 -8.608955890E-03 2.440217027E-01
 7.988810539E-01 -7.162200753E-03 2.645678462E-01
 8.101432323E-01 -5.984874908E-03 2.746968665E-01
 8.218930960E-01 -4.789609462E-03 2.915547458E-01
 8.345801234E-01 -3.564344486E-03 3.092359916E-01
 8.474053144E-01 -2.428499050E-03 3.234058699E-01
 8.596227169E-01 -1.436135382E-03 3.387002276E-01
 8.716784120E-01 -5.864645937E-04 3.458679632E-01
 8.835116029E-01 1.703087473E-04 3.605788956E-01
 8.969225287E-01 8.660484455E-04 3.668046991E-01
 9.076421261E-01 1.293846522E-03 3.713706045E-01
 9.185927510E-01 1.626168960E-03 3.739698054E-01
 9.286860824E-01 1.829326269E-03 3.742481090E-01
 9.376378059E-01 1.930970233E-03 3.758789449E-01
 9.497104883E-01 1.950533828E-03 3.731401528E-01
 9.622483253E-01 1.833354123E-03 3.710653967E-01
 9.763774276E-01 1.537180156E-03 3.714673686E-01
 9.883817434E-01 1.130373450E-03 3.761954464E-01
 -5.000000000E-01 -1.000000000E+00 1.438698168E-02
 3.500000000E+00 -1.000000000E+00 7.152084004E-03
 3.500000000E+00 1.000000000E+00 -2.788132624E-02
 -5.000000000E-01 1.000000000E+00 1.324882669E-02
 9.943538904E-01 1.579331729E-03 3.275215435E-01
 9.823715091E-01 3.820792073E-03 2.143358785E-01
 9.675692022E-01 6.580631947E-03 1.471062223E-01
 9.515736997E-01 9.598990902E-03 8.832693802E-02
 9.361742735E-01 1.248689229E-02 4.579608433E-02
 9.224273562E-01 1.506512333E-02 3.491086042E-03
 9.103603363E-01 1.732920669E-02 -4.299414975E-02
 8.981477916E-01 1.955449022E-02 -6.284815476E-02
 8.862455785E-01 2.169761248E-02 -1.103025585E-01
 8.740658164E-01 2.383382618E-02 -1.368799554E-01
 8.614113331E-01 2.595382091E-02 -1.414362562E-01
 8.490450978E-01 2.802486531E-02 -1.874513635E-01
 8.374280632E-01 2.992250118E-02 -2.064389698E-01
 8.260432184E-01 3.169898875E-02 -2.126069044E-01
 8.141819239E-01 3.353675082E-02 -2.346298171E-01
 8.019157052E-01 3.541044146E-02 -2.646384392E-01
 7.894274294E-01 3.725806437E-02 -2.733511907E-01
 7.772012651E-01 3.903250583E-02 -3.046867274E-01
 7.652732432E-01 4.072250985E-02 -3.165678549E-01
 7.527808845E-01 4.244269989E-02 -3.385283110E-01
 7.395113111E-01 4.423235543E-02 -3.623613085E-01
 7.273533642E-01 4.582177661E-02 -3.830555288E-01
 7.164182961E-01 4.720909521E-02 -3.949526906E-01
 7.051692605E-01 4.860688373E-02 -4.188936806E-01
 6.928062737E-01 5.010232516E-02 -4.464353645E-01
 6.797311604E-01 5.162150599E-02 -4.728534286E-01
 6.682479680E-01 5.289879814E-02 -4.871795987E-01
 6.574446857E-01 5.405610427E-02 -5.157735836E-01
 6.457064152E-01 5.525979586E-02 -5.282236454E-01
 6.339365244E-01 5.640999414E-02 -5.521865039E-01
 6.223847270E-01 5.748913996E-02 -5.745373561E-01
 6.112991571E-01 5.846768059E-02 -5.930277180E-01
 5.997942984E-01 5.942739919E-02 -6.220840018E-01
 5.878804028E-01 6.035902537E-02 -6.387979760E-01
 5.755919516E-01 6.124397181E-02 -6.558653100E-01
 5.628749430E-01 6.207583100E-02 -6.768385313E-01
 5.508045852E-01 6.278372929E-02 -7.373740135E-01
 5.394367874E-01 6.339339912E-02 -7.744013557E-01
 5.283263624E-01 6.392782554E-02 -7.735941159E-01
 5.163899064E-01 6.442170963E-02 -7.507419983E-01
 5.044805110E-01 6.484897062E-02 -7.569012931E-01
 4.923745990E-01 6.521793082E-02 -7.472709821E-01
 4.792004079E-01 6.553287804E-02 -7.259087373E-01
 4.654968083E-01 6.577167660E-02 -7.133724349E-01
 4.520272315E-01 6.592366472E-02 -6.978274627E-01
 4.392680824E-01 6.599030271E-02 -6.871338334E-01
 4.267600477E-01 6.598607451E-02 -6.704568624E-01
 4.144048989E-01 6.590939686E-02 -6.494926007E-01
 4.021898061E-01 6.577022374E-02 -6.339353390E-01
 3.900291324E-01 6.557429954E-02 -6.277142333E-01
 3.782692999E-01 6.533210352E-02 -6.279578924E-01
 3.662022352E-01 6.501183659E-02 -6.061549674E-01
 3.535827845E-01 6.460930035E-02 -5.944914216E-01
 3.409012109E-01 6.413520128E-02 -5.725255491E-01
 3.289172351E-01 6.362922117E-02 -5.643486397E-01
 3.170391768E-01 6.307118014E-02 -5.575817435E-01
 3.041428030E-01 6.239113025E-02 -5.378554890E-01
 2.907115221E-01 6.160581112E-02 -5.282328561E-01
 2.775980383E-01 6.076300517E-02 -5.082299753E-01
 2.655001134E-01 5.991684273E-02 -5.007262839E-01
 2.534943148E-01 5.901266076E-02 -4.881939063E-01
 2.411280423E-01 5.800313689E-02 -4.710926391E-01
 2.287131697E-01 5.691743083E-02 -4.606635283E-01
 2.166597843E-01 5.578637496E-02 -4.434694913E-01
 2.048450857E-01 5.460145883E-02 -4.309085944E-01
 1.925685629E-01 5.328951962E-02 -4.159183046E-01
 1.801759377E-01 5.187361501E-02 -3.982979385E-01
 1.683587581E-01 5.043489486E-02 -3.843542933E-01
 1.565168351E-01 4.889705032E-02 -3.622657325E-01
 1.449642107E-01 4.730789550E-02 -3.499725516E-01
 1.336106956E-01 4.564230517E-02 -3.278254189E-01
 1.219367832E-01 4.381978512E-02 -3.083555955E-01
 1.107883193E-01 4.196890257E-02 -2.877857307E-01
 1.003979146E-01 4.013080336E-02 -2.712605658E-01
 8.975831419E-02 3.811403736E-02 -2.451960102E-01
 7.837316766E-02 3.578989021E-02 -2.132992474E-01
 6.760576740E-02 3.341802955E-02 -1.901468576E-01
 8.975695819E-02 -3.292937763E-02 -2.572939541E-01
 1.004034914E-01 -3.460691683E-02 -2.671430427E-01
 1.116623133E-01 -3.626928292E-02 -2.806576245E-01
 1.232983656E-01 -3.787639365E-02 -2.946753837E-01
 1.347204745E-01 -3.935653344E-02 -3.044759018E-01
 1.459384412E-01 -4.072991759E-02 -3.177453789E-01
 1.576772258E-01 -4.208465852E-02 -3.319753475E-01
 1.696298569E-01 -4.338387214E-02 -3.464471029E-01
 1.816436425E-01 -4.460901581E-02 -3.597815796E-01
 1.932950541E-01 -4.572895356E-02 -3.753664163E-01
 2.045778930E-01 -4.674840905E-02 -3.911053047E-01
 2.166085616E-01 -4.776099324E-02 -4.078515354E-01
 2.293850034E-01 -4.875727743E-02 -4.232509119E-01
 2.422085404E-01 -4.967550747E-02 -4.465420020E-01
 2.548203021E-01 -5.049151182E-02 -4.624540884E-01
 2.667868286E-01 -5.118609220E-02 -4.826338168E-01
 2.788457572E-01 -5.180284195E-02 -4.922693707E-01
 2.915615141E-01 -5.237756111E-02 -5.178641617E-01
 3.043149412E-01 -5.285039917E-02 -5.423973686E-01
 3.167575896E-01 -5.320979282E-02 -5.525465539E-01
 3.290616721E-01 -5.346971564E-02 -5.679190947E-01
 3.409968168E-01 -5.362634175E-02 -5.869029740E-01
 3.523901403E-01 -5.367891304E-02 -5.932157823E-01
 3.635579646E-01 -5.363200791E-02 -5.995635016E-01
 3.743921816E-01 -5.350192636E-02 -5.862051890E-01
 3.856747299E-01 -5.327603780E-02 -6.011724938E-01
 3.979573697E-01 -5.289975926E-02 -5.799190249E-01
 4.106983393E-01 -5.238432251E-02 -5.557571721E-01
 4.234201461E-01 -5.174220167E-02 -5.321723714E-01
 4.358463585E-01 -5.098561756E-02 -5.033453356E-01
 4.476663619E-01 -5.016141757E-02 -4.648942609E-01
 4.593105763E-01 -4.925065488E-02 -4.462733687E-01
 4.711442739E-01 -4.821290262E-02 -4.004051341E-01
 4.829577506E-01 -4.709035158E-02 -3.660024614E-01
 4.949602783E-01 -4.586152919E-02 -3.294367706E-01
 5.077670217E-01 -4.446172900E-02 -2.879566532E-01
 5.209336579E-01 -4.294695146E-02 -2.492309550E-01
 5.341079533E-01 -4.136304557E-02 -2.121086159E-01
 5.469182134E-01 -3.977151960E-02 -1.776368302E-01
 5.597159863E-01 -3.813477606E-02 -1.468976555E-01
 5.726187229E-01 -3.644365259E-02 -1.133820596E-01
 5.848333836E-01 -3.481715173E-02 -8.448175751E-02
 5.968569815E-01 -3.319551796E-02 -5.670143582E-02
 6.100149453E-01 -3.142321762E-02 -2.991432283E-02
 6.242448986E-01 -2.949810494E-02 -8.708810491E-03
 6.387279034E-01 -2.751042135E-02 2.238380600E-02
 6.524291635E-01 -2.563109715E-02 5.028551770E-02
 6.654254198E-01 -2.386915125E-02 7.111837271E-02
 6.782046556E-01 -2.214861475E-02 9.068793158E-02
 6.905975044E-01 -2.049725875E-02 1.108276441E-01
 7.039577067E-01 -1.873490680E-02 1.280222349E-01
 7.174792886E-01 -1.696421113E-02 1.518758858E-01
 7.298682928E-01 -1.537560904E-02 1.704250227E-01
 7.425001860E-01 -1.380169205E-02 1.840227786E-01
 7.550503016E-01 -1.224711910E-02 2.001557490E-01
 7.675244212E-01 -1.072515175E-02 2.253463352E-01
 7.799852788E-01 -9.276180062E-03 2.405175994E-01
 7.923879623E-01 -7.885578321E-03 2.524977575E-01
 8.045121431E-01 -6.573537830E-03 2.716884186E-01
 8.160181642E-01 -5.387242185E-03 2.819871606E-01
 8.282366097E-01 -4.176976974E-03 2.995276901E-01
 8.409927189E-01 -2.996421768E-03 3.163172274E-01
 8.535140157E-01 -1.932317216E-03 3.309707412E-01
 8.656505644E-01 -1.011299988E-03 3.432428023E-01
 8.775950074E-01 -2.080779232E-04 3.514779837E-01
 8.902170658E-01 5.181785964E-04 3.628098776E-01
 9.022823274E-01 1.079947484E-03 3.716988812E-01
 9.131174386E-01 1.460007741E-03 3.727079067E-01
 9.436741471E-01 1.940752030E-03 3.736943858E-01
 9.559794068E-01 1.891943975E-03 3.717891155E-01
 9.693128765E-01 1.685267140E-03 3.695220569E-01
 9.823795855E-01 1.333776803E-03 3.757073260E-01
 9.941708148E-01 8.194932307E-04 4.086713192E-01
 -5.000000000E-01 9.500000000E-01 2.168672290E-02
 -5.000000000E-01 9.000000000E-01 3.280983323E-02
 -5.000000000E-01 8.500000000E-01 4.129777986E-02
 -5.000000000E-01 8.000000000E-01 4.894891912E-02
 -5.000000000E-01 7.500000000E-01 5.614835077E-02
 -5.000000000E-01 7.000000000E-01 6.333855913E-02
 -5.000000000E-01 6.500000000E-01 7.068385236E-02
 -5.000000000E-01 6.000000000E-01 7.825095147E-02
 -5.000000000E-01 5.500000000E-01 8.592962056E-02
 -5.000000000E-01 5.000000000E-01 9.399668238E-02
 -5.000000000E-01 4.500000000E-01 1.020237065E-01
 -5.000000000E-01 4.000000000E-01 1.101454008E-01
 -5.000000000E-01 3.500000000E-01 1.182027853E-01
 -5.000000000E-01 3.000000000E-01 1.258450461E-01
 -5.000000000E-01 2.500000000E-01 1.329750845E-01
 -5.000000000E-01 2.000000000E-01 1.393590067E-01
 -5.000000000E-01 1.500000000E-01 1.446137889E-01
 -5.000000000E-01 1.000000000E-01 1.486177085E-01
 -5.000000000E-01 5.000000000E-02 1.511521300E-01
 -5.000000000E-01 2.752242878E-12 1.520710013E-01
 -5.000000000E-01 -5.000000000E-02 1.513259589E-01
 -5.000000000E-01 -1.000000000E-01 1.490740443E-01
 -5.000000000E-01 -1.500000000E-01 1.452484204E-01
 -5.000000000E-01 -2.000000000E-01 1.404293077E-01
 -5.000000000E-01 -2.500000000E-01 1.343788158E-01
 -5.000000000E-01 -3.000000000E-01 1.276013824E-01
 -5.000000000E-01 -3.500000000E-01 1.202539168E-01
 -5.000000000E-01 -4.000000000E-01 1.126150412E-01
 -5.000000000E-01 -4.500000000E-01 1.048967007E-01
 -5.000000000E-01 -5.000000000E-01 9.714102459E-02
 -5.000000000E-01 -5.500000000E-01 8.939905325E-02
 -5.000000000E-01 -6.000000000E-01 8.183472983E-02
 -5.000000000E-01 -6.500000000E-01 7.442574579E-02
 -5.000000000E-01 -7.000000000E-01 6.716138926E-02
 -5.000000000E-01 -7.500000000E-01 5.984929145E-02
 -5.000000000E-01 -8.000000000E-01 5.237579670E-02
 -5.000000000E-01 -8.500000000E-01 4.449128617E-02
 -5.000000000E-01 -9.000000000E-01 3.551043261E-02
 -5.000000000E-01 -9.500000000E-01 2.349065509E-02
 -4.500000000E-01 -1.000000000E+00 1.939213018E-02
 -4.000000000E-01 -1.000000000E+00 2.887960170E-02
 -3.500000000E-01 -1.000000000E+00 3.490788305E-02
 -3.000000000E-01 -1.000000000E+00 3.878085674E-02
 -2.500000000E-01 -1.000000000E+00 4.126573771E-02
 -2.000000000E-01 -1.000000000E+00 4.232772178E-02
 -1.500000000E-01 -1.000000000E+00 4.202770133E-02
 -1.000000000E-01 -1.000000000E+00 4.025490419E-02
 -5.000000000E-02 -1.000000000E+00 3.727397767E-02
 -9.424683256E-13 -1.000000000E+00 3.295030130E-02
 5.000000000E-02 -1.000000000E+00 2.751796942E-02
 1.000000000E-01 -1.000000000E+00 2.118008706E-02
 1.500000000E-01 -1.000000000E+00 1.418398703E-02
 2.000000000E-01 -1.000000000E+00 6.814943112E-03
 2.500000000E-01 -1.000000000E+00 -5.332884382E-04
 3.000000000E-01 -1.000000000E+00 -7.530607378E-03
 3.500000000E-01 -1.000000000E+00 -1.372748264E-02
 4.000000000E-01 -1.000000000E+00 -1.876149529E-02
 4.500000000E-01 -1.000000000E+00 -2.241307338E-02
 5.000000000E-01 -1.000000000E+00 -2.451565805E-02
 5.500000000E-01 -1.000000000E+00 -2.505943978E-02
 6.000000000E-01 -1.000000000E+00 -2.396055260E-02
 6.500000000E-01 -1.000000000E+00 -2.127106824E-02
 7.000000000E-01 -1.000000000E+00 -1.749078896E-02
 7.500000000E-01 -1.000000000E+00 -1.260435546E-02
 8.000000000E-01 -1.000000000E+00 -7.009255471E-03
 8.500000000E-01 -1.000000000E+00 -1.055955844E-03
 9.000000000E-01 -1.000000000E+00 5.055219669E-03
 9.500000000E-01 -1.000000000E+00 1.096797904E-02
 1.000000000E+00 -1.000000000E+00 1.654771831E-02
 1.050000000E+00 -1.000000000E+00 2.158232507E-02
 1.100000000E+00 -1.000000000E+00 2.602635167E-02
 1.150000000E+00 -1.000000000E+00 2.980794488E-02
 1.200000000E+00 -1.000000000E+00 3.297674095E-02
 1.250000000E+00 -1.000000000E+00 3.545514856E-02
 1.300000000E+00 -1.000000000E+00 3.737702899E-02
 1.350000000E+00 -1.000000000E+00 3.872644999E-02
 1.400000000E+00 -1.000000000E+00 3.961296035E-02
 1.450000000E+00 -1.000000000E+00 4.007287546E-02
 1.500000000E+00 -1.000000000E+00 4.017132377E-02
 1.550000000E+00 -1.000000000E+00 3.996482418E-02
 1.600000000E+00 -1.000000000E+00 3.956569166E-02
 1.650000000E+00 -1.000000000E+00 3.886797670E-02
 1.700000000E+00 -1.000000000E+00 3.812839998E-02
 1.750000000E+00 -1.000000000E+00 3.716693859E-02
 1.800000000E+00 -1.000000000E+00 3.620151807E-02
 1.850000000E+00 -1.000000000E+00 3.514572715E-02
 1.900000000E+00 -1.000000000E+00 3.402774935E-02
 1.950000000E+00 -1.000000000E+00 3.303762984E-02
 2.000000000E+00 -1.000000000E+00 3.183683412E-02
 2.050000000E+00 -1.000000000E+00 3.071233039E-02
 2.100000000E+00 -1.000000000E+00 2.962713074E-02
 2.150000000E+00 -1.000000000E+00 2.855881344E-02
 2.200000000E+00 -1.000000000E+00 2.752920197E-02
 2.250000000E+00 -1.000000000E+00 2.660374144E-02
 2.300000000E+00 -1.000000000E+00 2.561396968E-02
 2.350000000E+00 -1.000000000E+00 2.473565267E-02
 2.400000000E+00 -1.000000000E+00 2.385398204E-02
 2.450000000E+00 -1.000000000E+00 2.302870263E-02
 2.500000000E+00 -1.000000000E+00 2.226424587E-02
 2.550000000E+00 -1.000000000E+00 2.157884067E-02
 2.600000000E+00 -1.000000000E+00 2.085802239E-02
 2.650000000E+00 -1.000000000E+00 2.028466093E-02
 2.700000000E+00 -1.000000000E+00 1.968037860E-02
 2.750000000E+00 -1.000000000E+00 1.920372250E-02
 2.800000000E+00 -1.000000000E+00 1.870576649E-02
 2.850000000E+00 -1.000000000E+00 1.828023488E-02
 2.900000000E+00 -1.000000000E+00 1.786021596E-02
 2.950000000E+00 -1.000000000E+00 1.749988027E-02
 3.000000000E+00 -1.000000000E+00 1.716591140E-02
 3.050000000E+00 -1.000000000E+00 1.685306877E-02
 3.100000000E+00 -1.000000000E+00 1.656308363E-02
 3.150000000E+00 -1.000000000E+00 1.624663201E-02
 3.200000000E+00 -1.000000000E+00 1.590413305E-02
 3.250000000E+00 -1.000000000E+00 1.549784333E-02
 3.300000000E+00 -1.000000000E+00 1.498317071E-02
 3.350000000E+00 -1.000000000E+00 1.423672753E-02
 3.400000000E+00 -1.000000000E+00 1.299965889E-02
 3.450000000E+00 -1.000000000E+00 1.051184161E-02
 3.500000000E+00 -9.500000000E-01 5.412897011E-03
 3.500000000E+00 -9.000000000E-01 6.660624521E-03
 3.500000000E+00 -8.500000000E-01 7.956050063E-03
 3.500000000E+00 -8.000000000E-01 9.191648098E-03
 3.500000000E+00 -7.500000000E-01 1.039836154E-02
 3.500000000E+00 -7.000000000E-01 1.165769894E-02
 3.500000000E+00 -6.500000000E-01 1.285798038E-02
 3.500000000E+00 -6.000000000E-01 1.411710755E-02
 3.500000000E+00 -5.500000000E-01 1.542034249E-02
 3.500000000E+00 -5.000000000E-01 1.673340395E-02
 3.500000000E+00 -4.500000000E-01 1.805249597E-02
 3.500000000E+00 -4.000000000E-01 1.940593497E-02
 3.500000000E+00 -3.500000000E-01 2.080912017E-02
 3.500000000E+00 -3.000000000E-01 2.207711915E-02
 3.500000000E+00 -2.500000000E-01 2.304061537E-02
 3.500000000E+00 -2.000000000E-01 2.343199593E-02
 3.500000000E+00 -1.500000000E-01 2.337347880E-02
 3.500000000E+00 -1.000000000E-01 2.307112079E-02
 3.500000000E+00 -5.000000000E-02 2.286152525E-02
 3.500000000E+00 -2.752242878E-12 2.297267087E-02
 3.500000000E+00 5.000000000E-02 2.320150778E-02
 3.500000000E+00 1.000000000E-01 2.331004780E-02
 3.500000000E+00 1.500000000E-01 2.284113384E-02
 3.500000000E+00 2.000000000E-01 2.187956391E-02
 3.500000000E+00 2.500000000E-01 2.057870292E-02
 3.500000000E+00 3.000000000E-01 1.918269560E-02
 3.500000000E+00 3.500000000E-01 1.778975697E-02
 3.500000000E+00 4.000000000E-01 1.636060949E-02
 3.500000000E+00 4.500000000E-01 1.497140432E-02
 3.500000000E+00 5.000000000E-01 1.349468744E-02
 3.500000000E+00 5.500000000E-01 1.219653681E-02
 3.500000000E+00 6.000000000E-01 1.155587280E-02
 3.500000000E+00 6.500000000E-01 1.140242615E-02
 3.500000000E+00 7.000000000E-01 1.095265928E-02
 3.500000000E+00 7.500000000E-01 8.755604685E-03
 3.500000000E+00 8.000000000E-01 2.583998143E-03
 3.500000000E+00 8.500000000E-01 -6.930218433E-03
 3.500000000E+00 9.000000000E-01 -1.848696258E-02
 3.500000000E+00 9.500000000E-01 -3.131752709E-02
 3.450000000E+00 1.000000000E+00 -1.434199149E-02
 3.400000000E+00 1.000000000E+00 -5.363380870E-03
 3.350000000E+00 1.000000000E+00 -2.361836621E-03
 3.300000000E+00 1.000000000E+00 -1.778020715E-03
 3.250000000E+00 1.000000000E+00 -1.829793564E-03
 3.200000000E+00 1.000000000E+00 -2.365743972E-03
 3.150000000E+00 1.000000000E+00 -2.720072609E-03
 3.100000000E+00 1.000000000E+00 -3.708323162E-03
 3.050000000E+00 1.000000000E+00 -4.354931689E-03
 3.000000000E+00 1.000000000E+00 -5.405661576E-03
 2.950000000E+00 1.000000000E+00 -6.374094508E-03
 2.900000000E+00 1.000000000E+00 -7.478111908E-03
 2.850000000E+00 1.000000000E+00 -8.351506912E-03
 2.800000000E+00 1.000000000E+00 -9.523144391E-03
 2.750000000E+00 1.000000000E+00 -1.057777750E-02
 2.700000000E+00 1.000000000E+00 -1.176465506E-02
 2.650000000E+00 1.000000000E+00 -1.296776535E-02
 2.600000000E+00 1.000000000E+00 -1.422320915E-02
 2.550000000E+00 1.000000000E+00 -1.555315548E-02
 2.500000000E+00 1.000000000E+00 -1.689001394E-02
 2.450000000E+00 1.000000000E+00 -1.825400829E-02
 2.400000000E+00 1.000000000E+00 -1.967223931E-02
 2.350000000E+00 1.000000000E+00 -2.119993342E-02
 2.300000000E+00 1.000000000E+00 -2.303195512E-02
 2.250000000E+00 1.000000000E+00 -2.477475117E-02
 2.200000000E+00 1.000000000E+00 -2.672264948E-02
 2.150000000E+00 1.000000000E+00 -2.879799968E-02
 2.100000000E+00 1.000000000E+00 -3.080737086E-02
 2.050000000E+00 1.000000000E+00 -3.299061494E-02
 2.000000000E+00 1.000000000E+00 -3.557184036E-02
 1.950000000E+00 1.000000000E+00 -3.788639811E-02
 1.900000000E+00 1.000000000E+00 -4.068706763E-02
 1.850000000E+00 1.000000000E+00 -4.392943423E-02
 1.800000000E+00 1.000000000E+00 -4.709421567E-02
 1.750000000E+00 1.000000000E+00 -5.082480639E-02
 1.700000000E+00 1.000000000E+00 -5.457860653E-02
 1.650000000E+00 1.000000000E+00 -5.867233101E-02
 1.600000000E+00 1.000000000E+00 -6.339164726E-02
 1.550000000E+00 1.000000000E+00 -6.799125900E-02
 1.500000000E+00 1.000000000E+00 -7.328644768E-02
 1.450000000E+00 1.000000000E+00 -7.928060429E-02
 1.400000000E+00 1.000000000E+00 -8.553204665E-02
 1.350000000E+00 1.000000000E+00 -9.234539910E-02
 1.300000000E+00 1.000000000E+00 -9.928821480E-02
 1.250000000E+00 1.000000000E+00 -1.069003792E-01
 1.200000000E+00 1.000000000E+00 -1.144648255E-01
 1.150000000E+00 1.000000000E+00 -1.218070237E-01
 1.100000000E+00 1.000000000E+00 -1.299122513E-01
 1.050000000E+00 1.000000000E+00 -1.374802619E-01
 1.000000000E+00 1.000000000E+00 -1.427079554E-01
 9.500000000E-01 1.000000000E+00 -1.493122804E-01
 9.000000000E-01 1.000000000E+00 -1.524972911E-01
 8.500000000E-01 1.000000000E+00 -1.558595022E-01
 8.000000000E-01 1.000000000E+00 -1.553569398E-01
 7.500000000E-01 1.000000000E+00 -1.541515077E-01
 7.000000000E-01 1.000000000E+00 -1.490277084E-01
 6.500000000E-01 1.000000000E+00 -1.431771628E-01
 6.000000000E-01 1.000000000E+00 -1.339931942E-01
 5.500000000E-01 1.000000000E+00 -1.233387398E-01
 5.000000000E-01 1.000000000E+00 -1.109269040E-01
 4.500000000E-01 1.000000000E+00 -9.710511618E-02
 4.000000000E-01 1.000000000E+00 -8.277682355E-02
 3.500000000E-01 1.000000000E+00 -6.759071009E-02
 3.000000000E-01 1.000000000E+00 -5.241812243E-02
 2.500000000E-01 1.000000000E+00 -3.811657940E-02
 2.000000000E-01 1.000000000E+00 -2.360086940E-02
 1.500000000E-01 1.000000000E+00 -1.112279821E-02
 1.000000000E-01 1.000000000E+00 7.383858987E-04
 5.000000000E-02 1.000000000E+00 1.083207992E-02
 1.733724275E-12 1.000000000E+00 1.952963458E-02
 -5.000000000E-02 1.000000000E+00 2.632783794E-02
 -1.000000000E-01 1.000000000E+00 3.137324498E-02
 -1.500000000E-01 1.000000000E+00 3.483198511E-02
 -2.000000000E-01 1.000000000E+00 3.644308299E-02
 -2.500000000E-01 1.000000000E+00 3.650063760E-02
 -3.000000000E-01 1.000000000E+00 3.494624202E-02
 -3.500000000E-01 1.000000000E+00 3.182197790E-02
 -4.000000000E-01 1.000000000E+00 2.653378774E-02
 -4.500000000E-01 1.000000000E+00 1.789051864E-02
 9.852075653E-01 -3.875848572E-03 3.693314792E-01
 9.004925176E-01 -3.920979714E-03 3.631402231E-01
 8.190805938E-01 -1.001899693E-02 2.831592740E-01
 7.464816676E-01 -1.882953165E-02 1.856002800E-01
 6.752984541E-01 -2.864806146E-02 8.378952105E-02
 6.072348886E-01 -3.728003403E-02 -3.586367724E-02
 5.379190116E-01 -4.618280352E-02 -1.996041091E-01
 4.744468819E-01 -5.272884144E-02 -3.838515561E-01
 4.205601388E-01 -5.743482809E-02 -5.263525244E-01
 3.614451638E-01 -5.765749981E-02 -5.906906766E-01
 3.073639974E-01 -5.834224667E-02 -5.353069225E-01
 2.444050492E-01 -5.513568799E-02 -4.418248722E-01