TITLE     = "Visualization of the solution"
VARIABLES = "x"
"y"
"Pressure_Coefficient"
ZONE T="Zone"
 STRANDID=0, SOLUTIONTIME=0
 Nodes=11743, Elements=22906, ZONETYPE=FEQuadrilateral
 DATAPACKING=POINT
 DT=(DOUBLE DOUBLE DOUBLE )
 9.998081923E-01 5.177943385E-04 3.555952060E-01
 9.854816794E-01 3.327249549E-03 3.250525728E-01
 9.727388620E-01 5.871646572E-03 2.282607156E-01
 9.573893547E-01 8.853901178E-03 1.752054283E-01
 9.441655278E-01 1.154575218E-02 9.509752054E-02
 9.314044118E-01 1.396894176E-02 7.055116113E-02
 9.203481674E-01 1.612216607E-02 1.829481650E-02
 9.083085656E-01 1.834633574E-02 -4.411276727E-03
 8.968731761E-01 2.045665868E-02 -3.737248418E-02
 8.852914572E-01 2.257258631E-02 -7.788772596E-02
 8.735691905E-01 2.464147657E-02 -1.107686441E-01
 8.615900278E-01 2.666166238E-02 -1.284786611E-01
 8.495653272E-01 2.864142880E-02 -1.461648240E-01
 8.383378983E-01 3.048243187E-02 -1.808885092E-01
 8.266963363E-01 3.229589388E-02 -1.926904756E-01
 8.142101169E-01 3.419895098E-02 -2.083068380E-01
 8.015004396E-01 3.609817475E-02 -2.267171142E-01
 7.893556356E-01 3.789461777E-02 -2.560096817E-01
 7.766288519E-01 3.970534727E-02 -2.742686461E-01
 7.645367980E-01 4.137319699E-02 -2.867348529E-01
 7.512302995E-01 4.316498339E-02 -3.005653209E-01
 7.376288772E-01 4.498711973E-02 -3.336821843E-01
 7.265745997E-01 4.641486704E-02 -3.532210333E-01
 7.151049376E-01 4.785838723E-02 -3.736044822E-01
 7.031639814E-01 4.930917174E-02 -3.902041587E-01
 6.897260547E-01 5.089687183E-02 -4.154483706E-01
 6.766583920E-01 5.238234252E-02 -4.437298857E-01
 6.657739878E-01 5.356846377E-02 -4.586128331E-01
 6.538552642E-01 5.480447039E-02 -4.702553378E-01
 6.427042484E-01 5.594727024E-02 -5.017426606E-01
 6.306688190E-01 5.710691959E-02 -5.280116839E-01
 6.191321611E-01 5.817129835E-02 -5.538023479E-01
 6.083098650E-01 5.908841267E-02 -5.567942395E-01
 5.962260365E-01 6.008180603E-02 -5.925111237E-01
 5.845092535E-01 6.097879633E-02 -6.172853232E-01
 5.709795356E-01 6.191814318E-02 -6.293916177E-01
 5.582273006E-01 6.272368133E-02 -6.433688186E-01
 5.454658866E-01 6.346039474E-02 -6.671830656E-01
 5.339491963E-01 6.403876096E-02 -6.950412530E-01
 5.219281316E-01 6.458842009E-02 -7.319391023E-01
 5.093379021E-01 6.508650631E-02 -7.421824133E-01
 4.983991086E-01 6.545504928E-02 -7.242701254E-01
 4.851406813E-01 6.581284851E-02 -7.030182882E-01
 4.720476270E-01 6.607297808E-02 -6.908864563E-01
 4.581803977E-01 6.627730280E-02 -6.996937487E-01
 4.444386065E-01 6.640257686E-02 -6.931536065E-01
 4.313264787E-01 6.641861051E-02 -6.635897552E-01
 4.180717170E-01 6.636004150E-02 -6.507044885E-01
 4.056378603E-01 6.624504924E-02 -6.466929730E-01
 3.929899633E-01 6.605752558E-02 -6.343085515E-01
 3.807428777E-01 6.579785049E-02 -6.147079789E-01
 3.690072596E-01 6.549754739E-02 -6.069564520E-01
 3.557701707E-01 6.509542465E-02 -6.020066625E-01
 3.433907628E-01 6.463532150E-02 -5.829082903E-01
 3.309183121E-01 6.410513818E-02 -5.725556260E-01
 3.204271793E-01 6.361006945E-02 -5.586433084E-01
 3.080309331E-01 6.295551360E-02 -5.395082671E-01
 2.951178253E-01 6.221445650E-02 -5.312177881E-01
 2.814085782E-01 6.135334074E-02 -5.266500913E-01
 2.689576745E-01 6.047541648E-02 -5.066275495E-01
 2.570859790E-01 5.957510322E-02 -4.921889815E-01
 2.446044981E-01 5.856405944E-02 -4.826566753E-01
 2.319645435E-01 5.745135993E-02 -4.670414089E-01
 2.197576910E-01 5.629887432E-02 -4.513269414E-01
 2.079306841E-01 5.510430038E-02 -4.356988186E-01
 1.962851286E-01 5.386469886E-02 -4.241436896E-01
 1.839995533E-01 5.245991796E-02 -4.074072463E-01
 1.723329723E-01 5.105210468E-02 -3.964795386E-01
 1.606991142E-01 4.954392835E-02 -3.749849738E-01
 1.491262913E-01 4.796258360E-02 -3.605831059E-01
 1.383225322E-01 4.639445245E-02 -3.431462753E-01
 1.271867305E-01 4.469081014E-02 -3.297585881E-01
 1.160710901E-01 4.287483543E-02 -3.134006525E-01
 1.053958535E-01 4.100830108E-02 -2.851097747E-01
 9.563870728E-02 3.920607269E-02 -2.708571382E-01
 8.484344929E-02 3.707999736E-02 -2.498978314E-01
 7.345539331E-02 3.465919942E-02 -2.208436475E-01
 6.375189126E-02 3.243061155E-02 -1.931894330E-01
 5.417869240E-02 3.004284762E-02 -1.644877977E-01
 4.535033554E-02 2.765019797E-02 -1.341975537E-01
 3.760106489E-02 2.534439601E-02 -9.508963198E-02
 3.083706088E-02 2.313880436E-02 -5.863651635E-02
 2.504930273E-02 2.106960863E-02 -2.826438594E-02
 2.083128504E-02 1.941316016E-02 1.548316752E-02
 1.685185172E-02 1.770145074E-02 5.472154874E-02
 1.385305449E-02 1.628996059E-02 1.004227046E-01
 1.118571591E-02 1.492272969E-02 1.420416289E-01
 9.219450876E-03 1.381640695E-02 1.862396162E-01
 7.428598590E-03 1.273026783E-02 2.237528772E-01
 5.753466394E-03 1.160913613E-02 3.034668522E-01
 3.569867229E-03 9.939377196E-03 3.996625870E-01
 1.774095930E-03 8.293129504E-03 5.081099064E-01
 2.883610432E-04 6.586958654E-03 7.174018982E-01
 -1.135944272E-03 4.260004964E-03 9.287108275E-01
 -1.778787468E-03 2.433149377E-03 1.087906955E+00
 -2.011555014E-03 9.511472890E-04 1.170150231E+00
 -1.966052223E-03 -7.979288930E-04 1.209011794E+00
 -1.520461519E-03 -2.787689911E-03 1.139761710E+00
 -5.053310888E-04 -5.099560134E-03 9.953427768E-01
 1.083394862E-03 -7.495802362E-03 8.372763787E-01
 3.287659492E-03 -9.996641427E-03 6.715466436E-01
 5.257140845E-03 -1.183252316E-02 5.373236710E-01
 7.590654306E-03 -1.371688023E-02 4.393065900E-01
 9.378295392E-03 -1.500627398E-02 3.491371281E-01
 1.156443916E-02 -1.645985246E-02 2.927729291E-01
 1.408166438E-02 -1.799088903E-02 2.208926215E-01
 1.747223549E-02 -1.986476593E-02 1.535741690E-01
 2.072987519E-02 -2.150706388E-02 8.304426374E-02
 2.485698462E-02 -2.341553010E-02 2.676736004E-02
 3.037649207E-02 -2.571825311E-02 -3.094665915E-02
 3.616376966E-02 -2.790044434E-02 -8.985157858E-02
 4.324320331E-02 -3.031626157E-02 -1.351312154E-01
 5.094585195E-02 -3.270834684E-02 -1.811816387E-01
 5.975186080E-02 -3.517680615E-02 -2.141388323E-01
 6.859876961E-02 -3.744996712E-02 -2.518924579E-01
 7.907567173E-02 -3.990387172E-02 -2.816146818E-01
 8.899824321E-02 -4.204498604E-02 -3.045355094E-01
 9.951072931E-02 -4.415713251E-02 -3.317727629E-01
 1.107971519E-01 -4.624914378E-02 -3.511615062E-01
 1.222639382E-01 -4.822577536E-02 -3.730516187E-01
 1.340629756E-01 -5.011988804E-02 -3.942525232E-01
 1.446204633E-01 -5.170337483E-02 -4.143306809E-01
 1.559880674E-01 -5.330456048E-02 -4.326672958E-01
 1.680959016E-01 -5.489569902E-02 -4.523435463E-01
 1.798079312E-01 -5.633198842E-02 -4.733862688E-01
 1.916771829E-01 -5.769337341E-02 -4.978992616E-01
 2.023577690E-01 -5.882506073E-02 -5.165520109E-01
 2.138287276E-01 -5.996485054E-02 -5.395388180E-01
 2.260196954E-01 -6.106664985E-02 -5.570451014E-01
 2.381960452E-01 -6.207353994E-02 -5.760841818E-01
 2.502886057E-01 -6.299749017E-02 -6.145512400E-01
 2.626875639E-01 -6.381664425E-02 -6.404254584E-01
 2.736648917E-01 -6.445846707E-02 -6.614864268E-01
 2.859789133E-01 -6.508365273E-02 -6.913567886E-01
 2.981660366E-01 -6.557780504E-02 -7.116250803E-01
 3.109614849E-01 -6.599926949E-02 -7.330195195E-01
 3.224640787E-01 -6.626313180E-02 -7.563798137E-01
 3.350629807E-01 -6.645445526E-02 -7.877144583E-01
 3.453879058E-01 -6.648882478E-02 -8.201750332E-01
 3.567536473E-01 -6.644545496E-02 -8.362749359E-01
 3.677485287E-01 -6.630323827E-02 -8.736776226E-01
 3.784714043E-01 -6.603538990E-02 -8.970659048E-01
 3.899547756E-01 -6.565984339E-02 -9.039840419E-01
 4.027232230E-01 -6.512243301E-02 -9.482557433E-01
 4.148054719E-01 -6.446658075E-02 -9.132584013E-01
 4.273758829E-01 -6.364323199E-02 -5.531558297E-01
 4.398827553E-01 -6.273677945E-02 -5.099861716E-01
 4.523528814E-01 -6.166881323E-02 -5.495617997E-01
 4.643061757E-01 -6.052135304E-02 -4.987077778E-01
 4.767668545E-01 -5.924244598E-02 -4.556187613E-01
 4.886341095E-01 -5.794643238E-02 -4.308101671E-01
 5.010933280E-01 -5.646362528E-02 -3.796030471E-01
 5.145871639E-01 -5.479479581E-02 -3.407921373E-01
 5.278435349E-01 -5.305851623E-02 -2.966791506E-01
 5.407492518E-01 -5.132627860E-02 -2.647345256E-01
 5.539868474E-01 -4.947107658E-02 -2.232358270E-01
 5.672458410E-01 -4.758701846E-02 -1.937081001E-01
 5.805051327E-01 -4.565047100E-02 -1.600520140E-01
 5.933761001E-01 -4.373251274E-02 -1.269419143E-01
 6.063426137E-01 -4.179624096E-02 -1.033282804E-01
 6.199675202E-01 -3.970231116E-02 -6.403123736E-02
 6.343024969E-01 -3.754650429E-02 -4.740677566E-02
 6.480897665E-01 -3.539360315E-02 -5.818657675E-03
 6.614858508E-01 -3.337360546E-02 7.485425251E-03
 6.750381589E-01 -3.130555153E-02 3.244654373E-02
 6.876519322E-01 -2.937688679E-02 5.705041302E-02
 7.001851201E-01 -2.749460004E-02 7.277067918E-02
 7.148967981E-01 -2.525508963E-02 1.051714171E-01
 7.282871008E-01 -2.330394089E-02 1.141685975E-01
 7.398999929E-01 -2.160154656E-02 1.314566320E-01
 7.529833913E-01 -1.966625266E-02 1.580785321E-01
 7.653993368E-01 -1.786257699E-02 1.817675542E-01
 7.789858580E-01 -1.597785763E-02 1.934274620E-01
 7.911974788E-01 -1.429990306E-02 2.123934345E-01
 8.038628697E-01 -1.260669809E-02 2.270859614E-01
 8.147380948E-01 -1.114488859E-02 2.534526532E-01
 8.262790442E-01 -9.700842202E-03 2.617663548E-01
 8.386607766E-01 -8.175088093E-03 2.829518901E-01
 8.508565426E-01 -6.737519056E-03 3.032441308E-01
 8.631523252E-01 -5.399299785E-03 3.172312385E-01
 8.744068146E-01 -4.267156124E-03 3.292209146E-01
 8.857494593E-01 -3.202818101E-03 3.440964675E-01
 8.984975815E-01 -2.139937598E-03 3.552316037E-01
 9.086552858E-01 -1.400969806E-03 3.644145307E-01
 9.191630483E-01 -7.444115472E-04 3.691884412E-01
 9.288337827E-01 -2.315865713E-04 3.736782295E-01
 9.385501742E-01 1.627214806E-04 3.763181182E-01
 9.509064555E-01 5.291344714E-04 3.727612022E-01
 9.643162489E-01 7.568782894E-04 3.690382422E-01
 9.781619906E-01 8.113074000E-04 3.659556038E-01
 9.900339246E-01 7.039295742E-04 3.914263276E-01
 -5.000000000E-01 -1.000000000E+00 1.566824434E-02
 3.500000000E+00 -1.000000000E+00 4.243794215E-03
 3.500000000E+00 1.000000000E+00 -2.117899019E-02
 -5.000000000E-01 1.000000000E+00 1.541384601E-02
 9.926449358E-01 1.922521944E-03 4.118516907E-01
 9.791102707E-01 4.599448061E-03 2.695957553E-01
 9.650641084E-01 7.362773875E-03 2.034988368E-01
 9.507774413E-01 1.019982668E-02 1.273454510E-01
 9.377849698E-01 1.275734697E-02 8.660391287E-02
 9.258762896E-01 1.504555391E-02 3.906810068E-02
 9.143283665E-01 1.723425090E-02 8.594166705E-03
 9.025908709E-01 1.940149721E-02 -2.025080756E-02
 8.910823166E-01 2.151462249E-02 -5.923554465E-02
 8.794303238E-01 2.360703144E-02 -9.665981469E-02
 8.675796092E-01 2.565156948E-02 -1.196244197E-01
 8.555776775E-01 2.765154559E-02 -1.341341369E-01
 8.439516127E-01 2.956193034E-02 -1.674357278E-01
 8.325171173E-01 3.138916288E-02 -1.863346176E-01
 8.204532266E-01 3.324742243E-02 -2.002244482E-01
 8.078552783E-01 3.514856286E-02 -2.155893492E-01
 7.954280376E-01 3.699639626E-02 -2.433042583E-01
 7.829922438E-01 3.879998252E-02 -2.654549313E-01
 7.705828249E-01 4.053927213E-02 -2.811923630E-01
 7.578835487E-01 4.226909019E-02 -2.905976759E-01
 7.444295883E-01 4.407605156E-02 -3.183929739E-01
 7.321017385E-01 4.570099339E-02 -3.434884445E-01
 7.208397686E-01 4.713662714E-02 -3.643151072E-01
 7.091344595E-01 4.858377948E-02 -3.812588819E-01
 6.964450181E-01 5.010302179E-02 -4.026276793E-01
 6.831922233E-01 5.163960718E-02 -4.290381888E-01
 6.712161899E-01 5.297540314E-02 -4.545952340E-01
 6.598146260E-01 5.418646708E-02 -4.594264001E-01
 6.482797563E-01 5.537587032E-02 -4.891712651E-01
 6.366865337E-01 5.652709492E-02 -5.121129095E-01
 6.249004900E-01 5.763910897E-02 -5.465173590E-01
 6.137210131E-01 5.862985551E-02 -5.506182228E-01
 6.022679508E-01 5.958510935E-02 -5.740900824E-01
 5.903676450E-01 6.053030118E-02 -6.085107680E-01
 5.777443945E-01 6.144846976E-02 -6.236071814E-01
 5.646034181E-01 6.232091226E-02 -6.344566324E-01
 5.518465936E-01 6.309203804E-02 -6.562056885E-01
 5.397075415E-01 6.374957785E-02 -6.771886374E-01
 5.279386640E-01 6.431359053E-02 -7.165897047E-01
 5.156330168E-01 6.483746320E-02 -7.401158092E-01
 5.038685054E-01 6.527077779E-02 -7.363265884E-01
 4.917698950E-01 6.563394889E-02 -7.139224724E-01
 4.785941541E-01 6.594291329E-02 -6.931539529E-01
 4.651140124E-01 6.617514044E-02 -6.946133358E-01
 4.513095021E-01 6.633993983E-02 -7.015537098E-01
 4.378825426E-01 6.641059369E-02 -6.771101798E-01
 4.246990979E-01 6.638932601E-02 -6.543284688E-01
 4.118547887E-01 6.630254537E-02 -6.492293798E-01
 3.993139118E-01 6.615128741E-02 -6.427378947E-01
 3.868664205E-01 6.592768803E-02 -6.225584011E-01
 3.748750687E-01 6.564769894E-02 -6.099040822E-01
 3.623887151E-01 6.529648602E-02 -6.065671475E-01
 3.495804667E-01 6.486537308E-02 -5.924624107E-01
 3.371545374E-01 6.437022984E-02 -5.754627163E-01
 3.256727457E-01 6.385760382E-02 -5.683291216E-01
 3.142290562E-01 6.328279153E-02 -5.478905542E-01
 3.015743792E-01 6.258498505E-02 -5.344502124E-01
 2.882632017E-01 6.178389862E-02 -5.309896360E-01
 2.751831263E-01 6.091437861E-02 -5.162107030E-01
 2.630218267E-01 6.002525985E-02 -4.982545344E-01
 2.508452386E-01 5.906958133E-02 -4.889374501E-01
 2.382845208E-01 5.800770968E-02 -4.747469066E-01
 2.258611172E-01 5.687511712E-02 -4.596111293E-01
 2.138441876E-01 5.570158735E-02 -4.417232743E-01
 2.021079063E-01 5.448449962E-02 -4.323668510E-01
 1.901423410E-01 5.316230841E-02 -4.136753951E-01
 1.781662628E-01 5.175601132E-02 -4.042028225E-01
 1.665160432E-01 5.029801652E-02 -3.845085178E-01
 1.549127027E-01 4.875325598E-02 -3.681759086E-01
 1.437244117E-01 4.717851803E-02 -3.514661192E-01
 1.327546313E-01 4.554263130E-02 -3.370117581E-01
 1.216289103E-01 4.378282279E-02 -3.224470349E-01
 1.107334718E-01 4.194156826E-02 -3.014138967E-01
 9.024107829E-02 3.814303502E-02 -2.626153582E-01
 7.914942130E-02 3.586959839E-02 -2.383086517E-01
 7.383722067E-02 -3.867691942E-02 -2.736905288E-01
 8.403695747E-02 -4.097442888E-02 -2.938664487E-01
 9.425448626E-02 -4.310105927E-02 -3.174040370E-01
 1.051539406E-01 -4.520313814E-02 -3.424183368E-01
 1.165305451E-01 -4.723745957E-02 -3.627521278E-01
 1.281634569E-01 -4.917283170E-02 -3.837770565E-01
 1.393417194E-01 -5.091163144E-02 -4.063865250E-01
 1.503042653E-01 -5.250396766E-02 -4.225039174E-01
 1.620419845E-01 -5.410012975E-02 -4.423020835E-01
 1.739519164E-01 -5.561384372E-02 -4.632892562E-01
 1.857425570E-01 -5.701268092E-02 -4.848929625E-01
 1.970174760E-01 -5.825921707E-02 -5.098950166E-01
 2.080932483E-01 -5.939495564E-02 -5.254462003E-01
 2.199242115E-01 -6.051575020E-02 -5.497265482E-01
 2.321078703E-01 -6.157009490E-02 -5.656654242E-01
 2.442423254E-01 -6.253551506E-02 -5.921879593E-01
 2.564880848E-01 -6.340706721E-02 -6.312650066E-01
 2.681762278E-01 -6.413755566E-02 -6.505519735E-01
 2.798219025E-01 -6.477105990E-02 -6.735403876E-01
 2.920724750E-01 -6.533072889E-02 -7.052438325E-01
 3.045637608E-01 -6.578853726E-02 -7.189594047E-01
 3.167127818E-01 -6.613120064E-02 -7.480591085E-01
 3.287635297E-01 -6.635879353E-02 -7.658164913E-01
 3.402254432E-01 -6.647164002E-02 -8.116142115E-01
 3.510707766E-01 -6.646713987E-02 -8.248928242E-01
 3.622510880E-01 -6.637434661E-02 -8.518525561E-01
 3.731099665E-01 -6.616931409E-02 -8.920198405E-01
 3.842130899E-01 -6.584761664E-02 -8.975353019E-01
 3.963389993E-01 -6.539113820E-02 -9.187247135E-01
 4.087643474E-01 -6.479450688E-02 -9.649771546E-01
 4.210906774E-01 -6.405490637E-02 -7.445009307E-01
 4.336293191E-01 -6.319000572E-02 -4.845999299E-01
 4.461178184E-01 -6.220279634E-02 -5.452087188E-01
 4.583295286E-01 -6.109508313E-02 -5.305939710E-01
 4.705365151E-01 -5.988189951E-02 -4.724054754E-01
 4.827004820E-01 -5.859443918E-02 -4.434534030E-01
 4.948637187E-01 -5.720502883E-02 -4.087011340E-01
 5.078402460E-01 -5.562921055E-02 -3.572832203E-01
 5.212153494E-01 -5.392665602E-02 -3.209144257E-01
 5.342963934E-01 -5.219239742E-02 -2.786614250E-01
 5.473680496E-01 -5.039867759E-02 -2.460137599E-01
 5.606163442E-01 -4.852904752E-02 -2.065922604E-01
 5.738754869E-01 -4.661874473E-02 -1.779898157E-01
 5.869406164E-01 -4.469149187E-02 -1.435503167E-01
 5.998593569E-01 -4.276437685E-02 -1.138288484E-01
 6.131550670E-01 -4.074927606E-02 -8.611501685E-02
 6.271350086E-01 -3.862440772E-02 -5.259185193E-02
 6.411961317E-01 -3.647005372E-02 -3.080657578E-02
 6.547878087E-01 -3.438360430E-02 5.218788580E-03
 6.682620049E-01 -3.233957849E-02 1.837266970E-02
 6.813450456E-01 -3.034121916E-02 4.484024921E-02
 6.939185262E-01 -2.843574341E-02 6.593002957E-02
 7.075409591E-01 -2.637484483E-02 8.653341718E-02
 7.215919495E-01 -2.427951526E-02 1.135431048E-01
 7.340935469E-01 -2.245274372E-02 1.218950646E-01
 7.464416921E-01 -2.063389961E-02 1.431707754E-01
 7.591913640E-01 -1.876441482E-02 1.700721623E-01
 7.721925974E-01 -1.692021731E-02 1.888238776E-01
 7.850916684E-01 -1.513888035E-02 2.025442985E-01
 7.975301743E-01 -1.345330058E-02 2.201335331E-01
 8.093004823E-01 -1.187579334E-02 2.383802554E-01
 8.205085695E-01 -1.042286539E-02 2.598663622E-01
 8.324699104E-01 -8.937965147E-03 2.706127251E-01
 8.447586596E-01 -7.456303574E-03 2.926471381E-01
 8.570044339E-01 -6.068409421E-03 3.108578855E-01
 8.687795699E-01 -4.833227955E-03 3.240719534E-01
 8.800781369E-01 -3.734987113E-03 3.357326135E-01
 8.921235204E-01 -2.671377850E-03 3.489257854E-01
 9.035764337E-01 -1.770453702E-03 3.618071367E-01
 9.139091671E-01 -1.072690677E-03 3.672314502E-01
 9.447283149E-01 3.459279760E-04 3.730910911E-01
 9.576113522E-01 6.430063804E-04 3.707018063E-01
 9.712391198E-01 7.840928447E-04 3.676859891E-01
 9.840979576E-01 7.576184871E-04 3.625726247E-01
 -5.000000000E-01 9.500000000E-01 2.517433206E-02
 -5.000000000E-01 9.000000000E-01 3.805562702E-02
 -5.000000000E-01 8.500000000E-01 4.790293616E-02
 -5.000000000E-01 8.000000000E-01 5.659688475E-02
 -5.000000000E-01 7.500000000E-01 6.482540709E-02
 -5.000000000E-01 7.000000000E-01 7.303949045E-02
 -5.000000000E-01 6.500000000E-01 8.131527319E-02
 -5.000000000E-01 6.000000000E-01 8.969517358E-02
 -5.000000000E-01 5.500000000E-01 9.843339973E-02
 -5.000000000E-01 5.000000000E-01 1.073107702E-01
 -5.000000000E-01 4.500000000E-01 1.163985620E-01
 -5.000000000E-01 4.000000000E-01 1.254060489E-01
 -5.000000000E-01 3.500000000E-01 1.344082434E-01
 -5.000000000E-01 3.000000000E-01 1.430220538E-01
 -5.000000000E-01 2.500000000E-01 1.511061491E-01
 -5.000000000E-01 2.000000000E-01 1.581307269E-01
 -5.000000000E-01 1.500000000E-01 1.641856750E-01
 -5.000000000E-01 1.000000000E-01 1.686510191E-01
 -5.000000000E-01 5.000000000E-02 1.715150785E-01
 -5.000000000E-01 2.752242878E-12 1.726328937E-01
 -5.000000000E-01 -5.000000000E-02 1.717824196E-01
 -5.000000000E-01 -1.000000000E-01 1.691642554E-01
 -5.000000000E-01 -1.500000000E-01 1.647632776E-01
 -5.000000000E-01 -2.000000000E-01 1.589309917E-01
 -5.000000000E-01 -2.500000000E-01 1.518784555E-01
 -5.000000000E-01 -3.000000000E-01 1.439993636E-01
 -5.000000000E-01 -3.500000000E-01 1.355026186E-01
 -5.000000000E-01 -4.000000000E-01 1.265098462E-01
 -5.000000000E-01 -4.500000000E-01 1.173989933E-01
 -5.000000000E-01 -5.000000000E-01 1.084018135E-01
 -5.000000000E-01 -5.500000000E-01 9.951818983E-02
 -5.000000000E-01 -6.000000000E-01 9.077359222E-02
 -5.000000000E-01 -6.500000000E-01 8.221453627E-02
 -5.000000000E-01 -7.000000000E-01 7.407227020E-02
 -5.000000000E-01 -7.500000000E-01 6.559753992E-02
 -5.000000000E-01 -8.000000000E-01 5.732611094E-02
 -5.000000000E-01 -8.500000000E-01 4.872884115E-02
 -5.000000000E-01 -9.000000000E-01 3.849080752E-02
 -5.000000000E-01 -9.500000000E-01 2.569076424E-02
 -4.500000000E-01 -1.000000000E+00 2.115616601E-02
 -4.000000000E-01 -1.000000000E+00 3.137249798E-02
 -3.500000000E-01 -1.000000000E+00 3.769743096E-02
 -3.000000000E-01 -1.000000000E+00 4.143771451E-02
 -2.500000000E-01 -1.000000000E+00 4.372573591E-02
 -2.000000000E-01 -1.000000000E+00 4.426552279E-02
 -1.500000000E-01 -1.000000000E+00 4.319231668E-02
 -1.000000000E-01 -1.000000000E+00 4.025394683E-02
 -5.000000000E-02 -1.000000000E+00 3.559146904E-02
 -9.424683256E-13 -1.000000000E+00 2.922970648E-02
 5.000000000E-02 -1.000000000E+00 2.142075226E-02
 1.000000000E-01 -1.000000000E+00 1.240078171E-02
 1.500000000E-01 -1.000000000E+00 2.109581948E-03
 2.000000000E-01 -1.000000000E+00 -8.572686014E-03
 2.500000000E-01 -1.000000000E+00 -1.977805845E-02
 3.000000000E-01 -1.000000000E+00 -3.048010539E-02
 3.500000000E-01 -1.000000000E+00 -4.020376481E-02
 4.000000000E-01 -1.000000000E+00 -4.874057303E-02
 4.500000000E-01 -1.000000000E+00 -5.532247976E-02
 5.000000000E-01 -1.000000000E+00 -6.004938553E-02
 5.500000000E-01 -1.000000000E+00 -6.243549063E-02
 6.000000000E-01 -1.000000000E+00 -6.271657917E-02
 6.500000000E-01 -1.000000000E+00 -6.090258884E-02
 7.000000000E-01 -1.000000000E+00 -5.718805623E-02
 7.500000000E-01 -1.000000000E+00 -5.208851495E-02
 8.000000000E-01 -1.000000000E+00 -4.581394255E-02
 8.500000000E-01 -1.000000000E+00 -3.868956419E-02
 9.000000000E-01 -1.000000000E+00 -3.122907819E-02
 9.500000000E-01 -1.000000000E+00 -2.374055005E-02
 1.000000000E+00 -1.000000000E+00 -1.641907492E-02
 1.050000000E+00 -1.000000000E+00 -9.578690932E-03
 1.100000000E+00 -1.000000000E+00 -3.275111530E-03
 1.150000000E+00 -1.000000000E+00 2.226945471E-03
 1.200000000E+00 -1.000000000E+00 7.049307080E-03
 1.250000000E+00 -1.000000000E+00 1.119168532E-02
 1.300000000E+00 -1.000000000E+00 1.464914680E-02
 1.350000000E+00 -1.000000000E+00 1.740666230E-02
 1.400000000E+00 -1.000000000E+00 1.967326554E-02
 1.450000000E+00 -1.000000000E+00 2.129490234E-02
 1.500000000E+00 -1.000000000E+00 2.260600334E-02
 1.550000000E+00 -1.000000000E+00 2.348392744E-02
 1.600000000E+00 -1.000000000E+00 2.402696309E-02
 1.650000000E+00 -1.000000000E+00 2.434378616E-02
 1.700000000E+00 -1.000000000E+00 2.442599993E-02
 1.750000000E+00 -1.000000000E+00 2.428602929E-02
 1.800000000E+00 -1.000000000E+00 2.406147676E-02
 1.850000000E+00 -1.000000000E+00 2.375823835E-02
 1.900000000E+00 -1.000000000E+00 2.326807489E-02
 1.950000000E+00 -1.000000000E+00 2.286473218E-02
 2.000000000E+00 -1.000000000E+00 2.225593340E-02
 2.050000000E+00 -1.000000000E+00 2.172466517E-02
 2.100000000E+00 -1.000000000E+00 2.123044363E-02
 2.150000000E+00 -1.000000000E+00 2.059014880E-02
 2.200000000E+00 -1.000000000E+00 2.012179515E-02
 2.250000000E+00 -1.000000000E+00 1.953748933E-02
 2.300000000E+00 -1.000000000E+00 1.898377148E-02
 2.350000000E+00 -1.000000000E+00 1.846625377E-02
 2.400000000E+00 -1.000000000E+00 1.797595666E-02
 2.450000000E+00 -1.000000000E+00 1.755758236E-02
 2.500000000E+00 -1.000000000E+00 1.713339027E-02
 2.550000000E+00 -1.000000000E+00 1.673068674E-02
 2.600000000E+00 -1.000000000E+00 1.646887732E-02
 2.650000000E+00 -1.000000000E+00 1.601981542E-02
 2.700000000E+00 -1.000000000E+00 1.584280704E-02
 2.750000000E+00 -1.000000000E+00 1.553614387E-02
 2.800000000E+00 -1.000000000E+00 1.535521196E-02
 2.850000000E+00 -1.000000000E+00 1.519760560E-02
 2.900000000E+00 -1.000000000E+00 1.502383814E-02
 2.950000000E+00 -1.000000000E+00 1.496156189E-02
 3.000000000E+00 -1.000000000E+00 1.484939726E-02
 3.050000000E+00 -1.000000000E+00 1.474252229E-02
 3.100000000E+00 -1.000000000E+00 1.468166320E-02
 3.150000000E+00 -1.000000000E+00 1.453815327E-02
 3.200000000E+00 -1.000000000E+00 1.446361086E-02
 3.250000000E+00 -1.000000000E+00 1.418451176E-02
 3.300000000E+00 -1.000000000E+00 1.388352777E-02
 3.350000000E+00 -1.000000000E+00 1.330193551E-02
 3.400000000E+00 -1.000000000E+00 1.200854391E-02
 3.450000000E+00 -1.000000000E+00 8.861071817E-03
 3.500000000E+00 -9.500000000E-01 2.423487513E-03
 3.500000000E+00 -9.000000000E-01 5.253440061E-03
 3.500000000E+00 -8.500000000E-01 7.872305394E-03
 3.500000000E+00 -8.000000000E-01 9.837412031E-03
 3.500000000E+00 -7.500000000E-01 1.125788546E-02
 3.500000000E+00 -7.000000000E-01 1.252506866E-02
 3.500000000E+00 -6.500000000E-01 1.382354122E-02
 3.500000000E+00 -6.000000000E-01 1.518184066E-02
 3.500000000E+00 -5.500000000E-01 1.671441638E-02
 3.500000000E+00 -5.000000000E-01 1.823180957E-02
 3.500000000E+00 -4.500000000E-01 1.984612332E-02
 3.500000000E+00 -4.000000000E-01 2.140582587E-02
 3.500000000E+00 -3.500000000E-01 2.301940601E-02
 3.500000000E+00 -3.000000000E-01 2.454060122E-02
 3.500000000E+00 -2.500000000E-01 2.573344562E-02
 3.500000000E+00 -2.000000000E-01 2.631228691E-02
 3.500000000E+00 -1.500000000E-01 2.629486902E-02
 3.500000000E+00 -1.000000000E-01 2.595711338E-02
 3.500000000E+00 -5.000000000E-02 2.562001852E-02
 3.500000000E+00 -2.752242878E-12 2.575075015E-02
 3.500000000E+00 5.000000000E-02 2.620771930E-02
 3.500000000E+00 1.000000000E-01 2.657495121E-02
 3.500000000E+00 1.500000000E-01 2.631066962E-02
 3.500000000E+00 2.000000000E-01 2.543717164E-02
 3.500000000E+00 2.500000000E-01 2.401234007E-02
 3.500000000E+00 3.000000000E-01 2.240953926E-02
 3.500000000E+00 3.500000000E-01 2.086648862E-02
 3.500000000E+00 4.000000000E-01 1.931034643E-02
 3.500000000E+00 4.500000000E-01 1.768042070E-02
 3.500000000E+00 5.000000000E-01 1.601633624E-02
 3.500000000E+00 5.500000000E-01 1.447175931E-02
 3.500000000E+00 6.000000000E-01 1.336914175E-02
 3.500000000E+00 6.500000000E-01 1.273506956E-02
 3.500000000E+00 7.000000000E-01 1.220081399E-02
 3.500000000E+00 7.500000000E-01 1.069603930E-02
 3.500000000E+00 8.000000000E-01 6.401532277E-03
 3.500000000E+00 8.500000000E-01 -1.243750715E-03
 3.500000000E+00 9.000000000E-01 -1.185271852E-02
 3.500000000E+00 9.500000000E-01 -2.374239522E-02
 3.450000000E+00 1.000000000E+00 -8.917771192E-03
 3.400000000E+00 1.000000000E+00 -8.186580026E-04
 3.350000000E+00 1.000000000E+00 1.489963364E-03
 3.300000000E+00 1.000000000E+00 2.059936580E-03
 3.250000000E+00 1.000000000E+00 1.941926132E-03
 3.200000000E+00 1.000000000E+00 1.476791042E-03
 3.150000000E+00 1.000000000E+00 1.054716034E-03
 3.100000000E+00 1.000000000E+00 3.817583356E-04
 3.050000000E+00 1.000000000E+00 -5.623736443E-04
 3.000000000E+00 1.000000000E+00 -1.012337814E-03
 2.950000000E+00 1.000000000E+00 -2.282893557E-03
 2.900000000E+00 1.000000000E+00 -3.011382103E-03
 2.850000000E+00 1.000000000E+00 -3.761171759E-03
 2.800000000E+00 1.000000000E+00 -4.884166103E-03
 2.750000000E+00 1.000000000E+00 -5.547368810E-03
 2.700000000E+00 1.000000000E+00 -6.662603353E-03
 2.650000000E+00 1.000000000E+00 -7.485900350E-03
 2.600000000E+00 1.000000000E+00 -8.660059238E-03
 2.550000000E+00 1.000000000E+00 -9.695419473E-03
 2.500000000E+00 1.000000000E+00 -1.083803048E-02
 2.450000000E+00 1.000000000E+00 -1.193985311E-02
 2.400000000E+00 1.000000000E+00 -1.309512463E-02
 2.350000000E+00 1.000000000E+00 -1.434918325E-02
 2.300000000E+00 1.000000000E+00 -1.559582412E-02
 2.250000000E+00 1.000000000E+00 -1.713070420E-02
 2.200000000E+00 1.000000000E+00 -1.849339153E-02
 2.150000000E+00 1.000000000E+00 -2.018339068E-02
 2.100000000E+00 1.000000000E+00 -2.176472171E-02
 2.050000000E+00 1.000000000E+00 -2.355646189E-02
 2.000000000E+00 1.000000000E+00 -2.565908641E-02
 1.950000000E+00 1.000000000E+00 -2.764069031E-02
 1.900000000E+00 1.000000000E+00 -2.993254538E-02
 1.850000000E+00 1.000000000E+00 -3.249667466E-02
 1.800000000E+00 1.000000000E+00 -3.513768275E-02
 1.750000000E+00 1.000000000E+00 -3.815277343E-02
 1.700000000E+00 1.000000000E+00 -4.151722766E-02
 1.650000000E+00 1.000000000E+00 -4.521088941E-02
 1.600000000E+00 1.000000000E+00 -4.902609559E-02
 1.550000000E+00 1.000000000E+00 -5.345215590E-02
 1.500000000E+00 1.000000000E+00 -5.815507122E-02
 1.450000000E+00 1.000000000E+00 -6.341301066E-02
 1.400000000E+00 1.000000000E+00 -6.913461260E-02
 1.350000000E+00 1.000000000E+00 -7.516292600E-02
 1.300000000E+00 1.000000000E+00 -8.268955736E-02
 1.250000000E+00 1.000000000E+00 -8.878961718E-02
 1.200000000E+00 1.000000000E+00 -9.662147252E-02
 1.150000000E+00 1.000000000E+00 -1.039744467E-01
 1.100000000E+00 1.000000000E+00 -1.114497611E-01
 1.050000000E+00 1.000000000E+00 -1.186991526E-01
 1.000000000E+00 1.000000000E+00 -1.255339018E-01
 9.500000000E-01 1.000000000E+00 -1.321210475E-01
 9.000000000E-01 1.000000000E+00 -1.354687482E-01
 8.500000000E-01 1.000000000E+00 -1.394517938E-01
 8.000000000E-01 1.000000000E+00 -1.390236946E-01
 7.500000000E-01 1.000000000E+00 -1.394859906E-01
 7.000000000E-01 1.000000000E+00 -1.358612521E-01
 6.500000000E-01 1.000000000E+00 -1.299319352E-01
 6.000000000E-01 1.000000000E+00 -1.224264270E-01
 5.500000000E-01 1.000000000E+00 -1.123709518E-01
 5.000000000E-01 1.000000000E+00 -1.004202917E-01
 4.500000000E-01 1.000000000E+00 -8.785099528E-02
 4.000000000E-01 1.000000000E+00 -7.375404435E-02
 3.500000000E-01 1.000000000E+00 -5.919367329E-02
 3.000000000E-01 1.000000000E+00 -4.460583643E-02
 2.500000000E-01 1.000000000E+00 -3.010633776E-02
 2.000000000E-01 1.000000000E+00 -1.625483912E-02
 1.500000000E-01 1.000000000E+00 -3.485422121E-03
 1.000000000E-01 1.000000000E+00 8.507272117E-03
 5.000000000E-02 1.000000000E+00 1.860484415E-02
 1.733724275E-12 1.000000000E+00 2.710351252E-02
 -5.000000000E-02 1.000000000E+00 3.381476333E-02
 -1.000000000E-01 1.000000000E+00 3.881057292E-02
 -1.500000000E-01 1.000000000E+00 4.200145860E-02
 -2.000000000E-01 1.000000000E+00 4.344095137E-02
 -2.500000000E-01 1.000000000E+00 4.298323679E-02
 -3.000000000E-01 1.000000000E+00 4.081094567E-02
 -3.500000000E-01 1.000000000E+00 3.706758807E-02
 -4.000000000E-01 1.000000000E+00 3.083332546E-02
 -4.500000000E-01 1.000000000E+00 2.082755972E-02
 9.747224441E-01 -4.770425267E-03 3.573788811E-01
 8.778251821E-01 -8.769694436E-03 3.275381494E-01
 8.015959264E-01 -1.845016291E-02 2.220802003E-01
 7.322431460E-01 -2.826914147E-02 1.187203646E-01
 6.653532622E-01 -3.844304955E-02 1.337053341E-02
 5.974530506E-01 -4.884229571E-02 -1.191051513E-01
 5.320353488E-01 -5.825868500E-02 -2.826477954E-01
 4.679913345E-01 -6.519092456E-02 -4.767604972E-01
 4.119633986E-01 -7.034542758E-02 -9.359828007E-01
 3.539306859E-01 -7.129769607E-02 -8.198930632E-01
 3.010609778E-01 -7.074157740E-02 -7.054610316E-01
 2.408191031E-01 -6.754075981E-02 -5.743231475E-01
 1.822754359E-01 -6.156560726E-02 -4.701718437E-01