TITLE     = "Visualization of the solution"
VARIABLES = "x"
"y"
"Pressure_Coefficient"
ZONE T="Zone"
 STRANDID=0, SOLUTIONTIME=0
 Nodes=12235, Elements=23886, ZONETYPE=FEQuadrilateral
 DATAPACKING=POINT
 DT=(DOUBLE DOUBLE DOUBLE )
 9.997249842E-01 5.138645647E-04 3.609723728E-01
 9.895930290E-01 2.715863287E-03 3.108355904E-01
 9.769566059E-01 5.334534217E-03 2.331685703E-01
 9.594854712E-01 9.064637125E-03 1.531178300E-01
 9.442079067E-01 1.232667733E-02 9.206792027E-02
 9.282281399E-01 1.570371725E-02 4.419514531E-02
 9.166847467E-01 1.816156507E-02 -5.817940787E-03
 9.057344794E-01 2.042260394E-02 -3.268649355E-02
 8.944262266E-01 2.277442813E-02 -8.291830900E-02
 8.832277656E-01 2.499682643E-02 -1.076403528E-01
 8.711409569E-01 2.734817564E-02 -1.365076720E-01
 8.582507372E-01 2.978415973E-02 -1.580558161E-01
 8.462299705E-01 3.206849098E-02 -2.123069670E-01
 8.359199762E-01 3.390058875E-02 -2.176574266E-01
 8.240185380E-01 3.598327562E-02 -2.337475247E-01
 8.117092252E-01 3.812714666E-02 -2.712457303E-01
 7.991417050E-01 4.021315649E-02 -2.851658492E-01
 7.857468724E-01 4.237225279E-02 -2.953207427E-01
 7.736133337E-01 4.433877394E-02 -3.359831875E-01
 7.619053125E-01 4.615760595E-02 -3.554547397E-01
 7.483034134E-01 4.819092527E-02 -3.645483659E-01
 7.344461083E-01 5.023397505E-02 -3.923195537E-01
 7.238129377E-01 5.177377164E-02 -4.204303796E-01
 7.126349807E-01 5.333319679E-02 -4.400424900E-01
 7.007894516E-01 5.494984612E-02 -4.686599890E-01
 6.870754957E-01 5.672794953E-02 -4.873862606E-01
 6.742258072E-01 5.832545087E-02 -5.014561021E-01
 6.640070081E-01 5.954595655E-02 -5.100821360E-01
 6.522355676E-01 6.092041731E-02 -5.339069937E-01
 6.399357915E-01 6.227247417E-02 -4.958015898E-01
 6.279815435E-01 6.353431940E-02 -4.460466083E-01
 6.158413291E-01 6.470344961E-02 -8.169565193E-01
 6.052638888E-01 6.571364403E-02 -9.847055363E-01
 5.927850008E-01 6.679461896E-02 -9.319175493E-01
 5.814992785E-01 6.771654636E-02 -9.269391975E-01
 5.681276321E-01 6.871360540E-02 -9.086265850E-01
 5.559145212E-01 6.950560957E-02 -9.002120929E-01
 5.443479419E-01 7.023832947E-02 -8.935977630E-01
 5.337052345E-01 7.080609351E-02 -8.692871743E-01
 5.225785375E-01 7.136363536E-02 -8.607768961E-01
 5.108477473E-01 7.186053693E-02 -8.462752443E-01
 4.998438060E-01 7.228475809E-02 -8.246747546E-01
 4.866367579E-01 7.266773283E-02 -8.021923779E-01
 4.730580747E-01 7.300125808E-02 -7.975865929E-01
 4.598175287E-01 7.324276865E-02 -7.718792567E-01
 4.470306933E-01 7.336979359E-02 -7.484229274E-01
 4.348294139E-01 7.343628258E-02 -7.410303545E-01
 4.228565395E-01 7.343129069E-02 -7.266875355E-01
 4.109621048E-01 7.336769998E-02 -7.083634267E-01
 3.991179764E-01 7.322712243E-02 -6.894004261E-01
 3.869883418E-01 7.303441316E-02 -6.808030153E-01
 3.752293587E-01 7.277479023E-02 -6.622249943E-01
 3.626907468E-01 7.243719697E-02 -6.603908925E-01
 3.498147726E-01 7.203242183E-02 -6.521694181E-01
 3.364417553E-01 7.150265574E-02 -6.305296457E-01
 3.253182769E-01 7.101284713E-02 -6.219215957E-01
 3.125376999E-01 7.037955523E-02 -6.048059006E-01
 2.992775738E-01 6.962531805E-02 -5.835841113E-01
 2.855514586E-01 6.878158450E-02 -5.823607355E-01
 2.738006115E-01 6.797039509E-02 -5.649024828E-01
 2.620525360E-01 6.709151715E-02 -5.511978881E-01
 2.496895492E-01 6.609252840E-02 -5.400177440E-01
 2.375575900E-01 6.502306461E-02 -5.224239816E-01
 2.249911129E-01 6.383152306E-02 -5.090910782E-01
 2.128897756E-01 6.259701401E-02 -4.956215484E-01
 2.003189623E-01 6.120736897E-02 -4.753829240E-01
 1.876537800E-01 5.970352143E-02 -4.570292261E-01
 1.758164465E-01 5.819859356E-02 -4.407764736E-01
 1.641815156E-01 5.661638826E-02 -4.201916572E-01
 1.521281749E-01 5.486156419E-02 -4.022365252E-01
 1.411652416E-01 5.315389857E-02 -3.792841354E-01
 1.290949434E-01 5.114448816E-02 -3.567900299E-01
 1.179117262E-01 4.913888499E-02 -3.292255054E-01
 1.072247475E-01 4.709549621E-02 -3.047431826E-01
 9.699124098E-02 4.499748722E-02 -2.746581741E-01
 8.616077155E-02 4.262087494E-02 -2.412656255E-01
 7.471921295E-02 3.989001736E-02 -2.047336922E-01
 6.489326060E-02 3.733729199E-02 -1.599085768E-01
 5.495314673E-02 3.452955186E-02 -1.097031585E-01
 4.669862986E-02 3.199634701E-02 -6.648747979E-02
 3.960840777E-02 2.961344831E-02 -1.672675585E-02
 3.316122293E-02 2.727266587E-02 3.790700054E-02
 2.758713067E-02 2.505721338E-02 8.617690790E-02
 2.349199355E-02 2.330344915E-02 1.365571330E-01
 1.949603297E-02 2.145283855E-02 1.919128482E-01
 1.603128947E-02 1.970413513E-02 2.565011362E-01
 1.281342097E-02 1.793073118E-02 3.167664054E-01
 1.041790098E-02 1.648819074E-02 3.769485120E-01
 8.418885991E-03 1.517270971E-02 4.299892972E-01
 6.612182129E-03 1.387679577E-02 5.113446951E-01
 4.315785598E-03 1.201646402E-02 6.249863761E-01
 2.280944260E-03 1.004148088E-02 7.246175701E-01
 6.443774910E-04 8.044253103E-03 9.422653344E-01
 -9.966107318E-04 4.985942040E-03 1.154235042E+00
 -1.503121573E-03 2.818002133E-03 1.194744246E+00
 -1.518337987E-03 1.147884410E-03 1.154392195E+00
 -1.210782211E-03 -4.705809697E-04 1.054128206E+00
 -6.990433903E-04 -1.849219203E-03 8.996879756E-01
 2.932936768E-04 -3.610481974E-03 7.443205370E-01
 1.646228135E-03 -5.336824339E-03 5.438844400E-01
 3.456527833E-03 -7.128562778E-03 3.883341647E-01
 5.132198799E-03 -8.500404656E-03 2.589814744E-01
 6.974208169E-03 -9.808016941E-03 1.782112528E-01
 8.598801680E-03 -1.084024552E-02 1.098387300E-01
 1.068572421E-02 -1.204067655E-02 5.722426462E-02
 1.296841726E-02 -1.322568022E-02 1.262147717E-03
 1.622414403E-02 -1.474863756E-02 -3.901761131E-02
 1.894474030E-02 -1.589707099E-02 -9.226317005E-02
 2.249838226E-02 -1.727674156E-02 -1.171490502E-01
 2.767132781E-02 -1.907995157E-02 -1.426403800E-01
 3.323281184E-02 -2.082072198E-02 -1.758759967E-01
 3.989082575E-02 -2.269267850E-02 -1.966513016E-01
 4.737821221E-02 -2.459607646E-02 -2.105126727E-01
 5.640479550E-02 -2.667317353E-02 -2.226892959E-01
 6.502459198E-02 -2.848365158E-02 -2.390388111E-01
 7.495734841E-02 -3.040506504E-02 -2.490524112E-01
 8.516237140E-02 -3.223695233E-02 -2.617962923E-01
 9.522676468E-02 -3.391399235E-02 -2.706945166E-01
 1.066686064E-01 -3.569655493E-02 -2.786521158E-01
 1.179284230E-01 -3.734555095E-02 -2.926018763E-01
 1.298125535E-01 -3.897783533E-02 -3.038383600E-01
 1.407329291E-01 -4.039380327E-02 -3.179662376E-01
 1.521634609E-01 -4.178900272E-02 -3.271557740E-01
 1.647444665E-01 -4.324699566E-02 -3.424459789E-01
 1.766956747E-01 -4.455037415E-02 -3.596744969E-01
 1.888919026E-01 -4.580169544E-02 -3.755505274E-01
 2.001257390E-01 -4.687999934E-02 -3.895826915E-01
 2.117607445E-01 -4.793371633E-02 -4.049082026E-01
 2.244686782E-01 -4.901298508E-02 -4.275146648E-01
 2.373051494E-01 -4.999904707E-02 -4.391238026E-01
 2.497694790E-01 -5.089463294E-02 -4.637439557E-01
 2.618245482E-01 -5.167281628E-02 -4.847681828E-01
 2.732550800E-01 -5.233136937E-02 -5.000834597E-01
 2.857384682E-01 -5.296865478E-02 -5.166093988E-01
 2.981157899E-01 -5.351755396E-02 -5.414276863E-01
 3.110970557E-01 -5.398165435E-02 -5.582911671E-01
 3.233423233E-01 -5.432398245E-02 -5.770048092E-01
 3.364125788E-01 -5.458030105E-02 -5.953762240E-01
 3.477343917E-01 -5.470523611E-02 -6.177786209E-01
 3.592945933E-01 -5.471905321E-02 -6.182071764E-01
 3.700208962E-01 -5.464394391E-02 -6.142642905E-01
 3.810711205E-01 -5.447937921E-02 -6.127964359E-01
 3.930665553E-01 -5.419195443E-02 -6.060474247E-01
 4.068834186E-01 -5.370629951E-02 -5.805126504E-01
 4.197423458E-01 -5.311918259E-02 -5.593901625E-01
 4.321233332E-01 -5.241361260E-02 -5.240601217E-01
 4.445689321E-01 -5.160812289E-02 -5.033606857E-01
 4.557771087E-01 -5.073975399E-02 -4.605221964E-01
 4.670348167E-01 -4.979175702E-02 -4.218315104E-01
 4.787818491E-01 -4.871212319E-02 -3.867147406E-01
 4.901814759E-01 -4.758283868E-02 -3.512663549E-01
 5.031820536E-01 -4.620488361E-02 -3.103933977E-01
 5.168996453E-01 -4.466715828E-02 -2.753423653E-01
 5.296990275E-01 -4.311917722E-02 -2.244419539E-01
 5.429155231E-01 -4.150201008E-02 -1.958891696E-01
 5.546416044E-01 -4.000195116E-02 -1.588415010E-01
 5.683355331E-01 -3.824466467E-02 -1.352428716E-01
 5.807115436E-01 -3.657252714E-02 -9.346500877E-02
 5.926240087E-01 -3.499092162E-02 -7.653175427E-02
 6.052153111E-01 -3.326468542E-02 -4.321242620E-02
 6.204228997E-01 -3.117643297E-02 -1.294629277E-02
 6.351729035E-01 -2.915468253E-02 1.292712567E-02
 6.513170600E-01 -2.692406438E-02 4.315512108E-02
 6.636822820E-01 -2.521198988E-02 6.962873399E-02
 6.769672036E-01 -2.342359535E-02 8.234958921E-02
 6.891560555E-01 -2.174852975E-02 1.098343835E-01
 7.015586495E-01 -2.008667961E-02 1.262170747E-01
 7.156444788E-01 -1.820914075E-02 1.489332128E-01
 7.287164927E-01 -1.649395935E-02 1.695872536E-01
 7.410844564E-01 -1.491475385E-02 1.850467994E-01
 7.552694678E-01 -1.313736383E-02 2.025050785E-01
 7.668381929E-01 -1.169387810E-02 2.248421682E-01
 7.801889181E-01 -1.010707393E-02 2.373614314E-01
 7.917306423E-01 -8.745097555E-03 2.594961764E-01
 8.046392202E-01 -7.295874879E-03 2.759536576E-01
 8.157624006E-01 -6.134402007E-03 2.826798080E-01
 8.271027803E-01 -4.938013386E-03 3.072607384E-01
 8.405109048E-01 -3.657254623E-03 3.186260993E-01
 8.529577851E-01 -2.541202120E-03 3.353462182E-01
 8.652996421E-01 -1.543572638E-03 3.471769587E-01
 8.763882518E-01 -7.230655174E-04 3.620187488E-01
 8.878752589E-01 1.055936173E-05 3.714248384E-01
 9.008311629E-01 6.859956775E-04 3.772331646E-01
 9.110637307E-01 1.114648650E-03 3.835631444E-01
 9.216136932E-01 1.451336662E-03 3.862395168E-01
 9.309220910E-01 1.657577348E-03 3.875700908E-01
 9.389201999E-01 1.766399248E-03 3.898657082E-01
 9.497904181E-01 1.812005299E-03 3.869439612E-01
 9.612523913E-01 1.740058186E-03 3.845556188E-01
 9.754446149E-01 1.489364658E-03 3.834468452E-01
 9.875718355E-01 1.115931082E-03 3.849314812E-01
 -5.000000000E-01 -1.000000000E+00 1.590766645E-02
 3.500000000E+00 -1.000000000E+00 8.099600286E-03
 3.500000000E+00 1.000000000E+00 -3.467337852E-02
 -5.000000000E-01 1.000000000E+00 1.497024198E-02
 9.946590066E-01 1.614863926E-03 4.018459004E-01
 9.832748175E-01 4.025198752E-03 2.714072833E-01
 9.682210386E-01 7.199585671E-03 1.889108634E-01
 9.518466890E-01 1.069565723E-02 1.206743847E-01
 9.362180233E-01 1.401519729E-02 6.804911990E-02
 9.224564433E-01 1.693264116E-02 1.486783004E-02
 9.112096131E-01 1.929208450E-02 -1.568976980E-02
 9.000803530E-01 2.159851603E-02 -6.218960041E-02
 8.888269961E-01 2.388562728E-02 -9.465832441E-02
 8.771843612E-01 2.617250104E-02 -1.239506059E-01
 8.646958470E-01 2.856616769E-02 -1.420803962E-01
 8.522403538E-01 3.092632536E-02 -1.911157804E-01
 8.410749733E-01 3.298453987E-02 -2.145692447E-01
 8.299692571E-01 3.494193219E-02 -2.216778133E-01
 8.178638816E-01 3.705521114E-02 -2.558215656E-01
 8.054254651E-01 3.917015158E-02 -2.800645384E-01
 7.924442887E-01 4.129270464E-02 -2.851204071E-01
 7.796801031E-01 4.335551336E-02 -3.178727699E-01
 7.677593231E-01 4.524818994E-02 -3.486009002E-01
 7.551043630E-01 4.717426561E-02 -3.578240547E-01
 7.413747609E-01 4.921245016E-02 -3.762766290E-01
 7.291295230E-01 5.100387335E-02 -4.094084812E-01
 7.182239592E-01 5.255348422E-02 -4.278564673E-01
 7.067122161E-01 5.414152145E-02 -4.573129977E-01
 6.939324737E-01 5.583889782E-02 -4.777796833E-01
 6.806506515E-01 5.752670020E-02 -4.954782574E-01
 6.691164076E-01 5.893570371E-02 -5.025366775E-01
 6.581212878E-01 6.023318693E-02 -5.261796862E-01
 6.460856795E-01 6.159644574E-02 -5.246493052E-01
 6.339586675E-01 6.290339679E-02 -4.554446042E-01
 6.219114363E-01 6.411888450E-02 -5.605594527E-01
 6.105526090E-01 6.520854682E-02 -9.759103579E-01
 5.990244448E-01 6.625413150E-02 -9.492532373E-01
 5.871421397E-01 6.725558266E-02 -9.299456811E-01
 5.748134553E-01 6.821507588E-02 -9.217519770E-01
 5.620210767E-01 6.910960749E-02 -8.947591014E-01
 5.501312315E-01 6.987196952E-02 -9.072689241E-01
 5.390265882E-01 7.052221149E-02 -8.733228091E-01
 5.281418860E-01 7.108486444E-02 -8.705405645E-01
 5.167131424E-01 7.161208615E-02 -8.483052633E-01
 5.053457767E-01 7.207264751E-02 -8.433759433E-01
 4.932402819E-01 7.247624546E-02 -8.070138504E-01
 4.798474163E-01 7.283449546E-02 -8.020588193E-01
 4.664378017E-01 7.312201336E-02 -7.881599488E-01
 4.534241110E-01 7.330628112E-02 -7.548119159E-01
 4.409300536E-01 7.340303808E-02 -7.461815113E-01
 4.288429767E-01 7.343378663E-02 -7.333298395E-01
 4.169093221E-01 7.339949533E-02 -7.197899317E-01
 4.050400406E-01 7.329741120E-02 -6.955642782E-01
 3.930531591E-01 7.313076779E-02 -6.872180340E-01
 3.811088502E-01 7.290460169E-02 -6.706182600E-01
 3.689600527E-01 7.260599360E-02 -6.586280395E-01
 3.562527597E-01 7.223480940E-02 -6.621934670E-01
 3.431282640E-01 7.176753879E-02 -6.371813352E-01
 3.308800161E-01 7.125775144E-02 -6.268219152E-01
 3.189279884E-01 7.069620118E-02 -6.168221405E-01
 3.059076369E-01 7.000243664E-02 -5.902073893E-01
 2.924145162E-01 6.920345128E-02 -5.843946386E-01
 2.796760350E-01 6.837598979E-02 -5.733089673E-01
 2.679265738E-01 6.753095612E-02 -5.573428367E-01
 2.558710426E-01 6.659202278E-02 -5.466190929E-01
 2.436235696E-01 6.555779651E-02 -5.312408440E-01
 2.312743515E-01 6.442729384E-02 -5.150863755E-01
 2.189404443E-01 6.321426854E-02 -5.039319626E-01
 2.066043690E-01 6.190219149E-02 -4.857196873E-01
 1.939863712E-01 6.045544520E-02 -4.652828529E-01
 1.817351133E-01 5.895105749E-02 -4.492139937E-01
 1.699989811E-01 5.740749091E-02 -4.312713709E-01
 1.581548452E-01 5.573897623E-02 -4.105206734E-01
 1.466467083E-01 5.400773138E-02 -3.920907004E-01
 1.351300925E-01 5.214919336E-02 -3.684249463E-01
 1.235033348E-01 5.014168657E-02 -3.423704176E-01
 1.125682369E-01 4.811719060E-02 -3.174476115E-01
 1.021079943E-01 4.604649171E-02 -2.903647440E-01
 9.157600626E-02 4.380918108E-02 -2.612530145E-01
 8.043999225E-02 4.125544615E-02 -2.220427179E-01
 6.980623677E-02 3.861365467E-02 -1.836211336E-01
 5.992320366E-02 3.593342192E-02 -1.389111859E-01
 6.999097019E-02 -2.944435831E-02 -2.461560977E-01
 8.005985990E-02 -3.132100869E-02 -2.550933117E-01
 9.019456804E-02 -3.307547234E-02 -2.678978166E-01
 1.009476855E-01 -3.480527364E-02 -2.734216890E-01
 1.122985147E-01 -3.652105294E-02 -2.859559989E-01
 1.238704883E-01 -3.816169314E-02 -2.982681616E-01
 1.352727413E-01 -3.968581930E-02 -3.116146508E-01
 1.464481950E-01 -4.109140299E-02 -3.228710377E-01
 1.584539637E-01 -4.251799919E-02 -3.332392048E-01
 1.707200706E-01 -4.389868490E-02 -3.519533498E-01
 1.827937886E-01 -4.517603479E-02 -3.673185212E-01
 1.945088208E-01 -4.634084739E-02 -3.836941375E-01
 2.059432417E-01 -4.740685783E-02 -3.960852028E-01
 2.181147113E-01 -4.847335070E-02 -4.148942905E-01
 2.308869138E-01 -4.950601608E-02 -4.354128006E-01
 2.435373142E-01 -5.044684000E-02 -4.489471860E-01
 2.557970136E-01 -5.128372461E-02 -4.759961239E-01
 2.675398141E-01 -5.200209282E-02 -4.931415091E-01
 2.794967741E-01 -5.265001208E-02 -5.069374524E-01
 2.919271290E-01 -5.324310437E-02 -5.283231763E-01
 3.046064228E-01 -5.374960415E-02 -5.507028731E-01
 3.172196895E-01 -5.415281840E-02 -5.676854472E-01
 3.298774511E-01 -5.445214175E-02 -5.849156332E-01
 3.420734853E-01 -5.464276858E-02 -6.082373310E-01
 3.535144925E-01 -5.471214466E-02 -6.207307288E-01
 3.646577448E-01 -5.468149856E-02 -6.163585857E-01
 3.755460083E-01 -5.456166156E-02 -6.126697672E-01
 3.870688379E-01 -5.433566682E-02 -6.100904935E-01
 3.999749869E-01 -5.394912697E-02 -5.940585737E-01
 4.133128822E-01 -5.341274105E-02 -5.703310036E-01
 4.259328395E-01 -5.276639760E-02 -5.442851579E-01
 4.383461326E-01 -5.201086774E-02 -5.098735540E-01
 4.501730204E-01 -5.117393844E-02 -4.892200450E-01
 4.614059627E-01 -5.026575550E-02 -4.378200985E-01
 4.729083329E-01 -4.925194010E-02 -4.047477077E-01
 4.844816625E-01 -4.814748093E-02 -3.694235986E-01
 4.966817647E-01 -4.689386114E-02 -3.306225813E-01
 5.100408494E-01 -4.543602094E-02 -2.919696517E-01
 5.232993364E-01 -4.389316775E-02 -2.531668729E-01
 5.363072753E-01 -4.231059365E-02 -2.069621363E-01
 5.487785637E-01 -4.075198062E-02 -1.797986809E-01
 5.614885688E-01 -3.912330791E-02 -1.443124995E-01
 5.745235384E-01 -3.740859590E-02 -1.182274069E-01
 5.866677761E-01 -3.578172438E-02 -8.114469250E-02
 5.989196599E-01 -3.412780352E-02 -6.269850022E-02
 6.128191054E-01 -3.222055919E-02 -2.756380506E-02
 6.277979016E-01 -3.016555775E-02 6.055032197E-04
 6.432449818E-01 -2.803937346E-02 2.762262403E-02
 6.574996710E-01 -2.606802713E-02 5.666421728E-02
 6.703247428E-01 -2.431779262E-02 7.769052615E-02
 6.830616295E-01 -2.258606255E-02 9.391163542E-02
 6.953573525E-01 -2.091760468E-02 1.194793142E-01
 7.086015642E-01 -1.914791018E-02 1.365388488E-01
 7.221804857E-01 -1.735155005E-02 1.594007714E-01
 7.349004745E-01 -1.570435660E-02 1.781321012E-01
 7.481769621E-01 -1.402605884E-02 1.933035047E-01
 7.610538304E-01 -1.241562096E-02 2.130518138E-01
 7.735135555E-01 -1.090047602E-02 2.317072837E-01
 7.859597802E-01 -9.426085744E-03 2.473896825E-01
 7.981849313E-01 -8.020486217E-03 2.675875103E-01
 8.102008104E-01 -6.715138443E-03 2.816990584E-01
 8.214325905E-01 -5.536207696E-03 2.921653033E-01
 8.338068426E-01 -4.297634005E-03 3.132230725E-01
 8.467343450E-01 -3.099228372E-03 3.267272039E-01
 8.591287136E-01 -2.042387379E-03 3.418750994E-01
 8.708439469E-01 -1.133319078E-03 3.543724711E-01
 8.821317554E-01 -3.562530778E-04 3.666180441E-01
 8.943532109E-01 3.482775196E-04 3.740733714E-01
 9.059474468E-01 9.003221639E-04 3.821555171E-01
 9.163387120E-01 1.282992656E-03 3.851394896E-01
 9.443553090E-01 1.789202273E-03 3.871094701E-01
 9.555214047E-01 1.776031742E-03 3.855887465E-01
 9.683485031E-01 1.614711422E-03 3.819047045E-01
 9.815082252E-01 1.302647870E-03 3.863332601E-01
 9.936484098E-01 8.148978231E-04 4.228543977E-01
 -5.000000000E-01 9.500000000E-01 2.474001492E-02
 -5.000000000E-01 9.000000000E-01 3.686792208E-02
 -5.000000000E-01 8.500000000E-01 4.679791685E-02
 -5.000000000E-01 8.000000000E-01 5.508126092E-02
 -5.000000000E-01 7.500000000E-01 6.329708393E-02
 -5.000000000E-01 7.000000000E-01 7.131776349E-02
 -5.000000000E-01 6.500000000E-01 7.951629477E-02
 -5.000000000E-01 6.000000000E-01 8.789637883E-02
 -5.000000000E-01 5.500000000E-01 9.645744965E-02
 -5.000000000E-01 5.000000000E-01 1.052251745E-01
 -5.000000000E-01 4.500000000E-01 1.141507973E-01
 -5.000000000E-01 4.000000000E-01 1.230591342E-01
 -5.000000000E-01 3.500000000E-01 1.317808033E-01
 -5.000000000E-01 3.000000000E-01 1.401186827E-01
 -5.000000000E-01 2.500000000E-01 1.478738105E-01
 -5.000000000E-01 2.000000000E-01 1.546900883E-01
 -5.000000000E-01 1.500000000E-01 1.603030694E-01
 -5.000000000E-01 1.000000000E-01 1.645337945E-01
 -5.000000000E-01 5.000000000E-02 1.670299729E-01
 -5.000000000E-01 2.752242878E-12 1.678590843E-01
 -5.000000000E-01 -5.000000000E-02 1.668903977E-01
 -5.000000000E-01 -1.000000000E-01 1.641755987E-01
 -5.000000000E-01 -1.500000000E-01 1.598929061E-01
 -5.000000000E-01 -2.000000000E-01 1.542548796E-01
 -5.000000000E-01 -2.500000000E-01 1.476517234E-01
 -5.000000000E-01 -3.000000000E-01 1.402119868E-01
 -5.000000000E-01 -3.500000000E-01 1.320477210E-01
 -5.000000000E-01 -4.000000000E-01 1.237262989E-01
 -5.000000000E-01 -4.500000000E-01 1.151404572E-01
 -5.000000000E-01 -5.000000000E-01 1.067703129E-01
 -5.000000000E-01 -5.500000000E-01 9.839797990E-02
 -5.000000000E-01 -6.000000000E-01 8.997566157E-02
 -5.000000000E-01 -6.500000000E-01 8.204466599E-02
 -5.000000000E-01 -7.000000000E-01 7.394679663E-02
 -5.000000000E-01 -7.500000000E-01 6.594974851E-02
 -5.000000000E-01 -8.000000000E-01 5.784320981E-02
 -5.000000000E-01 -8.500000000E-01 4.919257998E-02
 -5.000000000E-01 -9.000000000E-01 3.899849146E-02
 -5.000000000E-01 -9.500000000E-01 2.598528895E-02
 -4.500000000E-01 -1.000000000E+00 2.149575418E-02
 -4.000000000E-01 -1.000000000E+00 3.193292365E-02
 -3.500000000E-01 -1.000000000E+00 3.857326973E-02
 -3.000000000E-01 -1.000000000E+00 4.272778502E-02
 -2.500000000E-01 -1.000000000E+00 4.561688126E-02
 -2.000000000E-01 -1.000000000E+00 4.693491221E-02
 -1.500000000E-01 -1.000000000E+00 4.693124473E-02
 -1.000000000E-01 -1.000000000E+00 4.522118707E-02
 -5.000000000E-02 -1.000000000E+00 4.216764605E-02
 -9.424683256E-13 -1.000000000E+00 3.776169113E-02
 5.000000000E-02 -1.000000000E+00 3.216577104E-02
 1.000000000E-01 -1.000000000E+00 2.561480656E-02
 1.500000000E-01 -1.000000000E+00 1.836742882E-02
 2.000000000E-01 -1.000000000E+00 1.061146118E-02
 2.500000000E-01 -1.000000000E+00 2.922507149E-03
 3.000000000E-01 -1.000000000E+00 -4.298932361E-03
 3.500000000E-01 -1.000000000E+00 -1.074145315E-02
 4.000000000E-01 -1.000000000E+00 -1.599249670E-02
 4.500000000E-01 -1.000000000E+00 -1.990912206E-02
 5.000000000E-01 -1.000000000E+00 -2.223143556E-02
 5.500000000E-01 -1.000000000E+00 -2.276193951E-02
 6.000000000E-01 -1.000000000E+00 -2.164977412E-02
 6.500000000E-01 -1.000000000E+00 -1.899131344E-02
 7.000000000E-01 -1.000000000E+00 -1.499602764E-02
 7.500000000E-01 -1.000000000E+00 -1.004324212E-02
 8.000000000E-01 -1.000000000E+00 -4.326165876E-03
 8.500000000E-01 -1.000000000E+00 1.881378861E-03
 9.000000000E-01 -1.000000000E+00 8.196130478E-03
 9.500000000E-01 -1.000000000E+00 1.435745281E-02
 1.000000000E+00 -1.000000000E+00 2.011333477E-02
 1.050000000E+00 -1.000000000E+00 2.534491465E-02
 1.100000000E+00 -1.000000000E+00 2.996849510E-02
 1.150000000E+00 -1.000000000E+00 3.397252291E-02
 1.200000000E+00 -1.000000000E+00 3.722959331E-02
 1.250000000E+00 -1.000000000E+00 3.983900802E-02
 1.300000000E+00 -1.000000000E+00 4.182118968E-02
 1.350000000E+00 -1.000000000E+00 4.322812625E-02
 1.400000000E+00 -1.000000000E+00 4.413035802E-02
 1.450000000E+00 -1.000000000E+00 4.456645245E-02
 1.500000000E+00 -1.000000000E+00 4.465559420E-02
 1.550000000E+00 -1.000000000E+00 4.440926647E-02
 1.600000000E+00 -1.000000000E+00 4.388959291E-02
 1.650000000E+00 -1.000000000E+00 4.319602944E-02
 1.700000000E+00 -1.000000000E+00 4.229609122E-02
 1.750000000E+00 -1.000000000E+00 4.130630111E-02
 1.800000000E+00 -1.000000000E+00 4.020282131E-02
 1.850000000E+00 -1.000000000E+00 3.902639401E-02
 1.900000000E+00 -1.000000000E+00 3.782499227E-02
 1.950000000E+00 -1.000000000E+00 3.658874563E-02
 2.000000000E+00 -1.000000000E+00 3.537507369E-02
 2.050000000E+00 -1.000000000E+00 3.410790808E-02
 2.100000000E+00 -1.000000000E+00 3.295642589E-02
 2.150000000E+00 -1.000000000E+00 3.173311084E-02
 2.200000000E+00 -1.000000000E+00 3.062774856E-02
 2.250000000E+00 -1.000000000E+00 2.952060437E-02
 2.300000000E+00 -1.000000000E+00 2.847108756E-02
 2.350000000E+00 -1.000000000E+00 2.744427795E-02
 2.400000000E+00 -1.000000000E+00 2.648887968E-02
 2.450000000E+00 -1.000000000E+00 2.558055708E-02
 2.500000000E+00 -1.000000000E+00 2.471932254E-02
 2.550000000E+00 -1.000000000E+00 2.394876202E-02
 2.600000000E+00 -1.000000000E+00 2.318056707E-02
 2.650000000E+00 -1.000000000E+00 2.252583065E-02
 2.700000000E+00 -1.000000000E+00 2.186937718E-02
 2.750000000E+00 -1.000000000E+00 2.129583196E-02
 2.800000000E+00 -1.000000000E+00 2.074616018E-02
 2.850000000E+00 -1.000000000E+00 2.025472007E-02
 2.900000000E+00 -1.000000000E+00 1.982266683E-02
 2.950000000E+00 -1.000000000E+00 1.941038659E-02
 3.000000000E+00 -1.000000000E+00 1.903596275E-02
 3.050000000E+00 -1.000000000E+00 1.871086953E-02
 3.100000000E+00 -1.000000000E+00 1.833429051E-02
 3.150000000E+00 -1.000000000E+00 1.802656967E-02
 3.200000000E+00 -1.000000000E+00 1.762563072E-02
 3.250000000E+00 -1.000000000E+00 1.718747495E-02
 3.300000000E+00 -1.000000000E+00 1.661212548E-02
 3.350000000E+00 -1.000000000E+00 1.583016760E-02
 3.400000000E+00 -1.000000000E+00 1.444523405E-02
 3.450000000E+00 -1.000000000E+00 1.179117149E-02
 3.500000000E+00 -9.500000000E-01 6.150080300E-03
 3.500000000E+00 -9.000000000E-01 7.420333120E-03
 3.500000000E+00 -8.500000000E-01 8.857657233E-03
 3.500000000E+00 -8.000000000E-01 1.030950073E-02
 3.500000000E+00 -7.500000000E-01 1.165413046E-02
 3.500000000E+00 -7.000000000E-01 1.299659673E-02
 3.500000000E+00 -6.500000000E-01 1.435323691E-02
 3.500000000E+00 -6.000000000E-01 1.573053703E-02
 3.500000000E+00 -5.500000000E-01 1.717836043E-02
 3.500000000E+00 -5.000000000E-01 1.858975600E-02
 3.500000000E+00 -4.500000000E-01 2.009332043E-02
 3.500000000E+00 -4.000000000E-01 2.155794325E-02
 3.500000000E+00 -3.500000000E-01 2.304304602E-02
 3.500000000E+00 -3.000000000E-01 2.448290356E-02
 3.500000000E+00 -2.500000000E-01 2.551031409E-02
 3.500000000E+00 -2.000000000E-01 2.595059372E-02
 3.500000000E+00 -1.500000000E-01 2.569945175E-02
 3.500000000E+00 -1.000000000E-01 2.513953674E-02
 3.500000000E+00 -5.000000000E-02 2.468346740E-02
 3.500000000E+00 -2.752242878E-12 2.480402532E-02
 3.500000000E+00 5.000000000E-02 2.529524513E-02
 3.500000000E+00 1.000000000E-01 2.552283942E-02
 3.500000000E+00 1.500000000E-01 2.522574545E-02
 3.500000000E+00 2.000000000E-01 2.426559339E-02
 3.500000000E+00 2.500000000E-01 2.287873463E-02
 3.500000000E+00 3.000000000E-01 2.131414495E-02
 3.500000000E+00 3.500000000E-01 1.978536906E-02
 3.500000000E+00 4.000000000E-01 1.818485664E-02
 3.500000000E+00 4.500000000E-01 1.648666070E-02
 3.500000000E+00 5.000000000E-01 1.485655394E-02
 3.500000000E+00 5.500000000E-01 1.357995887E-02
 3.500000000E+00 6.000000000E-01 1.297191722E-02
 3.500000000E+00 6.500000000E-01 1.277089301E-02
 3.500000000E+00 7.000000000E-01 1.229999454E-02
 3.500000000E+00 7.500000000E-01 9.713147760E-03
 3.500000000E+00 8.000000000E-01 1.334389558E-03
 3.500000000E+00 8.500000000E-01 -1.083935263E-02
 3.500000000E+00 9.000000000E-01 -2.447393052E-02
 3.500000000E+00 9.500000000E-01 -3.912043166E-02
 3.450000000E+00 1.000000000E+00 -1.849301100E-02
 3.400000000E+00 1.000000000E+00 -7.709326416E-03
 3.350000000E+00 1.000000000E+00 -3.847885422E-03
 3.300000000E+00 1.000000000E+00 -2.902649564E-03
 3.250000000E+00 1.000000000E+00 -2.706486724E-03
 3.200000000E+00 1.000000000E+00 -3.002505254E-03
 3.150000000E+00 1.000000000E+00 -3.423197301E-03
 3.100000000E+00 1.000000000E+00 -4.396906412E-03
 3.050000000E+00 1.000000000E+00 -5.138147916E-03
 3.000000000E+00 1.000000000E+00 -6.236777993E-03
 2.950000000E+00 1.000000000E+00 -7.250110276E-03
 2.900000000E+00 1.000000000E+00 -8.458032037E-03
 2.850000000E+00 1.000000000E+00 -9.565999661E-03
 2.800000000E+00 1.000000000E+00 -1.094208508E-02
 2.750000000E+00 1.000000000E+00 -1.214717709E-02
 2.700000000E+00 1.000000000E+00 -1.323281698E-02
 2.650000000E+00 1.000000000E+00 -1.431796424E-02
 2.600000000E+00 1.000000000E+00 -1.604214508E-02
 2.550000000E+00 1.000000000E+00 -1.720126458E-02
 2.500000000E+00 1.000000000E+00 -1.887729960E-02
 2.450000000E+00 1.000000000E+00 -2.063954438E-02
 2.400000000E+00 1.000000000E+00 -2.214312332E-02
 2.350000000E+00 1.000000000E+00 -2.393793303E-02
 2.300000000E+00 1.000000000E+00 -2.584830455E-02
 2.250000000E+00 1.000000000E+00 -2.770494493E-02
 2.200000000E+00 1.000000000E+00 -2.995894304E-02
 2.150000000E+00 1.000000000E+00 -3.199029684E-02
 2.100000000E+00 1.000000000E+00 -3.431429687E-02
 2.050000000E+00 1.000000000E+00 -3.669856930E-02
 2.000000000E+00 1.000000000E+00 -3.958307369E-02
 1.950000000E+00 1.000000000E+00 -4.253871016E-02
 1.900000000E+00 1.000000000E+00 -4.578776790E-02
 1.850000000E+00 1.000000000E+00 -4.913061747E-02
 1.800000000E+00 1.000000000E+00 -5.284100079E-02
 1.750000000E+00 1.000000000E+00 -5.668661536E-02
 1.700000000E+00 1.000000000E+00 -6.093730330E-02
 1.650000000E+00 1.000000000E+00 -6.577914656E-02
 1.600000000E+00 1.000000000E+00 -7.084950947E-02
 1.550000000E+00 1.000000000E+00 -7.635164773E-02
 1.500000000E+00 1.000000000E+00 -8.253427901E-02
 1.450000000E+00 1.000000000E+00 -8.910704734E-02
 1.400000000E+00 1.000000000E+00 -9.639619140E-02
 1.350000000E+00 1.000000000E+00 -1.037447136E-01
 1.300000000E+00 1.000000000E+00 -1.120700571E-01
 1.250000000E+00 1.000000000E+00 -1.206488682E-01
 1.200000000E+00 1.000000000E+00 -1.295952209E-01
 1.150000000E+00 1.000000000E+00 -1.383284213E-01
 1.100000000E+00 1.000000000E+00 -1.476050410E-01
 1.050000000E+00 1.000000000E+00 -1.557968036E-01
 1.000000000E+00 1.000000000E+00 -1.640368807E-01
 9.500000000E-01 1.000000000E+00 -1.703113457E-01
 9.000000000E-01 1.000000000E+00 -1.746090520E-01
 8.500000000E-01 1.000000000E+00 -1.773183649E-01
 8.000000000E-01 1.000000000E+00 -1.783382182E-01
 7.500000000E-01 1.000000000E+00 -1.754351705E-01
 7.000000000E-01 1.000000000E+00 -1.710832063E-01
 6.500000000E-01 1.000000000E+00 -1.628782515E-01
 6.000000000E-01 1.000000000E+00 -1.517392402E-01
 5.500000000E-01 1.000000000E+00 -1.395790157E-01
 5.000000000E-01 1.000000000E+00 -1.241385459E-01
 4.500000000E-01 1.000000000E+00 -1.081621033E-01
 4.000000000E-01 1.000000000E+00 -9.064708838E-02
 3.500000000E-01 1.000000000E+00 -7.410992974E-02
 3.000000000E-01 1.000000000E+00 -5.697892798E-02
 2.500000000E-01 1.000000000E+00 -4.060009812E-02
 2.000000000E-01 1.000000000E+00 -2.493110805E-02
 1.500000000E-01 1.000000000E+00 -1.047528901E-02
 1.000000000E-01 1.000000000E+00 2.451755471E-03
 5.000000000E-02 1.000000000E+00 1.375286999E-02
 1.733724275E-12 1.000000000E+00 2.329600451E-02
 -5.000000000E-02 1.000000000E+00 3.077518798E-02
 -1.000000000E-01 1.000000000E+00 3.629758029E-02
 -1.500000000E-01 1.000000000E+00 3.993983048E-02
 -2.000000000E-01 1.000000000E+00 4.157849286E-02
 -2.500000000E-01 1.000000000E+00 4.148089282E-02
 -3.000000000E-01 1.000000000E+00 3.958577090E-02
 -3.500000000E-01 1.000000000E+00 3.600052237E-02
 -4.000000000E-01 1.000000000E+00 3.004038170E-02
 -4.500000000E-01 1.000000000E+00 2.020258203E-02
 9.843855199E-01 -3.834589556E-03 3.809100189E-01
 8.852349084E-01 -6.001925336E-03 3.613194640E-01
 8.079229478E-01 -1.182198505E-02 2.760551635E-01
 7.387577522E-01 -2.073175709E-02 1.796292799E-01
 6.677512902E-01 -3.031968873E-02 7.209345502E-02
 5.965834134E-01 -4.014406078E-02 -6.712447628E-02
 5.344114553E-01 -4.779784214E-02 -2.101781319E-01
 4.698420039E-01 -5.505095239E-02 -4.056247562E-01
 4.170090642E-01 -5.864518443E-02 -5.522833253E-01