TITLE     = "Visualization of the solution"
VARIABLES = "x"
"y"
"Pressure_Coefficient"
ZONE T="Zone"
 STRANDID=0, SOLUTIONTIME=0
 Nodes=12156, Elements=23728, ZONETYPE=FEQuadrilateral
 DATAPACKING=POINT
 DT=(DOUBLE DOUBLE DOUBLE )
 9.997598529E-01 5.109221675E-04 3.646550659E-01
 9.838639498E-01 3.619361203E-03 2.244944813E-01
 9.702901840E-01 6.183354650E-03 1.693572588E-01
 9.548377395E-01 9.160655551E-03 1.120728022E-01
 9.407643676E-01 1.186055318E-02 6.610762618E-02
 9.286134839E-01 1.417401899E-02 3.123734803E-02
 9.174497128E-01 1.630926505E-02 -1.102288179E-02
 9.056574702E-01 1.850749180E-02 -4.232436634E-02
 8.941175938E-01 2.064468153E-02 -8.422794006E-02
 8.818591833E-01 2.282330021E-02 -1.138177481E-01
 8.696503043E-01 2.491236664E-02 -1.323735227E-01
 8.575746417E-01 2.693798393E-02 -1.533005653E-01
 8.456407785E-01 2.892726846E-02 -1.912596635E-01
 8.341352940E-01 3.072779998E-02 -1.911090841E-01
 8.227567673E-01 3.253498673E-02 -2.241653458E-01
 8.103400469E-01 3.442917392E-02 -2.439663708E-01
 7.978273630E-01 3.627617285E-02 -2.577585189E-01
 7.860954404E-01 3.797335550E-02 -2.726725228E-01
 7.737959027E-01 3.972847760E-02 -2.963450909E-01
 7.621450424E-01 4.134168103E-02 -3.121197305E-01
 7.494458556E-01 4.307021573E-02 -3.368072914E-01
 7.361556888E-01 4.481238127E-02 -3.536173219E-01
 7.252431512E-01 4.620441794E-02 -3.668469985E-01
 7.138731480E-01 4.763677716E-02 -3.909086381E-01
 7.020962834E-01 4.907243326E-02 -4.105255541E-01
 6.891812086E-01 5.060096458E-02 -4.348466080E-01
 6.763074398E-01 5.206248909E-02 -4.571480893E-01
 6.650076509E-01 5.329882726E-02 -4.742758704E-01
 6.533045173E-01 5.453138053E-02 -4.928642280E-01
 6.424852014E-01 5.563777313E-02 -5.216856965E-01
 6.304067373E-01 5.681888387E-02 -5.501121933E-01
 6.187077761E-01 5.788502097E-02 -5.647635012E-01
 6.079848409E-01 5.881776288E-02 -5.825870573E-01
 5.959240794E-01 5.980374292E-02 -6.113163968E-01
 5.841357708E-01 6.071926281E-02 -6.260074381E-01
 5.703353286E-01 6.168571487E-02 -6.156752667E-01
 5.572576523E-01 6.252764910E-02 -6.456643726E-01
 5.440996289E-01 6.328967959E-02 -7.276986242E-01
 5.324223638E-01 6.388144195E-02 -7.864524049E-01
 5.203142762E-01 6.445988268E-02 -7.961832138E-01
 5.078322887E-01 6.495903432E-02 -7.729391309E-01
 4.972009361E-01 6.531052291E-02 -7.559096604E-01
 4.842032492E-01 6.567312777E-02 -7.584748700E-01
 4.715375006E-01 6.595846266E-02 -7.514881568E-01
 4.580338001E-01 6.617687643E-02 -7.239442473E-01
 4.439347386E-01 6.628371775E-02 -7.040319769E-01
 4.311668575E-01 6.633233279E-02 -6.960311720E-01
 4.178782105E-01 6.627651304E-02 -6.727277451E-01
 4.053652883E-01 6.616368890E-02 -6.669560365E-01
 3.920265436E-01 6.597462296E-02 -6.642866190E-01
 3.799752295E-01 6.573005021E-02 -6.448596475E-01
 3.682809472E-01 6.541836262E-02 -6.246384727E-01
 3.549664617E-01 6.501292437E-02 -6.217693424E-01
 3.423399627E-01 6.454099715E-02 -6.050411399E-01
 3.299598694E-01 6.401044130E-02 -5.914574815E-01
 3.196572363E-01 6.351219118E-02 -5.735018203E-01
 3.077379167E-01 6.288673729E-02 -5.632594572E-01
 2.954898477E-01 6.217663735E-02 -5.517973207E-01
 2.819887400E-01 6.131582707E-02 -5.416642045E-01
 2.698629498E-01 6.045565382E-02 -5.213526129E-01
 2.581369579E-01 5.956478044E-02 -5.083137815E-01
 2.457736135E-01 5.855793133E-02 -4.955120728E-01
 2.331854105E-01 5.744419247E-02 -4.778258226E-01
 2.211508155E-01 5.631499738E-02 -4.682422187E-01
 2.094152570E-01 5.513087288E-02 -4.509079752E-01
 1.976266205E-01 5.386334285E-02 -4.335808295E-01
 1.852990687E-01 5.246471986E-02 -4.227371667E-01
 1.734530628E-01 5.101979151E-02 -4.022167150E-01
 1.616944969E-01 4.950779304E-02 -3.873834992E-01
 1.498261243E-01 4.788728058E-02 -3.731629767E-01
 1.387459040E-01 4.628214613E-02 -3.574433562E-01
 1.273510456E-01 4.452250898E-02 -3.354676584E-01
 1.161852553E-01 4.269726947E-02 -3.174431926E-01
 1.054080129E-01 4.083470255E-02 -3.047284304E-01
 9.542762488E-02 3.899231181E-02 -2.825609830E-01
 8.455678821E-02 3.685658053E-02 -2.598014267E-01
 7.333680987E-02 3.448722884E-02 -2.415491338E-01
 6.347759813E-02 3.224206716E-02 -2.120932713E-01
 5.409229174E-02 2.992079407E-02 -1.829654890E-01
 4.526803643E-02 2.755415253E-02 -1.587160696E-01
 3.734173626E-02 2.522744797E-02 -1.289150795E-01
 3.043424524E-02 2.300114930E-02 -9.555940670E-02
 2.461973391E-02 2.093791775E-02 -6.670678546E-02
 2.029476874E-02 1.924960874E-02 -3.019138257E-02
 1.627357863E-02 1.752681285E-02 6.350839001E-03
 1.324186567E-02 1.609740220E-02 4.498933502E-02
 1.061177719E-02 1.474166382E-02 7.895784867E-02
 8.689981885E-03 1.365282852E-02 1.216604585E-01
 6.882189307E-03 1.253654342E-02 1.591634735E-01
 5.184144713E-03 1.138111856E-02 2.414696911E-01
 3.047748003E-03 9.703246877E-03 3.397966558E-01
 1.327986480E-03 8.062072098E-03 4.499318567E-01
 -4.512869418E-05 6.412292831E-03 6.642477763E-01
 -1.372416154E-03 4.138329532E-03 8.939143610E-01
 -1.979816006E-03 2.318405313E-03 1.050828442E+00
 -2.199343406E-03 8.315962041E-04 1.150726316E+00
 -2.156102099E-03 -9.896262782E-04 1.205972186E+00
 -1.693964470E-03 -3.117064713E-03 1.168529063E+00
 -6.603053771E-04 -5.568311084E-03 1.070023443E+00
 9.719230584E-04 -8.167483844E-03 9.180172017E-01
 3.148933407E-03 -1.079322025E-02 7.642266415E-01
 5.159685388E-03 -1.280107908E-02 6.328900079E-01
 7.526702248E-03 -1.485985238E-02 5.423819309E-01
 9.318318218E-03 -1.626075432E-02 4.507109640E-01
 1.147036068E-02 -1.780840196E-02 3.909704251E-01
 1.397193223E-02 -1.946422830E-02 3.162271260E-01
 1.722088270E-02 -2.142466977E-02 2.434381384E-01
 2.049645223E-02 -2.324040420E-02 1.660373202E-01
 2.458781190E-02 -2.530671470E-02 1.008881368E-01
 2.993861213E-02 -2.777145989E-02 3.646646705E-02
 3.539995477E-02 -3.004661202E-02 -3.378326387E-02
 4.211689532E-02 -3.259171546E-02 -8.652014357E-02
 4.946101084E-02 -3.511303663E-02 -1.361906352E-01
 5.810052529E-02 -3.781451657E-02 -1.818834754E-01
 6.658663601E-02 -4.024105147E-02 -2.262156093E-01
 7.685107738E-02 -4.291028902E-02 -2.626613081E-01
 8.651532978E-02 -4.522311315E-02 -2.851766905E-01
 9.712056071E-02 -4.756628722E-02 -3.206775257E-01
 1.083276197E-01 -4.986974970E-02 -3.487351665E-01
 1.199936271E-01 -5.207752064E-02 -3.708534902E-01
 1.315412372E-01 -5.411896855E-02 -3.999904840E-01
 1.419893503E-01 -5.583218858E-02 -4.195991955E-01
 1.533020437E-01 -5.757346004E-02 -4.359022918E-01
 1.651860327E-01 -5.929141864E-02 -4.623735480E-01
 1.766887605E-01 -6.083958596E-02 -4.890800471E-01
 1.882929504E-01 -6.228544563E-02 -5.054042423E-01
 1.987802982E-01 -6.350935251E-02 -5.257630419E-01
 2.100464255E-01 -6.474392861E-02 -5.538757870E-01
 2.221401930E-01 -6.595327705E-02 -5.753102005E-01
 2.337531894E-01 -6.701799482E-02 -5.974498795E-01
 2.454318255E-01 -6.799641252E-02 -6.248597493E-01
 2.574345767E-01 -6.889700145E-02 -6.512883801E-01
 2.687330842E-01 -6.964787841E-02 -6.756492179E-01
 2.811047137E-01 -7.036177069E-02 -6.872914820E-01
 2.932770848E-01 -7.097467780E-02 -7.220598731E-01
 3.059318066E-01 -7.147710025E-02 -7.652741549E-01
 3.176730275E-01 -7.181847095E-02 -7.937740216E-01
 3.300701976E-01 -7.207909971E-02 -8.097983888E-01
 3.403933346E-01 -7.220509648E-02 -8.505273220E-01
 3.518729210E-01 -7.221578807E-02 -8.727505068E-01
 3.631982207E-01 -7.213983685E-02 -8.926236865E-01
 3.742083311E-01 -7.195265591E-02 -9.266666650E-01
 3.860929608E-01 -7.161462307E-02 -9.552532190E-01
 3.988001347E-01 -7.111880183E-02 -9.658819247E-01
 4.109926522E-01 -7.053335756E-02 -9.915435127E-01
 4.237165749E-01 -6.974583864E-02 -1.050558656E+00
 4.361311495E-01 -6.887335330E-02 -8.395475364E-01
 4.491151273E-01 -6.781123579E-02 -4.145902436E-01
 4.616322517E-01 -6.666614860E-02 -4.666042398E-01
 4.742718339E-01 -6.539714336E-02 -4.864225979E-01
 4.865120947E-01 -6.404423714E-02 -4.427923212E-01
 4.986649752E-01 -6.262282282E-02 -4.134302729E-01
 5.119811296E-01 -6.094606966E-02 -3.678169968E-01
 5.249009728E-01 -5.924586952E-02 -3.298020365E-01
 5.372922421E-01 -5.756317079E-02 -3.045786987E-01
 5.507301688E-01 -5.562833324E-02 -2.588100907E-01
 5.638198853E-01 -5.369039625E-02 -2.216013190E-01
 5.769743919E-01 -5.169029534E-02 -1.853718128E-01
 5.902504921E-01 -4.963193089E-02 -1.510727779E-01
 6.034641862E-01 -4.755340889E-02 -1.196981120E-01
 6.164176464E-01 -4.550331831E-02 -9.503138607E-02
 6.298011541E-01 -4.333333299E-02 -5.956267437E-02
 6.434189677E-01 -4.115187749E-02 -4.247117438E-02
 6.562835574E-01 -3.901915252E-02 -5.632249473E-03
 6.698333025E-01 -3.680526465E-02 1.590707549E-02
 6.823384762E-01 -3.474072739E-02 4.406238323E-02
 6.948456168E-01 -3.270540759E-02 6.197679757E-02
 7.096269727E-01 -3.029310890E-02 8.597829139E-02
 7.228671908E-01 -2.813921869E-02 1.051058688E-01
 7.339521646E-01 -2.628266066E-02 1.406028578E-01
 7.474209666E-01 -2.412519790E-02 1.545173910E-01
 7.605870962E-01 -2.203118056E-02 1.760663889E-01
 7.742102742E-01 -1.986194029E-02 2.048477812E-01
 7.870427966E-01 -1.793069392E-02 2.097937295E-01
 7.993534803E-01 -1.597633027E-02 2.525148448E-01
 8.106483221E-01 -1.433277037E-02 2.566169264E-01
 8.217391968E-01 -1.272266358E-02 2.761714320E-01
 8.335469365E-01 -1.101707760E-02 3.036149080E-01
 8.460180163E-01 -9.346855804E-03 3.148103446E-01
 8.579486609E-01 -7.761488669E-03 3.438256353E-01
 8.686998487E-01 -6.448688917E-03 3.589325647E-01
 8.799173236E-01 -5.184161011E-03 3.719311167E-01
 8.924116492E-01 -3.885196988E-03 3.881092042E-01
 9.026987553E-01 -2.938281046E-03 3.985005917E-01
 9.134471416E-01 -2.048865426E-03 4.108215764E-01
 9.240458012E-01 -1.318375813E-03 4.150993364E-01
 9.343599081E-01 -7.204366848E-04 4.208902542E-01
 9.471541643E-01 -1.455121383E-04 4.235195261E-01
 9.616919160E-01 2.946130990E-04 4.256058365E-01
 9.762612581E-01 5.260023172E-04 4.334787842E-01
 9.894231558E-01 5.611092201E-04 4.553131221E-01
 -5.000000000E-01 -1.000000000E+00 1.710490754E-02
 3.500000000E+00 -1.000000000E+00 4.905061530E-03
 3.500000000E+00 1.000000000E+00 -2.444330303E-02
 -5.000000000E-01 1.000000000E+00 1.604541219E-02
 9.918119013E-01 2.065141685E-03 2.957181757E-01
 9.770770669E-01 4.901357926E-03 1.942252851E-01
 9.625639617E-01 7.672005100E-03 1.390147199E-01
 9.478010535E-01 1.051060436E-02 8.747804338E-02
 9.346889257E-01 1.301728608E-02 4.928690118E-02
 9.230315983E-01 1.524164202E-02 8.267342891E-03
 9.115535915E-01 1.740837842E-02 -2.493685365E-02
 8.998875320E-01 1.957608666E-02 -6.568447387E-02
 8.879883885E-01 2.173399087E-02 -1.003959030E-01
 8.757547438E-01 2.386783343E-02 -1.230496528E-01
 8.636124730E-01 2.592517529E-02 -1.394186721E-01
 8.516077101E-01 2.793262620E-02 -1.786922758E-01
 8.398880363E-01 2.982753422E-02 -1.856199033E-01
 8.284460306E-01 3.163139336E-02 -2.098555643E-01
 8.165484071E-01 3.348208033E-02 -2.351416472E-01
 8.040837049E-01 3.535267338E-02 -2.504140724E-01
 7.919614017E-01 3.712476417E-02 -2.638771915E-01
 7.799456716E-01 3.885091655E-02 -2.857433653E-01
 7.679704726E-01 4.053507932E-02 -3.029836427E-01
 7.557954490E-01 4.220594838E-02 -3.256812185E-01
 7.428007722E-01 4.394129850E-02 -3.454949702E-01
 7.306994200E-01 4.550839961E-02 -3.583134110E-01
 7.195581496E-01 4.692059755E-02 -3.799225811E-01
 7.079847157E-01 4.835460521E-02 -4.003894558E-01
 6.956387460E-01 4.983669892E-02 -4.231749202E-01
 6.827443242E-01 5.133172683E-02 -4.456701631E-01
 6.706575453E-01 5.268065818E-02 -4.666828917E-01
 6.591560841E-01 5.391510390E-02 -4.818084870E-01
 6.478948593E-01 5.508457683E-02 -5.067551962E-01
 6.364459693E-01 5.622832850E-02 -5.389530475E-01
 6.245572567E-01 5.735195242E-02 -5.560173118E-01
 6.133463085E-01 5.835139193E-02 -5.742639338E-01
 6.019544601E-01 5.931075290E-02 -5.942482860E-01
 5.900299251E-01 6.026150286E-02 -6.263452078E-01
 5.772355497E-01 6.120248884E-02 -6.186534590E-01
 5.637964904E-01 6.210668199E-02 -6.229722836E-01
 5.506786406E-01 6.290866435E-02 -6.845540096E-01
 5.382609963E-01 6.358556077E-02 -7.596721907E-01
 5.263683200E-01 6.417066231E-02 -8.009808707E-01
 5.140732825E-01 6.470945850E-02 -7.841756703E-01
 5.025166124E-01 6.513477862E-02 -7.615188342E-01
 4.907020926E-01 6.549182534E-02 -7.568062974E-01
 4.778703749E-01 6.581579521E-02 -7.573636804E-01
 4.647856504E-01 6.606766954E-02 -7.419472646E-01
 4.509842694E-01 6.623029709E-02 -7.063613765E-01
 4.375507981E-01 6.630802527E-02 -7.057467005E-01
 4.245225340E-01 6.630442291E-02 -6.811539579E-01
 4.116217494E-01 6.622010097E-02 -6.687540344E-01
 3.986959159E-01 6.606915593E-02 -6.668433034E-01
 3.860008866E-01 6.585233659E-02 -6.569289757E-01
 3.741280884E-01 6.557420641E-02 -6.308809054E-01
 3.616237044E-01 6.521564350E-02 -6.254102568E-01
 3.486532122E-01 6.477696076E-02 -6.131133653E-01
 3.361499161E-01 6.427571923E-02 -5.979820656E-01
 3.248085529E-01 6.376131624E-02 -5.815819722E-01
 3.136975765E-01 6.319946423E-02 -5.689765037E-01
 3.016138822E-01 6.253168732E-02 -5.575485295E-01
 2.887392938E-01 6.174623221E-02 -5.480885706E-01
 2.759258449E-01 6.088574044E-02 -5.303308525E-01
 2.639999539E-01 6.001021713E-02 -5.141910374E-01
 2.519552857E-01 5.906135589E-02 -5.039730985E-01
 2.394795120E-01 5.800106190E-02 -4.847260462E-01
 2.271681130E-01 5.687959492E-02 -4.738413176E-01
 2.152830362E-01 5.572293513E-02 -4.602533274E-01
 2.035209388E-01 5.449710786E-02 -4.409901007E-01
 1.914628446E-01 5.316403136E-02 -4.299609966E-01
 1.793760657E-01 5.174225569E-02 -4.114378261E-01
 1.675737798E-01 5.026379228E-02 -3.952502501E-01
 1.557603106E-01 4.869753681E-02 -3.798004381E-01
 1.442860141E-01 4.708471335E-02 -3.667882188E-01
 1.330484748E-01 4.540232755E-02 -3.462786227E-01
 1.217681505E-01 4.360988922E-02 -3.255008187E-01
 1.107966341E-01 4.176598601E-02 -3.116322076E-01
 1.004178189E-01 3.991350718E-02 -2.948776080E-01
 8.999220654E-02 3.792444617E-02 -2.729719352E-01
 7.894679904E-02 3.567190468E-02 -2.484323005E-01
 6.840720400E-02 3.336464800E-02 -2.342318497E-01
 7.171885669E-02 -4.157567024E-02 -2.510940073E-01
 9.181794524E-02 -4.639470018E-02 -3.101822885E-01
 1.027240902E-01 -4.871801846E-02 -3.320910982E-01
 1.141606234E-01 -5.097363517E-02 -3.612326681E-01
 1.257674322E-01 -5.309824459E-02 -3.851167902E-01
 1.367652938E-01 -5.497557856E-02 -4.132470273E-01
 1.476456970E-01 -5.670282431E-02 -4.260428961E-01
 1.592440382E-01 -5.843243934E-02 -4.477809511E-01
 1.709373966E-01 -6.006550230E-02 -4.772383578E-01
 1.824908555E-01 -6.156251580E-02 -4.981331523E-01
 1.935366243E-01 -6.289739907E-02 -5.157384437E-01
 2.044133618E-01 -6.412664056E-02 -5.377113392E-01
 2.160933092E-01 -6.534860283E-02 -5.661320936E-01
 2.279466912E-01 -6.648563594E-02 -5.860119427E-01
 2.395925075E-01 -6.750720367E-02 -6.103492043E-01
 2.514332011E-01 -6.844670698E-02 -6.383487817E-01
 2.630838305E-01 -6.927243993E-02 -6.648325686E-01
 2.749188989E-01 -7.000482455E-02 -6.815577481E-01
 2.871908993E-01 -7.066822425E-02 -7.000548098E-01
 2.996044457E-01 -7.122588903E-02 -7.439748091E-01
 3.118024170E-01 -7.164778560E-02 -7.841317337E-01
 3.238716125E-01 -7.194878533E-02 -7.999342613E-01
 3.352317661E-01 -7.214209810E-02 -8.279210784E-01
 3.461331278E-01 -7.221044227E-02 -8.661420894E-01
 3.575355709E-01 -7.217781246E-02 -8.793822036E-01
 3.687032759E-01 -7.204624638E-02 -9.090878707E-01
 3.801506460E-01 -7.178363949E-02 -9.418270766E-01
 3.924465477E-01 -7.136671245E-02 -9.635157056E-01
 4.048963934E-01 -7.082607970E-02 -9.709314334E-01
 4.173546135E-01 -7.013959810E-02 -1.024686196E+00
 4.299238622E-01 -6.930959597E-02 -1.020153152E+00
 4.426231384E-01 -6.834229454E-02 -5.512465421E-01
 4.553736895E-01 -6.723869219E-02 -4.190998820E-01
 4.679520428E-01 -6.603164598E-02 -4.911870813E-01
 4.803919643E-01 -6.472069025E-02 -4.668315997E-01
 4.925885350E-01 -6.333352998E-02 -4.262365570E-01
 5.053230524E-01 -6.178444624E-02 -3.932152369E-01
 5.184410512E-01 -6.009596959E-02 -3.473015464E-01
 5.310966074E-01 -5.840452015E-02 -3.162874821E-01
 5.440112054E-01 -5.659575202E-02 -2.842263738E-01
 5.572750270E-01 -5.465936475E-02 -2.387445418E-01
 5.703971386E-01 -5.269034579E-02 -2.039460884E-01
 5.836124420E-01 -5.066111311E-02 -1.681707127E-01
 5.968573391E-01 -4.859266989E-02 -1.350477537E-01
 6.099409163E-01 -4.652836360E-02 -1.064959088E-01
 6.231094003E-01 -4.441832565E-02 -7.891810850E-02
 6.366100609E-01 -4.224260524E-02 -4.824015511E-02
 6.498512626E-01 -4.008551501E-02 -2.747628844E-02
 6.630584300E-01 -3.791220859E-02 7.333246982E-03
 6.760858893E-01 -3.577299602E-02 2.877715558E-02
 6.885920465E-01 -3.372306749E-02 5.435586137E-02
 7.022362947E-01 -3.149925824E-02 7.339460944E-02
 7.162470818E-01 -2.921616379E-02 9.643790949E-02
 7.284096777E-01 -2.721093968E-02 1.193723721E-01
 7.406865656E-01 -2.520392928E-02 1.496477156E-01
 7.540040314E-01 -2.307818923E-02 1.646552871E-01
 7.673986852E-01 -2.094656043E-02 1.889931205E-01
 7.806265354E-01 -1.889631711E-02 2.112632336E-01
 7.931981385E-01 -1.695351209E-02 2.251849931E-01
 8.050009012E-01 -1.515455032E-02 2.600380970E-01
 8.161937594E-01 -1.352771698E-02 2.648977860E-01
 8.276430666E-01 -1.186987059E-02 2.878152780E-01
 8.397824764E-01 -1.018196670E-02 3.112852173E-01
 8.519833386E-01 -8.554172236E-03 3.269932927E-01
 8.633242548E-01 -7.105088793E-03 3.533240641E-01
 8.743085861E-01 -5.816424964E-03 3.651586380E-01
 8.861644864E-01 -4.534678999E-03 3.788273857E-01
 8.975552022E-01 -3.411739017E-03 3.955282319E-01
 9.080729485E-01 -2.493573236E-03 4.034984194E-01
 9.187464714E-01 -1.683620620E-03 4.142340331E-01
 9.292028546E-01 -1.019406249E-03 4.179442950E-01
 9.407570362E-01 -4.329744115E-04 4.204260660E-01
 9.544230402E-01 7.455048035E-05 4.237167773E-01
 9.689765871E-01 4.103077081E-04 4.291388547E-01
 9.828422070E-01 5.435557687E-04 4.418921378E-01
 9.945915043E-01 5.360156938E-04 5.097790488E-01
 -5.000000000E-01 9.500000000E-01 2.616735824E-02
 -5.000000000E-01 9.000000000E-01 3.956198081E-02
 -5.000000000E-01 8.500000000E-01 4.982698408E-02
 -5.000000000E-01 8.000000000E-01 5.879149003E-02
 -5.000000000E-01 7.500000000E-01 6.742424334E-02
 -5.000000000E-01 7.000000000E-01 7.594261150E-02
 -5.000000000E-01 6.500000000E-01 8.459147810E-02
 -5.000000000E-01 6.000000000E-01 9.345170643E-02
 -5.000000000E-01 5.500000000E-01 1.025856710E-01
 -5.000000000E-01 5.000000000E-01 1.119926942E-01
 -5.000000000E-01 4.500000000E-01 1.215655280E-01
 -5.000000000E-01 4.000000000E-01 1.312198436E-01
 -5.000000000E-01 3.500000000E-01 1.406962247E-01
 -5.000000000E-01 3.000000000E-01 1.498919576E-01
 -5.000000000E-01 2.500000000E-01 1.585869173E-01
 -5.000000000E-01 2.000000000E-01 1.664059225E-01
 -5.000000000E-01 1.500000000E-01 1.728806830E-01
 -5.000000000E-01 1.000000000E-01 1.779628656E-01
 -5.000000000E-01 5.000000000E-02 1.813019515E-01
 -5.000000000E-01 2.752242878E-12 1.827187900E-01
 -5.000000000E-01 -5.000000000E-02 1.822803003E-01
 -5.000000000E-01 -1.000000000E-01 1.798491520E-01
 -5.000000000E-01 -1.500000000E-01 1.754192369E-01
 -5.000000000E-01 -2.000000000E-01 1.695040515E-01
 -5.000000000E-01 -2.500000000E-01 1.624087203E-01
 -5.000000000E-01 -3.000000000E-01 1.541236800E-01
 -5.000000000E-01 -3.500000000E-01 1.453995113E-01
 -5.000000000E-01 -4.000000000E-01 1.359028210E-01
 -5.000000000E-01 -4.500000000E-01 1.264559472E-01
 -5.000000000E-01 -5.000000000E-01 1.168689940E-01
 -5.000000000E-01 -5.500000000E-01 1.073954706E-01
 -5.000000000E-01 -6.000000000E-01 9.817579869E-02
 -5.000000000E-01 -6.500000000E-01 8.898859961E-02
 -5.000000000E-01 -7.000000000E-01 8.021617276E-02
 -5.000000000E-01 -7.500000000E-01 7.129189219E-02
 -5.000000000E-01 -8.000000000E-01 6.237237330E-02
 -5.000000000E-01 -8.500000000E-01 5.284285475E-02
 -5.000000000E-01 -9.000000000E-01 4.202748009E-02
 -5.000000000E-01 -9.500000000E-01 2.789134588E-02
 -4.500000000E-01 -1.000000000E+00 2.297134656E-02
 -4.000000000E-01 -1.000000000E+00 3.420311892E-02
 -3.500000000E-01 -1.000000000E+00 4.112888285E-02
 -3.000000000E-01 -1.000000000E+00 4.533073577E-02
 -2.500000000E-01 -1.000000000E+00 4.791465809E-02
 -2.000000000E-01 -1.000000000E+00 4.871607609E-02
 -1.500000000E-01 -1.000000000E+00 4.759594306E-02
 -1.000000000E-01 -1.000000000E+00 4.460265515E-02
 -5.000000000E-02 -1.000000000E+00 3.987358826E-02
 -9.424683256E-13 -1.000000000E+00 3.329012782E-02
 5.000000000E-02 -1.000000000E+00 2.493378922E-02
 1.000000000E-01 -1.000000000E+00 1.521148063E-02
 1.500000000E-01 -1.000000000E+00 4.288959684E-03
 2.000000000E-01 -1.000000000E+00 -7.341676575E-03
 2.500000000E-01 -1.000000000E+00 -1.915608890E-02
 3.000000000E-01 -1.000000000E+00 -3.078813937E-02
 3.500000000E-01 -1.000000000E+00 -4.138800930E-02
 4.000000000E-01 -1.000000000E+00 -5.061136046E-02
 4.500000000E-01 -1.000000000E+00 -5.815881402E-02
 5.000000000E-01 -1.000000000E+00 -6.327257319E-02
 5.500000000E-01 -1.000000000E+00 -6.600952265E-02
 6.000000000E-01 -1.000000000E+00 -6.646004126E-02
 6.500000000E-01 -1.000000000E+00 -6.408678866E-02
 7.000000000E-01 -1.000000000E+00 -6.040603943E-02
 7.500000000E-01 -1.000000000E+00 -5.447725458E-02
 8.000000000E-01 -1.000000000E+00 -4.777009273E-02
 8.500000000E-01 -1.000000000E+00 -3.993143203E-02
 9.000000000E-01 -1.000000000E+00 -3.164867223E-02
 9.500000000E-01 -1.000000000E+00 -2.333066139E-02
 1.000000000E+00 -1.000000000E+00 -1.533916384E-02
 1.050000000E+00 -1.000000000E+00 -7.806298236E-03
 1.100000000E+00 -1.000000000E+00 -9.616064008E-04
 1.150000000E+00 -1.000000000E+00 5.192546676E-03
 1.200000000E+00 -1.000000000E+00 1.028168281E-02
 1.250000000E+00 -1.000000000E+00 1.468082509E-02
 1.300000000E+00 -1.000000000E+00 1.840179196E-02
 1.350000000E+00 -1.000000000E+00 2.107180202E-02
 1.400000000E+00 -1.000000000E+00 2.357309937E-02
 1.450000000E+00 -1.000000000E+00 2.526687353E-02
 1.500000000E+00 -1.000000000E+00 2.658058924E-02
 1.550000000E+00 -1.000000000E+00 2.747972209E-02
 1.600000000E+00 -1.000000000E+00 2.794038706E-02
 1.650000000E+00 -1.000000000E+00 2.816987946E-02
 1.700000000E+00 -1.000000000E+00 2.817247166E-02
 1.750000000E+00 -1.000000000E+00 2.798131066E-02
 1.800000000E+00 -1.000000000E+00 2.762646408E-02
 1.850000000E+00 -1.000000000E+00 2.719212877E-02
 1.900000000E+00 -1.000000000E+00 2.666384242E-02
 1.950000000E+00 -1.000000000E+00 2.604958578E-02
 2.000000000E+00 -1.000000000E+00 2.541143683E-02
 2.050000000E+00 -1.000000000E+00 2.471788447E-02
 2.100000000E+00 -1.000000000E+00 2.413157138E-02
 2.150000000E+00 -1.000000000E+00 2.338513479E-02
 2.200000000E+00 -1.000000000E+00 2.273694204E-02
 2.250000000E+00 -1.000000000E+00 2.206438672E-02
 2.300000000E+00 -1.000000000E+00 2.149694707E-02
 2.350000000E+00 -1.000000000E+00 2.076133560E-02
 2.400000000E+00 -1.000000000E+00 2.027423182E-02
 2.450000000E+00 -1.000000000E+00 1.972742412E-02
 2.500000000E+00 -1.000000000E+00 1.914858311E-02
 2.550000000E+00 -1.000000000E+00 1.879284510E-02
 2.600000000E+00 -1.000000000E+00 1.832881210E-02
 2.650000000E+00 -1.000000000E+00 1.796636086E-02
 2.700000000E+00 -1.000000000E+00 1.761462415E-02
 2.750000000E+00 -1.000000000E+00 1.732566621E-02
 2.800000000E+00 -1.000000000E+00 1.706396788E-02
 2.850000000E+00 -1.000000000E+00 1.686231255E-02
 2.900000000E+00 -1.000000000E+00 1.669104445E-02
 2.950000000E+00 -1.000000000E+00 1.649796070E-02
 3.000000000E+00 -1.000000000E+00 1.638342194E-02
 3.050000000E+00 -1.000000000E+00 1.626618862E-02
 3.100000000E+00 -1.000000000E+00 1.615766977E-02
 3.150000000E+00 -1.000000000E+00 1.603148076E-02
 3.200000000E+00 -1.000000000E+00 1.586244740E-02
 3.250000000E+00 -1.000000000E+00 1.561584893E-02
 3.300000000E+00 -1.000000000E+00 1.520680924E-02
 3.350000000E+00 -1.000000000E+00 1.457213594E-02
 3.400000000E+00 -1.000000000E+00 1.316070658E-02
 3.450000000E+00 -1.000000000E+00 9.760253703E-03
 3.500000000E+00 -9.500000000E-01 3.041599270E-03
 3.500000000E+00 -9.000000000E-01 6.097551759E-03
 3.500000000E+00 -8.500000000E-01 8.590068562E-03
 3.500000000E+00 -8.000000000E-01 1.072684876E-02
 3.500000000E+00 -7.500000000E-01 1.238237835E-02
 3.500000000E+00 -7.000000000E-01 1.363185372E-02
 3.500000000E+00 -6.500000000E-01 1.504797915E-02
 3.500000000E+00 -6.000000000E-01 1.653306014E-02
 3.500000000E+00 -5.500000000E-01 1.816867495E-02
 3.500000000E+00 -5.000000000E-01 1.983961230E-02
 3.500000000E+00 -4.500000000E-01 2.149139307E-02
 3.500000000E+00 -4.000000000E-01 2.318166493E-02
 3.500000000E+00 -3.500000000E-01 2.481277466E-02
 3.500000000E+00 -3.000000000E-01 2.642883307E-02
 3.500000000E+00 -2.500000000E-01 2.763190312E-02
 3.500000000E+00 -2.000000000E-01 2.816289875E-02
 3.500000000E+00 -1.500000000E-01 2.805308086E-02
 3.500000000E+00 -1.000000000E-01 2.767256811E-02
 3.500000000E+00 -5.000000000E-02 2.736991753E-02
 3.500000000E+00 -2.752242878E-12 2.761096248E-02
 3.500000000E+00 5.000000000E-02 2.807930402E-02
 3.500000000E+00 1.000000000E-01 2.829083261E-02
 3.500000000E+00 1.500000000E-01 2.788797377E-02
 3.500000000E+00 2.000000000E-01 2.671900130E-02
 3.500000000E+00 2.500000000E-01 2.513090303E-02
 3.500000000E+00 3.000000000E-01 2.341634239E-02
 3.500000000E+00 3.500000000E-01 2.173674978E-02
 3.500000000E+00 4.000000000E-01 1.999667772E-02
 3.500000000E+00 4.500000000E-01 1.825934514E-02
 3.500000000E+00 5.000000000E-01 1.655100359E-02
 3.500000000E+00 5.500000000E-01 1.502480208E-02
 3.500000000E+00 6.000000000E-01 1.389333464E-02
 3.500000000E+00 6.500000000E-01 1.322247578E-02
 3.500000000E+00 7.000000000E-01 1.271264593E-02
 3.500000000E+00 7.500000000E-01 1.114573371E-02
 3.500000000E+00 8.000000000E-01 5.601388130E-03
 3.500000000E+00 8.500000000E-01 -3.410911417E-03
 3.500000000E+00 9.000000000E-01 -1.451703562E-02
 3.500000000E+00 9.500000000E-01 -2.756595431E-02
 3.450000000E+00 1.000000000E+00 -1.098157628E-02
 3.400000000E+00 1.000000000E+00 -2.054296855E-03
 3.350000000E+00 1.000000000E+00 8.884094268E-04
 3.300000000E+00 1.000000000E+00 1.385235782E-03
 3.250000000E+00 1.000000000E+00 1.317601026E-03
 3.200000000E+00 1.000000000E+00 9.934303048E-04
 3.150000000E+00 1.000000000E+00 3.267093506E-04
 3.100000000E+00 1.000000000E+00 -3.338715735E-04
 3.050000000E+00 1.000000000E+00 -1.087734809E-03
 3.000000000E+00 1.000000000E+00 -2.040571246E-03
 2.950000000E+00 1.000000000E+00 -3.023920503E-03
 2.900000000E+00 1.000000000E+00 -3.963647750E-03
 2.850000000E+00 1.000000000E+00 -4.859684162E-03
 2.800000000E+00 1.000000000E+00 -5.916521453E-03
 2.750000000E+00 1.000000000E+00 -6.864289677E-03
 2.700000000E+00 1.000000000E+00 -7.880323948E-03
 2.650000000E+00 1.000000000E+00 -9.202518704E-03
 2.600000000E+00 1.000000000E+00 -1.000186095E-02
 2.550000000E+00 1.000000000E+00 -1.139074857E-02
 2.500000000E+00 1.000000000E+00 -1.248563752E-02
 2.450000000E+00 1.000000000E+00 -1.397315740E-02
 2.400000000E+00 1.000000000E+00 -1.511255934E-02
 2.350000000E+00 1.000000000E+00 -1.650570413E-02
 2.300000000E+00 1.000000000E+00 -1.797656002E-02
 2.250000000E+00 1.000000000E+00 -1.967716423E-02
 2.200000000E+00 1.000000000E+00 -2.127989257E-02
 2.150000000E+00 1.000000000E+00 -2.292192636E-02
 2.100000000E+00 1.000000000E+00 -2.488855508E-02
 2.050000000E+00 1.000000000E+00 -2.698367498E-02
 2.000000000E+00 1.000000000E+00 -2.892527664E-02
 1.950000000E+00 1.000000000E+00 -3.156766128E-02
 1.900000000E+00 1.000000000E+00 -3.393147014E-02
 1.850000000E+00 1.000000000E+00 -3.683615469E-02
 1.800000000E+00 1.000000000E+00 -3.980126210E-02
 1.750000000E+00 1.000000000E+00 -4.318090100E-02
 1.700000000E+00 1.000000000E+00 -4.671478671E-02
 1.650000000E+00 1.000000000E+00 -5.070628866E-02
 1.600000000E+00 1.000000000E+00 -5.488850948E-02
 1.550000000E+00 1.000000000E+00 -5.968778673E-02
 1.500000000E+00 1.000000000E+00 -6.487947285E-02
 1.450000000E+00 1.000000000E+00 -7.060169726E-02
 1.400000000E+00 1.000000000E+00 -7.689824785E-02
 1.350000000E+00 1.000000000E+00 -8.337060820E-02
 1.300000000E+00 1.000000000E+00 -9.044254495E-02
 1.250000000E+00 1.000000000E+00 -9.778862666E-02
 1.200000000E+00 1.000000000E+00 -1.059621526E-01
 1.150000000E+00 1.000000000E+00 -1.132566842E-01
 1.100000000E+00 1.000000000E+00 -1.216495589E-01
 1.050000000E+00 1.000000000E+00 -1.287979433E-01
 1.000000000E+00 1.000000000E+00 -1.359786798E-01
 9.500000000E-01 1.000000000E+00 -1.417035959E-01
 9.000000000E-01 1.000000000E+00 -1.466715368E-01
 8.500000000E-01 1.000000000E+00 -1.485705782E-01
 8.000000000E-01 1.000000000E+00 -1.499821967E-01
 7.500000000E-01 1.000000000E+00 -1.485214737E-01
 7.000000000E-01 1.000000000E+00 -1.442595818E-01
 6.500000000E-01 1.000000000E+00 -1.387449096E-01
 6.000000000E-01 1.000000000E+00 -1.290123037E-01
 5.500000000E-01 1.000000000E+00 -1.192221775E-01
 5.000000000E-01 1.000000000E+00 -1.056583499E-01
 4.500000000E-01 1.000000000E+00 -9.268409481E-02
 4.000000000E-01 1.000000000E+00 -7.823427498E-02
 3.500000000E-01 1.000000000E+00 -6.226329639E-02
 3.000000000E-01 1.000000000E+00 -4.714649956E-02
 2.500000000E-01 1.000000000E+00 -3.207251478E-02
 2.000000000E-01 1.000000000E+00 -1.785852891E-02
 1.500000000E-01 1.000000000E+00 -4.208332907E-03
 1.000000000E-01 1.000000000E+00 7.986162248E-03
 5.000000000E-02 1.000000000E+00 1.866933925E-02
 1.733724275E-12 1.000000000E+00 2.765156719E-02
 -5.000000000E-02 1.000000000E+00 3.474764031E-02
 -1.000000000E-01 1.000000000E+00 4.001243006E-02
 -1.500000000E-01 1.000000000E+00 4.336117534E-02
 -2.000000000E-01 1.000000000E+00 4.495570173E-02
 -2.500000000E-01 1.000000000E+00 4.450649312E-02
 -3.000000000E-01 1.000000000E+00 4.231531309E-02
 -3.500000000E-01 1.000000000E+00 3.848954543E-02
 -4.000000000E-01 1.000000000E+00 3.205317672E-02
 -4.500000000E-01 1.000000000E+00 2.160455217E-02
 9.213226223E-01 -6.097802484E-03 4.070191912E-01
 8.036658601E-01 -2.035830551E-02 2.519825613E-01
 7.320709526E-01 -3.193209601E-02 1.283563949E-01
 6.673598328E-01 -4.317943240E-02 1.179539730E-02
 6.010123506E-01 -5.330891905E-02 -1.256410669E-01
 5.349230547E-01 -6.334942243E-02 -3.035428656E-01
 4.778741816E-01 -7.009722274E-02 -4.673307417E-01
 4.208725464E-01 -7.538684626E-02 -1.023656207E+00
 3.661338848E-01 -7.599284400E-02 -8.891256392E-01