TITLE     = "Visualization of the solution"
VARIABLES = "x"
"y"
"Pressure_Coefficient"
ZONE T="Zone"
 STRANDID=0, SOLUTIONTIME=0
 Nodes=11956, Elements=23330, ZONETYPE=FEQuadrilateral
 DATAPACKING=POINT
 DT=(DOUBLE DOUBLE DOUBLE )
 1.000243425E+00 5.189303192E-04 3.074587728E-01
 9.880694747E-01 2.664385131E-03 2.100912148E-01
 9.762101173E-01 4.774887580E-03 1.456288148E-01
 9.618577361E-01 7.351398002E-03 8.205160773E-02
 9.478487968E-01 9.812534787E-03 3.951652339E-02
 9.344214201E-01 1.218669862E-02 -1.096571426E-02
 9.229203463E-01 1.418018341E-02 -5.476122477E-02
 9.098521471E-01 1.633108594E-02 -7.886456610E-02
 8.977260590E-01 1.828972995E-02 -1.037449278E-01
 8.854429126E-01 2.026328444E-02 -1.455927788E-01
 8.729149699E-01 2.218340151E-02 -1.753863973E-01
 8.606277704E-01 2.396000363E-02 -1.855539984E-01
 8.479126692E-01 2.577370964E-02 -2.148154164E-01
 8.359245658E-01 2.736535110E-02 -2.108125867E-01
 8.241932988E-01 2.894453518E-02 -2.371516788E-01
 8.110499978E-01 3.061658144E-02 -2.420504059E-01
 7.978675365E-01 3.227550536E-02 -2.585471917E-01
 7.855780721E-01 3.377791867E-02 -2.696672564E-01
 7.729963064E-01 3.529426455E-02 -2.870326970E-01
 7.606571913E-01 3.673385456E-02 -2.965812552E-01
 7.475096583E-01 3.825578839E-02 -3.193039294E-01
 7.335214019E-01 3.981437162E-02 -3.349385929E-01
 7.225844860E-01 4.099535197E-02 -3.435512638E-01
 7.115093470E-01 4.218392447E-02 -3.650218042E-01
 6.999096870E-01 4.338842258E-02 -3.826259417E-01
 6.861667633E-01 4.475789890E-02 -3.951956476E-01
 6.729404926E-01 4.603011161E-02 -4.201854301E-01
 6.629250646E-01 4.697847739E-02 -4.363857703E-01
 6.513504982E-01 4.800370336E-02 -4.482281997E-01
 6.400454044E-01 4.898025841E-02 -4.664223944E-01
 6.281502843E-01 4.994435236E-02 -4.742648061E-01
 6.170547605E-01 5.081920698E-02 -4.982814693E-01
 6.062225103E-01 5.163372308E-02 -5.167020552E-01
 5.935275555E-01 5.250952393E-02 -5.283707025E-01
 5.818757415E-01 5.327513441E-02 -5.490521629E-01
 5.684323311E-01 5.407817289E-02 -5.633072890E-01
 5.559217334E-01 5.475167558E-02 -5.750726742E-01
 5.437180400E-01 5.535457283E-02 -5.934472005E-01
 5.326952338E-01 5.583335459E-02 -5.874866421E-01
 5.210134387E-01 5.627340078E-02 -5.922763795E-01
 5.082998872E-01 5.673104897E-02 -6.169740491E-01
 4.970961809E-01 5.702722445E-02 -6.006304680E-01
 4.841334224E-01 5.733891577E-02 -6.082970349E-01
 4.710256457E-01 5.756475404E-02 -6.037693961E-01
 4.568724036E-01 5.773672462E-02 -6.003517879E-01
 4.432691038E-01 5.780643225E-02 -5.917952208E-01
 4.304806888E-01 5.782035738E-02 -5.858055663E-01
 4.176353514E-01 5.774262175E-02 -5.696925144E-01
 4.055536985E-01 5.763611943E-02 -5.717367266E-01
 3.932413459E-01 5.744998530E-02 -5.560207011E-01
 3.810898066E-01 5.720763654E-02 -5.494787815E-01
 3.701678514E-01 5.695232376E-02 -5.436134692E-01
 3.572206497E-01 5.656284094E-02 -5.245466365E-01
 3.452948630E-01 5.615964532E-02 -5.159490663E-01
 3.329045475E-01 5.568085611E-02 -5.070553416E-01
 3.223451972E-01 5.522077158E-02 -4.930023858E-01
 3.101126552E-01 5.464115739E-02 -4.847503300E-01
 2.970662415E-01 5.395816267E-02 -4.726978639E-01
 2.832731605E-01 5.315335095E-02 -4.573472545E-01
 2.705431879E-01 5.235255137E-02 -4.487429438E-01
 2.586219907E-01 5.153583363E-02 -4.350913793E-01
 2.460940927E-01 5.061268806E-02 -4.199774820E-01
 2.332257926E-01 4.960202426E-02 -4.083992704E-01
 2.208489180E-01 4.856204614E-02 -3.970346969E-01
 2.091442198E-01 4.751497880E-02 -3.855654785E-01
 1.977120042E-01 4.642927647E-02 -3.715558789E-01
 1.850991100E-01 4.515722767E-02 -3.561933312E-01
 1.729319841E-01 4.385943711E-02 -3.449900868E-01
 1.613503098E-01 4.255650192E-02 -3.330584503E-01
 1.489520669E-01 4.105881229E-02 -3.138060023E-01
 1.381053030E-01 3.969486803E-02 -3.053769634E-01
 1.264172196E-01 3.812325373E-02 -2.870696493E-01
 1.146010458E-01 3.644534573E-02 -2.738973319E-01
 1.037939116E-01 3.480724618E-02 -2.584371860E-01
 9.379526228E-02 3.321021795E-02 -2.447742321E-01
 8.234360814E-02 3.124675527E-02 -2.228453697E-01
 7.023833692E-02 2.900775336E-02 -2.067892257E-01
 6.025381014E-02 2.700411156E-02 -1.829657969E-01
 5.041692033E-02 2.485099435E-02 -1.576995132E-01
 4.159310460E-02 2.272976190E-02 -1.339421144E-01
 3.417003900E-02 2.076928318E-02 -1.087497368E-01
 2.773514390E-02 1.889948361E-02 -7.810712720E-02
 2.232622914E-02 1.714562811E-02 -5.058396405E-02
 1.848598570E-02 1.578315347E-02 -1.649209053E-02
 1.492344961E-02 1.438675914E-02 1.932739487E-02
 1.232874580E-02 1.327571459E-02 5.793585802E-02
 9.995209053E-03 1.218022406E-02 9.182358561E-02
 8.282579482E-03 1.130305324E-02 1.312281404E-01
 6.754698232E-03 1.045162324E-02 1.678466245E-01
 5.324236583E-03 9.582783096E-03 2.401059966E-01
 3.411889309E-03 8.266937919E-03 3.358421439E-01
 1.754352008E-03 6.906980649E-03 4.459139730E-01
 3.302156983E-04 5.452717189E-03 6.560626007E-01
 -1.017428352E-03 3.511911025E-03 8.953234656E-01
 -1.656203647E-03 1.982343383E-03 1.057177118E+00
 -1.905713230E-03 7.540240767E-04 1.143283991E+00
 -1.911243657E-03 -6.909425138E-04 1.197136438E+00
 -1.555146184E-03 -2.307207324E-03 1.114463648E+00
 -7.064393722E-04 -4.148717970E-03 9.364059486E-01
 6.897941348E-04 -6.090797950E-03 7.640219008E-01
 2.698820550E-03 -8.129765280E-03 5.749205582E-01
 4.524860531E-03 -9.622149169E-03 4.289084788E-01
 6.661327090E-03 -1.111992728E-02 3.384009117E-01
 8.258028887E-03 -1.211640332E-02 2.543627797E-01
 1.026025228E-02 -1.325468626E-02 2.072426135E-01
 1.260845922E-02 -1.447569393E-02 1.462343871E-01
 1.584464312E-02 -1.599459350E-02 8.919759279E-02
 1.890271716E-02 -1.729416847E-02 3.119130771E-02
 2.279720642E-02 -1.880535297E-02 -9.738185674E-03
 2.813299187E-02 -2.067462914E-02 -5.077946461E-02
 3.386737406E-02 -2.248309553E-02 -9.552774151E-02
 4.114862904E-02 -2.454958484E-02 -1.275559280E-01
 4.877357185E-02 -2.649994381E-02 -1.559448821E-01
 5.774894729E-02 -2.859896794E-02 -1.790898833E-01
 6.660390645E-02 -3.048108704E-02 -2.029642188E-01
 7.689209282E-02 -3.250595555E-02 -2.237338538E-01
 8.686418086E-02 -3.431470320E-02 -2.406789682E-01
 9.734009206E-02 -3.608554229E-02 -2.557913252E-01
 1.081629246E-01 -3.779477254E-02 -2.707070184E-01
 1.197436824E-01 -3.951107711E-02 -2.875786996E-01
 1.312499791E-01 -4.110465571E-02 -3.024805265E-01
 1.421145201E-01 -4.252488166E-02 -3.180764676E-01
 1.531322002E-01 -4.388772696E-02 -3.351911131E-01
 1.651759595E-01 -4.528051987E-02 -3.466910683E-01
 1.769654751E-01 -4.657408595E-02 -3.665164584E-01
 1.889006793E-01 -4.779893160E-02 -3.829109693E-01
 1.995864511E-01 -4.883121327E-02 -4.013825650E-01
 2.108464092E-01 -4.985082895E-02 -4.190362671E-01
 2.231894135E-01 -5.088563263E-02 -4.360486014E-01
 2.358335257E-01 -5.185786262E-02 -4.535061700E-01
 2.482671142E-01 -5.273434892E-02 -4.731630575E-01
 2.610680163E-01 -5.355199799E-02 -4.965582878E-01
 2.723860741E-01 -5.419285968E-02 -5.185356508E-01
 2.852644026E-01 -5.483634025E-02 -5.406984731E-01
 2.978720367E-01 -5.535161868E-02 -5.578693342E-01
 3.105587959E-01 -5.578092486E-02 -5.786465543E-01
 3.222562373E-01 -5.607901514E-02 -6.011009806E-01
 3.346045315E-01 -5.628335848E-02 -6.094611285E-01
 3.452748060E-01 -5.637635663E-02 -6.208142771E-01
 3.566271663E-01 -5.639734492E-02 -6.389927074E-01
 3.675258458E-01 -5.630911514E-02 -6.465766877E-01
 3.781280816E-01 -5.612584203E-02 -6.298685221E-01
 3.894734979E-01 -5.585809052E-02 -6.306732395E-01
 4.018985629E-01 -5.541495979E-02 -6.108980679E-01
 4.140333533E-01 -5.486481264E-02 -5.802451499E-01
 4.271957576E-01 -5.414597318E-02 -5.577303828E-01
 4.396083951E-01 -5.331095681E-02 -5.166763453E-01
 4.518569410E-01 -5.238864198E-02 -4.792680125E-01
 4.639224112E-01 -5.137214810E-02 -4.465160543E-01
 4.764313102E-01 -5.020821467E-02 -4.059231573E-01
 4.881085753E-01 -4.904223233E-02 -3.749375065E-01
 5.003522038E-01 -4.772134498E-02 -3.362034589E-01
 5.137327909E-01 -4.617256671E-02 -2.883069978E-01
 5.272710919E-01 -4.452766478E-02 -2.440648774E-01
 5.408012867E-01 -4.284248501E-02 -2.120232186E-01
 5.540911555E-01 -4.111461341E-02 -1.732048086E-01
 5.670868754E-01 -3.940213472E-02 -1.453469195E-01
 5.802653432E-01 -3.761427850E-02 -1.120027588E-01
 5.922279954E-01 -3.596256673E-02 -8.079511257E-02
 6.045069695E-01 -3.427237272E-02 -5.849994713E-02
 6.180038452E-01 -3.239454329E-02 -3.128644422E-02
 6.322968006E-01 -3.038502857E-02 -9.707252247E-05
 6.464902759E-01 -2.842161432E-02 1.785945886E-02
 6.596309543E-01 -2.656065114E-02 4.905294337E-02
 6.731941700E-01 -2.467606589E-02 7.015479313E-02
 6.857699752E-01 -2.294258960E-02 9.025567552E-02
 6.983086467E-01 -2.123110369E-02 1.097778070E-01
 7.129223347E-01 -1.926971227E-02 1.277663772E-01
 7.257106304E-01 -1.754224673E-02 1.544305996E-01
 7.376444340E-01 -1.599663682E-02 1.668311662E-01
 7.502853274E-01 -1.438369229E-02 1.825624077E-01
 7.628307939E-01 -1.279930957E-02 2.021969972E-01
 7.759116292E-01 -1.120457891E-02 2.163199511E-01
 7.874100804E-01 -9.802597575E-03 2.407053889E-01
 8.003541231E-01 -8.333417587E-03 2.490849380E-01
 8.112960458E-01 -7.100653835E-03 2.701792862E-01
 8.228121400E-01 -5.872202106E-03 2.851910302E-01
 8.355516195E-01 -4.613676108E-03 2.946107379E-01
 8.476223350E-01 -3.452193225E-03 3.163788911E-01
 8.598172665E-01 -2.399071120E-03 3.282318679E-01
 8.720609546E-01 -1.457533101E-03 3.374284404E-01
 8.839623928E-01 -6.199983181E-04 3.532728576E-01
 8.975054026E-01 1.585399295E-04 3.594172837E-01
 9.079830050E-01 6.431858637E-04 3.653729583E-01
 9.185651541E-01 1.027854974E-03 3.673665114E-01
 9.281447530E-01 1.288633444E-03 3.688184393E-01
 9.374320507E-01 1.455408288E-03 3.708158215E-01
 9.497507215E-01 1.556789386E-03 3.685596820E-01
 9.631212354E-01 1.513341093E-03 3.671124114E-01
 9.770401716E-01 1.296915347E-03 3.678225854E-01
 9.896029234E-01 9.600495687E-04 3.827159321E-01
 -5.000000000E-01 -1.000000000E+00 1.327823438E-02
 3.500000000E+00 -1.000000000E+00 5.978354439E-03
 3.500000000E+00 1.000000000E+00 -2.099898850E-02
 -5.000000000E-01 1.000000000E+00 1.199211059E-02
 9.941564500E-01 1.591657725E-03 2.831740848E-01
 9.821397960E-01 3.719636356E-03 1.769049097E-01
 9.690339267E-01 6.063142791E-03 1.104519292E-01
 9.548532665E-01 8.581966395E-03 6.169658071E-02
 9.411351085E-01 1.099961670E-02 1.338081081E-02
 9.286708832E-01 1.318344101E-02 -3.693008014E-02
 9.163862467E-01 1.525563467E-02 -6.616869400E-02
 9.037891030E-01 1.731040794E-02 -8.919374980E-02
 8.915844858E-01 1.927650720E-02 -1.262543099E-01
 8.791789412E-01 2.122334298E-02 -1.640840159E-01
 8.667713702E-01 2.307170257E-02 -1.767934753E-01
 8.542702198E-01 2.486685663E-02 -2.055894095E-01
 8.419186175E-01 2.656953037E-02 -2.070584160E-01
 8.300589323E-01 2.815494314E-02 -2.284610644E-01
 8.176216483E-01 2.978055831E-02 -2.375301162E-01
 8.044587672E-01 3.144604340E-02 -2.511064257E-01
 7.917228043E-01 3.302671202E-02 -2.629590219E-01
 7.792871892E-01 3.453609161E-02 -2.799198633E-01
 7.668267488E-01 3.601405956E-02 -2.896497609E-01
 7.540834248E-01 3.749482147E-02 -3.093531940E-01
 7.405155301E-01 3.903508000E-02 -3.278494701E-01
 7.280529439E-01 4.040486179E-02 -3.372116911E-01
 7.170469165E-01 4.158963822E-02 -3.547487308E-01
 7.057095170E-01 4.278617352E-02 -3.751329858E-01
 6.930382252E-01 4.407316074E-02 -3.895898551E-01
 6.795536280E-01 4.539400525E-02 -4.020738147E-01
 6.571377814E-01 4.749109037E-02 -4.407163813E-01
 6.456979513E-01 4.849198088E-02 -4.601981375E-01
 6.340978444E-01 4.946230538E-02 -4.681550151E-01
 6.226025224E-01 5.038177967E-02 -4.850368398E-01
 6.116386354E-01 5.122646503E-02 -5.116235692E-01
 5.998750329E-01 5.207162350E-02 -5.193866198E-01
 5.877016485E-01 5.289232917E-02 -5.408290727E-01
 5.751540363E-01 5.367665365E-02 -5.568746683E-01
 5.621770322E-01 5.441492423E-02 -5.671622498E-01
 5.498198867E-01 5.505312420E-02 -5.857404667E-01
 5.382066369E-01 5.559396371E-02 -5.941062069E-01
 5.268543363E-01 5.605337769E-02 -5.811093370E-01
 5.146566629E-01 5.650222488E-02 -6.139803550E-01
 5.026980340E-01 5.687913671E-02 -6.040960921E-01
 4.906148016E-01 5.718307011E-02 -6.069475670E-01
 4.775795341E-01 5.745183490E-02 -6.050893437E-01
 4.639490247E-01 5.765073933E-02 -6.045474560E-01
 4.500707537E-01 5.777157843E-02 -5.927310587E-01
 4.368748963E-01 5.781339481E-02 -5.932109085E-01
 4.240580201E-01 5.778148957E-02 -5.727627131E-01
 4.115945250E-01 5.768937059E-02 -5.733979976E-01
 3.993975222E-01 5.754305236E-02 -5.643617918E-01
 3.871655762E-01 5.732881092E-02 -5.492409094E-01
 3.756288290E-01 5.707998015E-02 -5.514896227E-01
 3.636942506E-01 5.675758235E-02 -5.316223418E-01
 3.512577564E-01 5.636124313E-02 -5.205502445E-01
 3.390997052E-01 5.592025071E-02 -5.113986121E-01
 3.276248723E-01 5.545081384E-02 -4.998772853E-01
 3.162289262E-01 5.493096448E-02 -4.890303532E-01
 3.035894483E-01 5.429966003E-02 -4.804499657E-01
 2.901697010E-01 5.355575681E-02 -4.635134024E-01
 2.769081742E-01 5.275295116E-02 -4.531112976E-01
 2.645825893E-01 5.194419250E-02 -4.424074756E-01
 2.523580417E-01 5.107426085E-02 -4.272758532E-01
 2.396599427E-01 5.010735616E-02 -4.142378346E-01
 2.270373553E-01 4.908203520E-02 -4.024110882E-01
 2.149965689E-01 4.803851247E-02 -3.912293420E-01
 2.034281120E-01 4.697212763E-02 -3.796781029E-01
 1.914055571E-01 4.579325207E-02 -3.635437473E-01
 1.790155470E-01 4.450833239E-02 -3.494568608E-01
 1.671411470E-01 4.320796952E-02 -3.419120290E-01
 1.551511884E-01 4.180765711E-02 -3.202068301E-01
 1.435286850E-01 4.037684016E-02 -3.120790243E-01
 1.322612613E-01 3.890906088E-02 -2.961761576E-01
 1.205091327E-01 3.728429973E-02 -2.808149991E-01
 1.091974787E-01 3.562629595E-02 -2.645028730E-01
 9.879458696E-02 3.400873207E-02 -2.547348280E-01
 8.806943521E-02 3.222848661E-02 -2.360360495E-01
 7.629097253E-02 3.012725431E-02 -2.119044392E-01
 6.524607353E-02 2.800593246E-02 -2.018548263E-01
 7.174799964E-02 -3.149352130E-02 -2.149197876E-01
 8.187813684E-02 -3.341032937E-02 -2.344653602E-01
 9.210213646E-02 -3.520012274E-02 -2.476903524E-01
 1.027515084E-01 -3.694015741E-02 -2.639009609E-01
 1.139533035E-01 -3.865292482E-02 -2.782841896E-01
 1.254968308E-01 -4.030786641E-02 -2.962128322E-01
 1.366822496E-01 -4.181476869E-02 -3.104419341E-01
 1.476233602E-01 -4.320630431E-02 -3.261038227E-01
 1.591540799E-01 -4.458412342E-02 -3.412546515E-01
 1.710707173E-01 -4.592730291E-02 -3.558239437E-01
 1.829330772E-01 -4.718650877E-02 -3.753129928E-01
 1.942435652E-01 -4.831507243E-02 -3.924854838E-01
 2.052164301E-01 -4.934102111E-02 -4.093057262E-01
 2.170179114E-01 -5.036823079E-02 -4.271982749E-01
 2.295114696E-01 -5.137174763E-02 -4.450581167E-01
 2.420503199E-01 -5.229610577E-02 -4.628265651E-01
 2.546675652E-01 -5.314317346E-02 -4.840478155E-01
 2.667270452E-01 -5.387242883E-02 -5.091625021E-01
 2.788252383E-01 -5.451459996E-02 -5.273931826E-01
 2.915682197E-01 -5.509397946E-02 -5.516543600E-01
 3.042154163E-01 -5.556627177E-02 -5.661943544E-01
 3.164075166E-01 -5.592997000E-02 -5.916867797E-01
 3.284303844E-01 -5.618118681E-02 -6.060665251E-01
 3.399396688E-01 -5.632985756E-02 -6.158342459E-01
 3.509509861E-01 -5.638685077E-02 -6.273150839E-01
 3.620765060E-01 -5.635323003E-02 -6.471055276E-01
 3.728269637E-01 -5.621747859E-02 -6.402044087E-01
 3.838007897E-01 -5.599196628E-02 -6.255429310E-01
 3.956860304E-01 -5.563652515E-02 -6.257302912E-01
 4.079659581E-01 -5.513988622E-02 -5.951199376E-01
 4.206145555E-01 -5.450539291E-02 -5.669202485E-01
 4.334020764E-01 -5.372846499E-02 -5.425677653E-01
 4.457326680E-01 -5.284979939E-02 -4.949278149E-01
 4.578896761E-01 -5.188039504E-02 -4.641041872E-01
 4.701768607E-01 -5.079018138E-02 -4.266592882E-01
 4.822699428E-01 -4.962522350E-02 -3.896126726E-01
 4.942303896E-01 -4.838178866E-02 -3.569091988E-01
 5.070424974E-01 -4.694695584E-02 -3.130297729E-01
 5.205019414E-01 -4.535011575E-02 -2.659461300E-01
 5.340361893E-01 -4.368507490E-02 -2.265840004E-01
 5.474462211E-01 -4.197854921E-02 -1.941534585E-01
 5.605890155E-01 -4.025837407E-02 -1.576485724E-01
 5.736761093E-01 -3.850820661E-02 -1.297970891E-01
 5.862466693E-01 -3.678842261E-02 -9.654226306E-02
 5.983674824E-01 -3.511746973E-02 -6.833191710E-02
 6.112554073E-01 -3.333345801E-02 -4.545829039E-02
 6.251503229E-01 -3.138978593E-02 -1.627211976E-02
 6.393935382E-01 -2.940332144E-02 1.086006512E-02
 6.530606151E-01 -2.749113273E-02 3.127023618E-02
 6.664125621E-01 -2.561835852E-02 6.079925527E-02
 6.794820726E-01 -2.380932774E-02 7.997471053E-02
 6.920393109E-01 -2.208684664E-02 1.000335004E-01
 7.056154907E-01 -2.025040798E-02 1.188542234E-01
 7.193164825E-01 -1.840597950E-02 1.397988030E-01
 7.316775322E-01 -1.676944178E-02 1.626431843E-01
 7.439648807E-01 -1.519016456E-02 1.741905603E-01
 7.565580606E-01 -1.359150093E-02 1.917838122E-01
 7.693712115E-01 -1.200194424E-02 2.099057943E-01
 7.816608548E-01 -1.050358824E-02 2.270500188E-01
 7.938821018E-01 -9.068007581E-03 2.465202639E-01
 8.058250844E-01 -7.717035711E-03 2.585388469E-01
 8.170540929E-01 -6.486427970E-03 2.775750873E-01
 8.291818798E-01 -5.242939107E-03 2.902937601E-01
 8.415869772E-01 -4.032934667E-03 3.036663446E-01
 8.537198007E-01 -2.925632172E-03 3.232455141E-01
 8.659391105E-01 -1.928302110E-03 3.333839328E-01
 8.780116737E-01 -1.038765709E-03 3.441691163E-01
 8.907338977E-01 -2.307291943E-04 3.567470779E-01
 9.027442038E-01 4.008628966E-04 3.647448292E-01
 9.132740796E-01 8.355204191E-04 3.667789384E-01
 9.435913861E-01 1.506098837E-03 3.684230752E-01
 9.564359784E-01 1.535065239E-03 3.673346541E-01
 9.700807035E-01 1.405128220E-03 3.662949939E-01
 9.833215475E-01 1.128482458E-03 3.710791163E-01
 9.949231744E-01 7.394899440E-04 4.133355275E-01
 -5.000000000E-01 9.500000000E-01 1.963677875E-02
 -5.000000000E-01 9.000000000E-01 3.004420238E-02
 -5.000000000E-01 8.500000000E-01 3.789971016E-02
 -5.000000000E-01 8.000000000E-01 4.469238275E-02
 -5.000000000E-01 7.500000000E-01 5.133337808E-02
 -5.000000000E-01 7.000000000E-01 5.794966617E-02
 -5.000000000E-01 6.500000000E-01 6.472718217E-02
 -5.000000000E-01 6.000000000E-01 7.164145582E-02
 -5.000000000E-01 5.500000000E-01 7.879548399E-02
 -5.000000000E-01 5.000000000E-01 8.618187236E-02
 -5.000000000E-01 4.500000000E-01 9.363477096E-02
 -5.000000000E-01 4.000000000E-01 1.011963063E-01
 -5.000000000E-01 3.500000000E-01 1.087743559E-01
 -5.000000000E-01 3.000000000E-01 1.158364963E-01
 -5.000000000E-01 2.500000000E-01 1.227872112E-01
 -5.000000000E-01 2.000000000E-01 1.287859104E-01
 -5.000000000E-01 1.500000000E-01 1.338646147E-01
 -5.000000000E-01 1.000000000E-01 1.377901233E-01
 -5.000000000E-01 5.000000000E-02 1.403958295E-01
 -5.000000000E-01 2.752242878E-12 1.414746975E-01
 -5.000000000E-01 -5.000000000E-02 1.410599088E-01
 -5.000000000E-01 -1.000000000E-01 1.392147611E-01
 -5.000000000E-01 -1.500000000E-01 1.358296811E-01
 -5.000000000E-01 -2.000000000E-01 1.314155766E-01
 -5.000000000E-01 -2.500000000E-01 1.257416989E-01
 -5.000000000E-01 -3.000000000E-01 1.195877412E-01
 -5.000000000E-01 -3.500000000E-01 1.127392556E-01
 -5.000000000E-01 -4.000000000E-01 1.055546626E-01
 -5.000000000E-01 -4.500000000E-01 9.829376253E-02
 -5.000000000E-01 -5.000000000E-01 9.091739356E-02
 -5.000000000E-01 -5.500000000E-01 8.366352814E-02
 -5.000000000E-01 -6.000000000E-01 7.653423568E-02
 -5.000000000E-01 -6.500000000E-01 6.954250989E-02
 -5.000000000E-01 -7.000000000E-01 6.267620801E-02
 -5.000000000E-01 -7.500000000E-01 5.579811122E-02
 -5.000000000E-01 -8.000000000E-01 4.885143397E-02
 -5.000000000E-01 -8.500000000E-01 4.134095479E-02
 -5.000000000E-01 -9.000000000E-01 3.298720451E-02
 -5.000000000E-01 -9.500000000E-01 2.176793236E-02
 -4.500000000E-01 -1.000000000E+00 1.794627857E-02
 -4.000000000E-01 -1.000000000E+00 2.677242191E-02
 -3.500000000E-01 -1.000000000E+00 3.234184141E-02
 -3.000000000E-01 -1.000000000E+00 3.588021978E-02
 -2.500000000E-01 -1.000000000E+00 3.803079401E-02
 -2.000000000E-01 -1.000000000E+00 3.885068407E-02
 -1.500000000E-01 -1.000000000E+00 3.823116060E-02
 -1.000000000E-01 -1.000000000E+00 3.631533453E-02
 -5.000000000E-02 -1.000000000E+00 3.302193216E-02
 -9.424683256E-13 -1.000000000E+00 2.849960604E-02
 5.000000000E-02 -1.000000000E+00 2.280327105E-02
 1.000000000E-01 -1.000000000E+00 1.605984440E-02
 1.500000000E-01 -1.000000000E+00 8.622709725E-03
 2.000000000E-01 -1.000000000E+00 6.843043973E-04
 2.500000000E-01 -1.000000000E+00 -7.180578465E-03
 3.000000000E-01 -1.000000000E+00 -1.461497421E-02
 3.500000000E-01 -1.000000000E+00 -2.135470843E-02
 4.000000000E-01 -1.000000000E+00 -2.687991739E-02
 4.500000000E-01 -1.000000000E+00 -3.099062489E-02
 5.000000000E-01 -1.000000000E+00 -3.366462120E-02
 5.500000000E-01 -1.000000000E+00 -3.452772032E-02
 6.000000000E-01 -1.000000000E+00 -3.368837998E-02
 6.500000000E-01 -1.000000000E+00 -3.130269195E-02
 7.000000000E-01 -1.000000000E+00 -2.753005428E-02
 7.500000000E-01 -1.000000000E+00 -2.274646215E-02
 8.000000000E-01 -1.000000000E+00 -1.712326877E-02
 8.500000000E-01 -1.000000000E+00 -1.099729598E-02
 9.000000000E-01 -1.000000000E+00 -4.748842850E-03
 9.500000000E-01 -1.000000000E+00 1.356282454E-03
 1.000000000E+00 -1.000000000E+00 7.126479431E-03
 1.050000000E+00 -1.000000000E+00 1.241474052E-02
 1.100000000E+00 -1.000000000E+00 1.710595016E-02
 1.150000000E+00 -1.000000000E+00 2.122221992E-02
 1.200000000E+00 -1.000000000E+00 2.453244424E-02
 1.250000000E+00 -1.000000000E+00 2.735330270E-02
 1.300000000E+00 -1.000000000E+00 2.958848431E-02
 1.350000000E+00 -1.000000000E+00 3.118815287E-02
 1.400000000E+00 -1.000000000E+00 3.228554287E-02
 1.450000000E+00 -1.000000000E+00 3.301978107E-02
 1.500000000E+00 -1.000000000E+00 3.338402757E-02
 1.550000000E+00 -1.000000000E+00 3.342631078E-02
 1.600000000E+00 -1.000000000E+00 3.324053281E-02
 1.650000000E+00 -1.000000000E+00 3.284165007E-02
 1.700000000E+00 -1.000000000E+00 3.229028129E-02
 1.750000000E+00 -1.000000000E+00 3.159206676E-02
 1.800000000E+00 -1.000000000E+00 3.087569675E-02
 1.850000000E+00 -1.000000000E+00 2.998768975E-02
 1.900000000E+00 -1.000000000E+00 2.915713991E-02
 1.950000000E+00 -1.000000000E+00 2.824325537E-02
 2.000000000E+00 -1.000000000E+00 2.730502417E-02
 2.050000000E+00 -1.000000000E+00 2.641645795E-02
 2.100000000E+00 -1.000000000E+00 2.551534770E-02
 2.150000000E+00 -1.000000000E+00 2.465358978E-02
 2.200000000E+00 -1.000000000E+00 2.377261147E-02
 2.250000000E+00 -1.000000000E+00 2.297107134E-02
 2.300000000E+00 -1.000000000E+00 2.214630225E-02
 2.350000000E+00 -1.000000000E+00 2.139563509E-02
 2.400000000E+00 -1.000000000E+00 2.068378027E-02
 2.450000000E+00 -1.000000000E+00 2.000505070E-02
 2.500000000E+00 -1.000000000E+00 1.935708598E-02
 2.550000000E+00 -1.000000000E+00 1.884013229E-02
 2.600000000E+00 -1.000000000E+00 1.816528799E-02
 2.650000000E+00 -1.000000000E+00 1.777917711E-02
 2.700000000E+00 -1.000000000E+00 1.723722200E-02
 2.750000000E+00 -1.000000000E+00 1.680761318E-02
 2.800000000E+00 -1.000000000E+00 1.641783205E-02
 2.850000000E+00 -1.000000000E+00 1.609025811E-02
 2.900000000E+00 -1.000000000E+00 1.574905139E-02
 2.950000000E+00 -1.000000000E+00 1.548451474E-02
 3.000000000E+00 -1.000000000E+00 1.521726096E-02
 3.050000000E+00 -1.000000000E+00 1.495915424E-02
 3.100000000E+00 -1.000000000E+00 1.472887576E-02
 3.150000000E+00 -1.000000000E+00 1.446471549E-02
 3.200000000E+00 -1.000000000E+00 1.419028994E-02
 3.250000000E+00 -1.000000000E+00 1.386374571E-02
 3.300000000E+00 -1.000000000E+00 1.340668484E-02
 3.350000000E+00 -1.000000000E+00 1.279498080E-02
 3.400000000E+00 -1.000000000E+00 1.162108869E-02
 3.450000000E+00 -1.000000000E+00 9.238555325E-03
 3.500000000E+00 -9.500000000E-01 4.422820399E-03
 3.500000000E+00 -9.000000000E-01 5.814010375E-03
 3.500000000E+00 -8.500000000E-01 7.075192631E-03
 3.500000000E+00 -8.000000000E-01 8.375528536E-03
 3.500000000E+00 -7.500000000E-01 9.607790705E-03
 3.500000000E+00 -7.000000000E-01 1.069340340E-02
 3.500000000E+00 -6.500000000E-01 1.181042394E-02
 3.500000000E+00 -6.000000000E-01 1.301050698E-02
 3.500000000E+00 -5.500000000E-01 1.420531545E-02
 3.500000000E+00 -5.000000000E-01 1.544283013E-02
 3.500000000E+00 -4.500000000E-01 1.666951493E-02
 3.500000000E+00 -4.000000000E-01 1.790941375E-02
 3.500000000E+00 -3.500000000E-01 1.921118580E-02
 3.500000000E+00 -3.000000000E-01 2.038248236E-02
 3.500000000E+00 -2.500000000E-01 2.135414119E-02
 3.500000000E+00 -2.000000000E-01 2.174526952E-02
 3.500000000E+00 -1.500000000E-01 2.177404328E-02
 3.500000000E+00 -1.000000000E-01 2.151496700E-02
 3.500000000E+00 -5.000000000E-02 2.128416274E-02
 3.500000000E+00 -2.752242878E-12 2.133923565E-02
 3.500000000E+00 5.000000000E-02 2.157184555E-02
 3.500000000E+00 1.000000000E-01 2.164637372E-02
 3.500000000E+00 1.500000000E-01 2.118969986E-02
 3.500000000E+00 2.000000000E-01 2.031319539E-02
 3.500000000E+00 2.500000000E-01 1.917043113E-02
 3.500000000E+00 3.000000000E-01 1.784027802E-02
 3.500000000E+00 3.500000000E-01 1.654030185E-02
 3.500000000E+00 4.000000000E-01 1.520362081E-02
 3.500000000E+00 4.500000000E-01 1.391985072E-02
 3.500000000E+00 5.000000000E-01 1.261016169E-02
 3.500000000E+00 5.500000000E-01 1.139823266E-02
 3.500000000E+00 6.000000000E-01 1.056489335E-02
 3.500000000E+00 6.500000000E-01 1.016891035E-02
 3.500000000E+00 7.000000000E-01 9.914908625E-03
 3.500000000E+00 7.500000000E-01 8.467690567E-03
 3.500000000E+00 8.000000000E-01 4.347859986E-03
 3.500000000E+00 8.500000000E-01 -3.557497268E-03
 3.500000000E+00 9.000000000E-01 -1.345409011E-02
 3.500000000E+00 9.500000000E-01 -2.396173737E-02
 3.450000000E+00 1.000000000E+00 -9.927807253E-03
 3.400000000E+00 1.000000000E+00 -2.919456508E-03
 3.350000000E+00 1.000000000E+00 -7.579244152E-04
 3.300000000E+00 1.000000000E+00 -2.329995955E-04
 3.250000000E+00 1.000000000E+00 -9.444086666E-04
 3.200000000E+00 1.000000000E+00 -1.073342496E-03
 3.150000000E+00 1.000000000E+00 -1.711762457E-03
 3.100000000E+00 1.000000000E+00 -2.583525911E-03
 3.050000000E+00 1.000000000E+00 -3.304892930E-03
 3.000000000E+00 1.000000000E+00 -4.094710772E-03
 2.950000000E+00 1.000000000E+00 -5.043444923E-03
 2.900000000E+00 1.000000000E+00 -5.735069515E-03
 2.850000000E+00 1.000000000E+00 -6.749650482E-03
 2.800000000E+00 1.000000000E+00 -7.858177945E-03
 2.750000000E+00 1.000000000E+00 -8.615427178E-03
 2.700000000E+00 1.000000000E+00 -9.697361019E-03
 2.650000000E+00 1.000000000E+00 -1.101053739E-02
 2.600000000E+00 1.000000000E+00 -1.175856850E-02
 2.550000000E+00 1.000000000E+00 -1.300916117E-02
 2.500000000E+00 1.000000000E+00 -1.432030386E-02
 2.450000000E+00 1.000000000E+00 -1.533619659E-02
 2.400000000E+00 1.000000000E+00 -1.677755734E-02
 2.350000000E+00 1.000000000E+00 -1.811332707E-02
 2.300000000E+00 1.000000000E+00 -1.963548811E-02
 2.250000000E+00 1.000000000E+00 -2.115741978E-02
 2.200000000E+00 1.000000000E+00 -2.281288080E-02
 2.150000000E+00 1.000000000E+00 -2.455272060E-02
 2.100000000E+00 1.000000000E+00 -2.630615177E-02
 2.050000000E+00 1.000000000E+00 -2.835401423E-02
 2.000000000E+00 1.000000000E+00 -3.039717482E-02
 1.950000000E+00 1.000000000E+00 -3.260425501E-02
 1.900000000E+00 1.000000000E+00 -3.535861649E-02
 1.850000000E+00 1.000000000E+00 -3.766108146E-02
 1.800000000E+00 1.000000000E+00 -4.081228353E-02
 1.750000000E+00 1.000000000E+00 -4.376462068E-02
 1.700000000E+00 1.000000000E+00 -4.705643559E-02
 1.650000000E+00 1.000000000E+00 -5.082058369E-02
 1.600000000E+00 1.000000000E+00 -5.468912061E-02
 1.550000000E+00 1.000000000E+00 -5.897494323E-02
 1.500000000E+00 1.000000000E+00 -6.351522955E-02
 1.450000000E+00 1.000000000E+00 -6.876635961E-02
 1.400000000E+00 1.000000000E+00 -7.428285224E-02
 1.350000000E+00 1.000000000E+00 -7.998850384E-02
 1.300000000E+00 1.000000000E+00 -8.587202678E-02
 1.250000000E+00 1.000000000E+00 -9.303109116E-02
 1.200000000E+00 1.000000000E+00 -9.897870345E-02
 1.150000000E+00 1.000000000E+00 -1.051929179E-01
 1.100000000E+00 1.000000000E+00 -1.121775768E-01
 1.050000000E+00 1.000000000E+00 -1.180707621E-01
 1.000000000E+00 1.000000000E+00 -1.226626325E-01
 9.500000000E-01 1.000000000E+00 -1.281750045E-01
 9.000000000E-01 1.000000000E+00 -1.300312406E-01
 8.500000000E-01 1.000000000E+00 -1.327050846E-01
 8.000000000E-01 1.000000000E+00 -1.326839869E-01
 7.500000000E-01 1.000000000E+00 -1.309192655E-01
 7.000000000E-01 1.000000000E+00 -1.277981824E-01
 6.500000000E-01 1.000000000E+00 -1.217732147E-01
 6.000000000E-01 1.000000000E+00 -1.145033439E-01
 5.500000000E-01 1.000000000E+00 -1.054751451E-01
 5.000000000E-01 1.000000000E+00 -9.472099546E-02
 4.500000000E-01 1.000000000E+00 -8.367188938E-02
 4.000000000E-01 1.000000000E+00 -7.102285257E-02
 3.500000000E-01 1.000000000E+00 -5.834136913E-02
 3.000000000E-01 1.000000000E+00 -4.535823307E-02
 2.500000000E-01 1.000000000E+00 -3.264173929E-02
 2.000000000E-01 1.000000000E+00 -2.044887642E-02
 1.500000000E-01 1.000000000E+00 -9.015808392E-03
 1.000000000E-01 1.000000000E+00 1.253409792E-03
 5.000000000E-02 1.000000000E+00 1.031029482E-02
 1.733724275E-12 1.000000000E+00 1.802876312E-02
 -5.000000000E-02 1.000000000E+00 2.412983559E-02
 -1.000000000E-01 1.000000000E+00 2.878246740E-02
 -1.500000000E-01 1.000000000E+00 3.179390120E-02
 -2.000000000E-01 1.000000000E+00 3.332903776E-02
 -2.500000000E-01 1.000000000E+00 3.333412582E-02
 -3.000000000E-01 1.000000000E+00 3.192902669E-02
 -3.500000000E-01 1.000000000E+00 2.902347208E-02
 -4.000000000E-01 1.000000000E+00 2.407253843E-02
 -4.500000000E-01 1.000000000E+00 1.622839966E-02
 8.876649525E-01 -5.936363222E-03 3.461642586E-01
 8.036234061E-01 -1.276321815E-02 2.524347017E-01
 7.353265492E-01 -2.207821261E-02 1.616408971E-01
 6.639974028E-01 -3.258064442E-02 5.329424602E-02
 9.859426949E-01 -4.460976780E-03 3.675767756E-01
 5.959039558E-01 -4.125343711E-02 -7.501641535E-02
 5.313801176E-01 -4.990768666E-02 -2.314484697E-01
 4.674735831E-01 -5.635373647E-02 -4.278957200E-01
 4.114109034E-01 -6.026974501E-02 -5.761233128E-01
 3.541372162E-01 -6.130120850E-02 -6.231866837E-01
 3.011521479E-01 -6.200554252E-02 -5.520853729E-01