TITLE     = "Visualization of the solution"
VARIABLES = "x"
"y"
"Pressure_Coefficient"
ZONE T="Zone"
 STRANDID=0, SOLUTIONTIME=0
 Nodes=11709, Elements=22843, ZONETYPE=FEQuadrilateral
 DATAPACKING=POINT
 DT=(DOUBLE DOUBLE DOUBLE )
 9.998747110E-01 5.340123316E-04 3.417869640E-01
 9.852080941E-01 3.223162144E-03 3.009601810E-01
 9.731557965E-01 5.405198317E-03 2.171091482E-01
 9.603357315E-01 7.730509154E-03 1.537332878E-01
 9.482863545E-01 9.925103746E-03 8.531507342E-02
 9.371557236E-01 1.178976335E-02 6.075596877E-02
 9.273039699E-01 1.354671083E-02 2.028620718E-02
 9.153075814E-01 1.554879639E-02 -2.002415485E-02
 9.040217400E-01 1.736217365E-02 -4.633198882E-02
 8.916831017E-01 1.929549314E-02 -7.996276310E-02
 8.794250488E-01 2.113272250E-02 -1.066595975E-01
 8.677792549E-01 2.281987667E-02 -1.358012641E-01
 8.549495935E-01 2.452628687E-02 -1.298958800E-01
 8.430483341E-01 2.612973005E-02 -1.551022671E-01
 8.310355544E-01 2.767314762E-02 -1.638674634E-01
 8.180384040E-01 2.931811102E-02 -1.814908782E-01
 8.048797846E-01 3.093071282E-02 -1.952001939E-01
 7.932520509E-01 3.231302276E-02 -2.018507364E-01
 7.805702686E-01 3.381195292E-02 -2.182853300E-01
 7.682074904E-01 3.523429483E-02 -2.292265999E-01
 7.554859519E-01 3.670557588E-02 -2.583420693E-01
 7.413831949E-01 3.824211285E-02 -2.655979406E-01
 7.302295566E-01 3.943991661E-02 -2.775850942E-01
 7.185450792E-01 4.069449753E-02 -3.049107762E-01
 7.063370943E-01 4.193622246E-02 -3.143468758E-01
 6.923415065E-01 4.332840070E-02 -3.335532769E-01
 6.787634492E-01 4.463724047E-02 -3.573386186E-01
 6.674676538E-01 4.567483813E-02 -3.676256524E-01
 6.552841663E-01 4.675502330E-02 -3.817237074E-01
 6.447266936E-01 4.768604785E-02 -4.124702569E-01
 6.321501136E-01 4.870798066E-02 -4.211586265E-01
 6.205568910E-01 4.960130155E-02 -4.323678506E-01
 6.094654202E-01 5.044263974E-02 -4.607413780E-01
 5.967021585E-01 5.132570118E-02 -4.712960296E-01
 5.841859579E-01 5.213057995E-02 -4.829719512E-01
 5.702961683E-01 5.297717452E-02 -5.116037145E-01
 5.567236543E-01 5.371185392E-02 -5.251594315E-01
 5.431015491E-01 5.436275527E-02 -5.398339292E-01
 5.316017270E-01 5.485907570E-02 -5.541234222E-01
 5.190404058E-01 5.531918257E-02 -5.511913724E-01
 5.057675838E-01 5.573190004E-02 -5.639327418E-01
 4.952709973E-01 5.602420121E-02 -5.770725970E-01
 4.818620086E-01 5.628878623E-02 -5.712941749E-01
 4.692329168E-01 5.647640675E-02 -5.669860014E-01
 4.548788071E-01 5.659538507E-02 -5.626519199E-01
 4.403960705E-01 5.664577708E-02 -5.620536312E-01
 4.269323647E-01 5.658423156E-02 -5.489675265E-01
 4.134937823E-01 5.648219958E-02 -5.549747351E-01
 4.010913968E-01 5.628969148E-02 -5.360477429E-01
 3.879144788E-01 5.602820218E-02 -5.279887327E-01
 3.760722876E-01 5.573184043E-02 -5.202423235E-01
 3.650027514E-01 5.540574715E-02 -5.094490964E-01
 3.516993821E-01 5.494558439E-02 -5.010904676E-01
 3.395857811E-01 5.446454883E-02 -4.869144591E-01
 3.276955783E-01 5.392114446E-02 -4.733656468E-01
 3.179371357E-01 5.346812680E-02 -4.737742453E-01
 3.062895834E-01 5.283964053E-02 -4.537212851E-01
 2.938526869E-01 5.212456733E-02 -4.425444660E-01
 2.805330157E-01 5.129525438E-02 -4.340727381E-01
 2.679979205E-01 5.043773353E-02 -4.172204489E-01
 2.560598850E-01 4.956726357E-02 -4.036661168E-01
 2.436201125E-01 4.860918596E-02 -3.941041510E-01
 2.307008803E-01 4.753573984E-02 -3.779223323E-01
 2.188186496E-01 4.650086537E-02 -3.686838476E-01
 2.071447074E-01 4.541721568E-02 -3.549592432E-01
 1.957641095E-01 4.431664944E-02 -3.462960263E-01
 1.833284497E-01 4.303420335E-02 -3.311787956E-01
 1.716362536E-01 4.177169129E-02 -3.205783781E-01
 1.597515345E-01 4.041787982E-02 -3.077255475E-01
 1.478977501E-01 3.899388015E-02 -2.952350887E-01
 1.369096637E-01 3.761361912E-02 -2.869125667E-01
 1.258147657E-01 3.613667935E-02 -2.716280087E-01
 1.145062670E-01 3.456009179E-02 -2.637890699E-01
 1.037492976E-01 3.297059238E-02 -2.486450571E-01
 9.399673343E-02 3.145293519E-02 -2.398309384E-01
 8.310250938E-02 2.965882421E-02 -2.296575157E-01
 7.151921839E-02 2.761279233E-02 -2.161115720E-01
 6.188819557E-02 2.577845939E-02 -2.047499023E-01
 5.270533264E-02 2.390071191E-02 -1.970712775E-01
 4.393277690E-02 2.194914035E-02 -1.879562918E-01
 3.600656241E-02 2.000782266E-02 -1.740694646E-01
 2.936313860E-02 1.822016202E-02 -1.591978448E-01
 2.369812131E-02 1.653098129E-02 -1.535549906E-01
 1.952650584E-02 1.515938528E-02 -1.335130154E-01
 1.567620039E-02 1.375827286E-02 -1.210418069E-01
 1.305711642E-02 1.270746905E-02 -1.022355955E-01
 1.080611348E-02 1.172389742E-02 -8.511842389E-02
 9.127398022E-03 1.092188247E-02 -6.342210669E-02
 7.521010935E-03 1.009135507E-02 -4.300118032E-02
 5.982038099E-03 9.221543558E-03 1.827837691E-02
 3.993767314E-03 7.933209650E-03 8.724472963E-02
 2.332069911E-03 6.655311678E-03 1.898459443E-01
 9.037464042E-04 5.310497712E-03 3.765295932E-01
 -5.012706970E-04 3.528376576E-03 5.971376302E-01
 -1.279916381E-03 2.059027087E-03 7.821712975E-01
 -1.679874957E-03 8.627540083E-04 9.666614131E-01
 -1.907453639E-03 -7.375582936E-04 1.133209832E+00
 -1.734226244E-03 -2.826357260E-03 1.206548456E+00
 -9.855986573E-04 -5.156630185E-03 1.142002464E+00
 4.621306434E-04 -7.739622612E-03 1.003983429E+00
 2.578424290E-03 -1.042137109E-02 8.454747123E-01
 4.557076376E-03 -1.243116241E-02 6.917895557E-01
 6.920057349E-03 -1.449285261E-02 5.994908905E-01
 8.610677905E-03 -1.581470855E-02 5.059194387E-01
 1.067193225E-02 -1.729140431E-02 4.472946162E-01
 1.313660946E-02 -1.891332306E-02 3.676265965E-01
 1.639696956E-02 -2.086918056E-02 2.906352849E-01
 1.979301684E-02 -2.272433043E-02 2.095136244E-01
 2.402199619E-02 -2.483273856E-02 1.413185165E-01
 2.957940288E-02 -2.733832970E-02 7.071802362E-02
 3.519764915E-02 -2.963609621E-02 -1.723600083E-03
 4.236231744E-02 -3.228063881E-02 -5.785064366E-02
 4.984400421E-02 -3.478825837E-02 -1.130384989E-01
 5.848446116E-02 -3.742799908E-02 -1.597445337E-01
 6.712790579E-02 -3.984224424E-02 -2.049959820E-01
 7.766960561E-02 -4.253069684E-02 -2.454171732E-01
 8.748351038E-02 -4.483104125E-02 -2.706202571E-01
 9.836305678E-02 -4.719059169E-02 -3.103102524E-01
 1.094190255E-01 -4.940258712E-02 -3.337771543E-01
 1.214857176E-01 -5.165075138E-02 -3.621547672E-01
 1.326890588E-01 -5.358379707E-02 -3.862898556E-01
 1.429947317E-01 -5.526272580E-02 -4.146089696E-01
 1.541311592E-01 -5.695024878E-02 -4.334468072E-01
 1.656669974E-01 -5.858702958E-02 -4.539315313E-01
 1.768815666E-01 -6.007885188E-02 -4.791389503E-01
 1.884103119E-01 -6.150939316E-02 -5.015857557E-01
 1.984975636E-01 -6.267853081E-02 -5.253707166E-01
 2.094757408E-01 -6.386358291E-02 -5.427710117E-01
 2.215023041E-01 -6.506944448E-02 -5.657709394E-01
 2.330924720E-01 -6.613304466E-02 -5.905971949E-01
 2.449338883E-01 -6.714164466E-02 -6.322575336E-01
 2.570959926E-01 -6.803360581E-02 -6.464633269E-01
 2.684544027E-01 -6.880136579E-02 -6.713174884E-01
 2.809519172E-01 -6.952738762E-02 -7.066066376E-01
 2.933654785E-01 -7.012987882E-02 -7.287590497E-01
 3.058827817E-01 -7.062781602E-02 -7.488409868E-01
 3.173255920E-01 -7.099103928E-02 -7.974022313E-01
 3.293117285E-01 -7.121928781E-02 -8.203863258E-01
 3.393298090E-01 -7.135901600E-02 -8.396291840E-01
 3.506151438E-01 -7.138285041E-02 -8.863360758E-01
 3.617976606E-01 -7.130096853E-02 -9.066057749E-01
 3.725650311E-01 -7.113721222E-02 -9.297946383E-01
 3.842360973E-01 -7.084733248E-02 -9.631170955E-01
 3.963485956E-01 -7.039867342E-02 -9.915257374E-01
 4.083405137E-01 -6.983056664E-02 -1.018797907E+00
 4.216755927E-01 -6.903508306E-02 -1.032802422E+00
 4.343116879E-01 -6.814927608E-02 -1.088366128E+00
 4.482143521E-01 -6.703439355E-02 -9.675039177E-01
 4.613173604E-01 -6.581769139E-02 -3.639421101E-01
 4.739830792E-01 -6.453157216E-02 -4.225146016E-01
 4.862418771E-01 -6.319367886E-02 -4.525806461E-01
 4.981619716E-01 -6.175413728E-02 -4.077518586E-01
 5.114364624E-01 -6.009073555E-02 -3.776255555E-01
 5.252715349E-01 -5.826917663E-02 -3.474358808E-01
 5.378231406E-01 -5.652428791E-02 -3.068448476E-01
 5.524504185E-01 -5.443040282E-02 -2.692435860E-01
 5.651350021E-01 -5.256297812E-02 -2.401258584E-01
 5.786397457E-01 -5.050349236E-02 -2.004149244E-01
 5.916953087E-01 -4.847658798E-02 -1.652103655E-01
 6.044993401E-01 -4.648993164E-02 -1.432318362E-01
 6.169907451E-01 -4.450829327E-02 -1.132309595E-01
 6.310116649E-01 -4.227331653E-02 -8.742388105E-02
 6.438266039E-01 -4.018488526E-02 -5.266866861E-02
 6.577404737E-01 -3.795667738E-02 -3.455903133E-02
 6.715344191E-01 -3.570902348E-02 -4.738359620E-03
 6.843950152E-01 -3.362032771E-02 1.875049259E-02
 6.969776154E-01 -3.158779815E-02 3.976555206E-02
 7.121398449E-01 -2.914094366E-02 6.555036799E-02
 7.255959511E-01 -2.698044293E-02 9.008193821E-02
 7.371503115E-01 -2.517620847E-02 9.928313373E-02
 7.493586540E-01 -2.321712114E-02 1.304977640E-01
 7.628780603E-01 -2.112777345E-02 1.437803914E-01
 7.760621905E-01 -1.908903569E-02 1.672015724E-01
 7.884450555E-01 -1.720177755E-02 1.881092888E-01
 8.007783890E-01 -1.533418987E-02 2.169506565E-01
 8.123258352E-01 -1.371500827E-02 2.188029909E-01
 8.232876062E-01 -1.215437241E-02 2.413000679E-01
 8.348858356E-01 -1.053712424E-02 2.639018536E-01
 8.469523191E-01 -8.946761489E-03 2.798318499E-01
 8.588947058E-01 -7.437295746E-03 2.999695319E-01
 8.703629375E-01 -6.097927690E-03 3.112768590E-01
 8.816778064E-01 -4.827223718E-03 3.334391576E-01
 8.945174217E-01 -3.568370128E-03 3.409436925E-01
 9.044829011E-01 -2.684404375E-03 3.502820679E-01
 9.146521091E-01 -1.882920042E-03 3.592608117E-01
 9.245012403E-01 -1.219497994E-03 3.618806739E-01
 9.345007539E-01 -6.599614280E-04 3.652401694E-01
 9.475381970E-01 -8.298187458E-05 3.636287661E-01
 9.620205760E-01 3.462275199E-04 3.590133111E-01
 9.773208499E-01 5.675815046E-04 3.517503813E-01
 9.905386567E-01 5.873371847E-04 3.801488243E-01
 -5.000000000E-01 -1.000000000E+00 1.482823537E-02
 3.500000000E+00 -1.000000000E+00 -8.001968899E-06
 3.500000000E+00 1.000000000E+00 -1.143927802E-02
 -5.000000000E-01 1.000000000E+00 1.440547458E-02
 9.925414026E-01 1.878587238E-03 3.963412772E-01
 9.791819453E-01 4.314180231E-03 2.546205617E-01
 9.667457640E-01 6.567853736E-03 1.856982535E-01
 9.543110430E-01 8.827806450E-03 1.106390161E-01
 9.427210391E-01 1.085743355E-02 9.223916195E-02
 9.213057756E-01 1.454775361E-02 -1.840424737E-03
 9.096646607E-01 1.645548502E-02 -3.227835975E-02
 8.978524208E-01 1.832883339E-02 -6.438123347E-02
 8.855540752E-01 2.021410782E-02 -9.187942425E-02
 8.736021519E-01 2.197629958E-02 -1.278736610E-01
 8.613644242E-01 2.367308177E-02 -1.272833958E-01
 8.489989638E-01 2.532800846E-02 -1.449445950E-01
 8.370419443E-01 2.690143883E-02 -1.583879116E-01
 8.245369792E-01 2.849562932E-02 -1.730058055E-01
 8.114590943E-01 3.012441192E-02 -1.891415999E-01
 7.990659177E-01 3.162186779E-02 -1.967177156E-01
 7.869111598E-01 3.306248784E-02 -2.116098589E-01
 7.743888795E-01 3.452312388E-02 -2.203339008E-01
 7.618467212E-01 3.596993536E-02 -2.475921935E-01
 7.484345734E-01 3.747384436E-02 -2.613187693E-01
 7.358063757E-01 3.884101473E-02 -2.685242636E-01
 7.243873179E-01 4.006720707E-02 -2.945363728E-01
 7.124410868E-01 4.131535999E-02 -3.089472368E-01
 6.993393004E-01 4.263231158E-02 -3.229471970E-01
 6.855524778E-01 4.398282059E-02 -3.462892814E-01
 6.731155515E-01 4.515603930E-02 -3.638484057E-01
 6.613759100E-01 4.621493071E-02 -3.701818867E-01
 6.500054300E-01 4.722053558E-02 -4.017203559E-01
 6.384384036E-01 4.819701426E-02 -4.176250093E-01
 6.263535023E-01 4.915464111E-02 -4.225206056E-01
 6.150111556E-01 5.002197064E-02 -4.502678933E-01
 6.030837893E-01 5.088417046E-02 -4.668180552E-01
 5.904440582E-01 5.172814056E-02 -4.744808103E-01
 5.772410631E-01 5.255387723E-02 -4.987422518E-01
 5.635099113E-01 5.334451422E-02 -5.200822980E-01
 5.499126017E-01 5.403730460E-02 -5.298015629E-01
 5.373516381E-01 5.461091548E-02 -5.502626472E-01
 5.253210664E-01 5.508912914E-02 -5.534626267E-01
 5.124039948E-01 5.552554131E-02 -5.521505530E-01
 5.005192906E-01 5.587805063E-02 -5.776433909E-01
 4.885665029E-01 5.615649372E-02 -5.718529268E-01
 4.755474627E-01 5.638259649E-02 -5.718921346E-01
 4.620558619E-01 5.653589591E-02 -5.617143577E-01
 4.476374388E-01 5.662058108E-02 -5.669206565E-01
 4.336642176E-01 5.661500432E-02 -5.501911291E-01
 4.202130735E-01 5.653321557E-02 -5.561024507E-01
 4.072925895E-01 5.638594553E-02 -5.443970938E-01
 3.945029378E-01 5.615894683E-02 -5.313510801E-01
 3.819933832E-01 5.588002130E-02 -5.234031934E-01
 3.705375195E-01 5.556879379E-02 -5.164528929E-01
 3.583510667E-01 5.517566577E-02 -5.041897523E-01
 3.456425816E-01 5.470506661E-02 -4.969942337E-01
 3.336406797E-01 5.419284664E-02 -4.728647939E-01
 3.121133596E-01 5.315388367E-02 -4.629171185E-01
 3.000711352E-01 5.248210393E-02 -4.478518605E-01
 2.871928513E-01 5.170991085E-02 -4.394513600E-01
 2.742654681E-01 5.086649396E-02 -4.252351612E-01
 2.620289028E-01 5.000249855E-02 -4.092768540E-01
 2.498399988E-01 4.908822477E-02 -4.008249637E-01
 2.371604964E-01 4.807246290E-02 -3.840444023E-01
 2.247597650E-01 4.701830260E-02 -3.745966492E-01
 2.129816785E-01 4.595904052E-02 -3.600065162E-01
 2.014544085E-01 4.486693256E-02 -3.528398084E-01
 1.895462796E-01 4.367542639E-02 -3.376044381E-01
 1.774823517E-01 4.240294732E-02 -3.262280646E-01
 1.656938940E-01 4.109478556E-02 -3.147670250E-01
 1.538246423E-01 3.970587999E-02 -3.000965916E-01
 1.424037069E-01 3.830374964E-02 -2.924270033E-01
 1.313622147E-01 3.687514924E-02 -2.788523422E-01
 1.201605164E-01 3.534838557E-02 -2.676309735E-01
 1.091277823E-01 3.376534209E-02 -2.585239958E-01
 8.854962140E-02 3.055587970E-02 -2.364453207E-01
 7.731086388E-02 2.863580827E-02 -2.251632701E-01
 7.239875570E-02 -4.118647054E-02 -2.309413263E-01
 9.292328358E-02 -4.601081647E-02 -2.958919430E-01
 1.038910411E-01 -4.829658940E-02 -3.228139832E-01
 1.154523715E-01 -5.052666925E-02 -3.465797730E-01
 1.270873882E-01 -5.261727422E-02 -3.774115093E-01
 1.378418952E-01 -5.442326143E-02 -3.995597138E-01
 1.485629454E-01 -5.610648729E-02 -4.253585683E-01
 1.598990783E-01 -5.776863918E-02 -4.428054275E-01
 1.712742820E-01 -5.933294073E-02 -4.669061466E-01
 1.826459393E-01 -6.079412252E-02 -4.902890525E-01
 1.934539378E-01 -6.209396198E-02 -5.148038433E-01
 2.039866522E-01 -6.327105686E-02 -5.334299070E-01
 2.154890224E-01 -6.446651369E-02 -5.530034600E-01
 2.272973880E-01 -6.560124457E-02 -5.788314415E-01
 2.390131801E-01 -6.663734466E-02 -6.078285385E-01
 2.510149404E-01 -6.758762524E-02 -6.462620362E-01
 2.627751976E-01 -6.841748580E-02 -6.532105540E-01
 2.747031599E-01 -6.916437671E-02 -6.895725669E-01
 2.871586978E-01 -6.982863322E-02 -7.202551883E-01
 2.996241301E-01 -7.037884742E-02 -7.370425850E-01
 3.116041869E-01 -7.080942765E-02 -7.692920478E-01
 3.233186603E-01 -7.110516354E-02 -8.165485292E-01
 3.449724764E-01 -7.137093320E-02 -8.682639374E-01
 3.562064022E-01 -7.134190947E-02 -8.985235607E-01
 3.671813458E-01 -7.121909037E-02 -9.161180218E-01
 3.784005642E-01 -7.099227235E-02 -9.439687225E-01
 3.902923465E-01 -7.062300295E-02 -9.798333041E-01
 4.023445547E-01 -7.011462003E-02 -1.003997432E+00
 4.150080532E-01 -6.943282485E-02 -1.027375094E+00
 4.279936403E-01 -6.859217957E-02 -1.052344487E+00
 4.412630200E-01 -6.759183481E-02 -1.094731729E+00
 4.547658563E-01 -6.642604247E-02 -6.018848570E-01
 4.676502198E-01 -6.517463177E-02 -3.612088669E-01
 4.801124781E-01 -6.386262551E-02 -4.534569490E-01
 4.922019243E-01 -6.247390807E-02 -4.353666616E-01
 5.047992170E-01 -6.092243642E-02 -3.891822643E-01
 5.183539987E-01 -5.917995609E-02 -3.634209185E-01
 5.315473378E-01 -5.739673227E-02 -3.293746459E-01
 5.451367795E-01 -5.547734536E-02 -2.861806215E-01
 5.587927103E-01 -5.349669047E-02 -2.550493225E-01
 5.718873739E-01 -5.153323524E-02 -2.214763688E-01
 5.851675272E-01 -4.949004017E-02 -1.823476160E-01
 5.980973244E-01 -4.748325981E-02 -1.523918607E-01
 6.107450426E-01 -4.549911246E-02 -1.296545459E-01
 6.240012050E-01 -4.339080490E-02 -9.955792305E-02
 6.374191344E-01 -4.122910090E-02 -7.204983429E-02
 6.507835388E-01 -3.907078132E-02 -4.123483859E-02
 6.646374464E-01 -3.683285043E-02 -2.170681292E-02
 6.779647171E-01 -3.466467559E-02 7.836117778E-03
 6.906863153E-01 -3.260406293E-02 2.936380884E-02
 7.045587301E-01 -3.036437090E-02 5.190845459E-02
 7.188678980E-01 -2.806069329E-02 7.840934713E-02
 7.313731313E-01 -2.607832570E-02 9.732439678E-02
 7.432544827E-01 -2.419666480E-02 1.110783806E-01
 7.561183572E-01 -2.217244729E-02 1.388651209E-01
 7.694701254E-01 -2.010840457E-02 1.544963403E-01
 7.822536230E-01 -1.814540662E-02 1.775526968E-01
 7.946117222E-01 -1.626798371E-02 2.009665600E-01
 8.065521121E-01 -1.452459907E-02 2.222561895E-01
 8.178067207E-01 -1.293469034E-02 2.270883315E-01
 8.290867209E-01 -1.134574832E-02 2.516303045E-01
 8.409190774E-01 -9.741942864E-03 2.723677443E-01
 8.529235125E-01 -8.192028617E-03 2.893265903E-01
 8.646288216E-01 -6.767611718E-03 3.071142491E-01
 8.760203719E-01 -5.462575704E-03 3.202872837E-01
 8.880976140E-01 -4.197796923E-03 3.381375012E-01
 9.095675051E-01 -2.283662208E-03 3.576807110E-01
 9.410194755E-01 -3.714716513E-04 3.632501864E-01
 9.547793865E-01 1.316228227E-04 3.609933957E-01
 9.696707129E-01 4.569045122E-04 3.556222585E-01
 9.839297533E-01 5.774593446E-04 3.472532882E-01
 -5.000000000E-01 9.500000000E-01 2.362834917E-02
 -5.000000000E-01 9.000000000E-01 3.602813316E-02
 -5.000000000E-01 8.500000000E-01 4.532623611E-02
 -5.000000000E-01 8.000000000E-01 5.333825395E-02
 -5.000000000E-01 7.500000000E-01 6.106904254E-02
 -5.000000000E-01 7.000000000E-01 6.873196494E-02
 -5.000000000E-01 6.500000000E-01 7.644401549E-02
 -5.000000000E-01 6.000000000E-01 8.429072677E-02
 -5.000000000E-01 5.500000000E-01 9.246376277E-02
 -5.000000000E-01 5.000000000E-01 1.007038518E-01
 -5.000000000E-01 4.500000000E-01 1.091889875E-01
 -5.000000000E-01 4.000000000E-01 1.176302772E-01
 -5.000000000E-01 3.500000000E-01 1.261364999E-01
 -5.000000000E-01 3.000000000E-01 1.342846431E-01
 -5.000000000E-01 2.500000000E-01 1.418528625E-01
 -5.000000000E-01 2.000000000E-01 1.487267747E-01
 -5.000000000E-01 1.500000000E-01 1.545885720E-01
 -5.000000000E-01 1.000000000E-01 1.590977998E-01
 -5.000000000E-01 5.000000000E-02 1.620569831E-01
 -5.000000000E-01 2.752242878E-12 1.633501422E-01
 -5.000000000E-01 -5.000000000E-02 1.628446755E-01
 -5.000000000E-01 -1.000000000E-01 1.606448224E-01
 -5.000000000E-01 -1.500000000E-01 1.567773647E-01
 -5.000000000E-01 -2.000000000E-01 1.514228696E-01
 -5.000000000E-01 -2.500000000E-01 1.448931308E-01
 -5.000000000E-01 -3.000000000E-01 1.374006506E-01
 -5.000000000E-01 -3.500000000E-01 1.293901896E-01
 -5.000000000E-01 -4.000000000E-01 1.208684003E-01
 -5.000000000E-01 -4.500000000E-01 1.121732879E-01
 -5.000000000E-01 -5.000000000E-01 1.034900450E-01
 -5.000000000E-01 -5.500000000E-01 9.494627761E-02
 -5.000000000E-01 -6.000000000E-01 8.639838291E-02
 -5.000000000E-01 -6.500000000E-01 7.840377655E-02
 -5.000000000E-01 -7.000000000E-01 7.021513625E-02
 -5.000000000E-01 -7.500000000E-01 6.244782093E-02
 -5.000000000E-01 -8.000000000E-01 5.436521188E-02
 -5.000000000E-01 -8.500000000E-01 4.610021256E-02
 -5.000000000E-01 -9.000000000E-01 3.666726558E-02
 -5.000000000E-01 -9.500000000E-01 2.422976477E-02
 -4.500000000E-01 -1.000000000E+00 1.998931444E-02
 -4.000000000E-01 -1.000000000E+00 2.966757040E-02
 -3.500000000E-01 -1.000000000E+00 3.562583902E-02
 -3.000000000E-01 -1.000000000E+00 3.923315030E-02
 -2.500000000E-01 -1.000000000E+00 4.108495732E-02
 -2.000000000E-01 -1.000000000E+00 4.128460886E-02
 -1.500000000E-01 -1.000000000E+00 3.974711643E-02
 -1.000000000E-01 -1.000000000E+00 3.644759131E-02
 -5.000000000E-02 -1.000000000E+00 3.130560000E-02
 -9.424683256E-13 -1.000000000E+00 2.441466061E-02
 5.000000000E-02 -1.000000000E+00 1.573159907E-02
 1.000000000E-01 -1.000000000E+00 5.905323855E-03
 1.500000000E-01 -1.000000000E+00 -5.329612269E-03
 2.000000000E-01 -1.000000000E+00 -1.742457797E-02
 2.500000000E-01 -1.000000000E+00 -2.976681360E-02
 3.000000000E-01 -1.000000000E+00 -4.221594048E-02
 3.500000000E-01 -1.000000000E+00 -5.384259675E-02
 4.000000000E-01 -1.000000000E+00 -6.400836693E-02
 4.500000000E-01 -1.000000000E+00 -7.255743447E-02
 5.000000000E-01 -1.000000000E+00 -7.874635704E-02
 5.500000000E-01 -1.000000000E+00 -8.266195507E-02
 6.000000000E-01 -1.000000000E+00 -8.387016243E-02
 6.500000000E-01 -1.000000000E+00 -8.293113158E-02
 7.000000000E-01 -1.000000000E+00 -7.973765875E-02
 7.500000000E-01 -1.000000000E+00 -7.479678046E-02
 8.000000000E-01 -1.000000000E+00 -6.852812505E-02
 8.500000000E-01 -1.000000000E+00 -6.127003541E-02
 9.000000000E-01 -1.000000000E+00 -5.332478440E-02
 9.500000000E-01 -1.000000000E+00 -4.531928213E-02
 1.000000000E+00 -1.000000000E+00 -3.741478855E-02
 1.050000000E+00 -1.000000000E+00 -2.988360940E-02
 1.100000000E+00 -1.000000000E+00 -2.282734086E-02
 1.150000000E+00 -1.000000000E+00 -1.647870499E-02
 1.200000000E+00 -1.000000000E+00 -1.088141994E-02
 1.250000000E+00 -1.000000000E+00 -6.035374741E-03
 1.300000000E+00 -1.000000000E+00 -1.836662718E-03
 1.350000000E+00 -1.000000000E+00 1.549188964E-03
 1.400000000E+00 -1.000000000E+00 4.489047787E-03
 1.450000000E+00 -1.000000000E+00 6.828805172E-03
 1.500000000E+00 -1.000000000E+00 8.789243640E-03
 1.550000000E+00 -1.000000000E+00 1.028073447E-02
 1.600000000E+00 -1.000000000E+00 1.146725789E-02
 1.650000000E+00 -1.000000000E+00 1.229539343E-02
 1.700000000E+00 -1.000000000E+00 1.293359391E-02
 1.750000000E+00 -1.000000000E+00 1.335920472E-02
 1.800000000E+00 -1.000000000E+00 1.364149225E-02
 1.850000000E+00 -1.000000000E+00 1.376410338E-02
 1.900000000E+00 -1.000000000E+00 1.379113886E-02
 1.950000000E+00 -1.000000000E+00 1.386734240E-02
 2.000000000E+00 -1.000000000E+00 1.357131617E-02
 2.050000000E+00 -1.000000000E+00 1.361194131E-02
 2.100000000E+00 -1.000000000E+00 1.330920503E-02
 2.150000000E+00 -1.000000000E+00 1.321976565E-02
 2.200000000E+00 -1.000000000E+00 1.291351797E-02
 2.250000000E+00 -1.000000000E+00 1.284585233E-02
 2.300000000E+00 -1.000000000E+00 1.247891450E-02
 2.350000000E+00 -1.000000000E+00 1.239893483E-02
 2.400000000E+00 -1.000000000E+00 1.216508652E-02
 2.450000000E+00 -1.000000000E+00 1.190749217E-02
 2.500000000E+00 -1.000000000E+00 1.181572807E-02
 2.550000000E+00 -1.000000000E+00 1.165423479E-02
 2.600000000E+00 -1.000000000E+00 1.153038906E-02
 2.650000000E+00 -1.000000000E+00 1.147149543E-02
 2.700000000E+00 -1.000000000E+00 1.139486031E-02
 2.750000000E+00 -1.000000000E+00 1.130708606E-02
 2.800000000E+00 -1.000000000E+00 1.131723739E-02
 2.850000000E+00 -1.000000000E+00 1.131457276E-02
 2.900000000E+00 -1.000000000E+00 1.135374509E-02
 2.950000000E+00 -1.000000000E+00 1.137246201E-02
 3.000000000E+00 -1.000000000E+00 1.153480944E-02
 3.050000000E+00 -1.000000000E+00 1.144562587E-02
 3.100000000E+00 -1.000000000E+00 1.153783522E-02
 3.150000000E+00 -1.000000000E+00 1.161759765E-02
 3.200000000E+00 -1.000000000E+00 1.152785676E-02
 3.250000000E+00 -1.000000000E+00 1.155953416E-02
 3.300000000E+00 -1.000000000E+00 1.124595606E-02
 3.350000000E+00 -1.000000000E+00 1.077771663E-02
 3.400000000E+00 -1.000000000E+00 9.408658446E-03
 3.450000000E+00 -1.000000000E+00 5.600167535E-03
 3.500000000E+00 -9.500000000E-01 -1.690637449E-03
 3.500000000E+00 -9.000000000E-01 2.830984982E-03
 3.500000000E+00 -8.500000000E-01 6.396488831E-03
 3.500000000E+00 -8.000000000E-01 9.017980582E-03
 3.500000000E+00 -7.500000000E-01 1.071809875E-02
 3.500000000E+00 -7.000000000E-01 1.175518767E-02
 3.500000000E+00 -6.500000000E-01 1.278065252E-02
 3.500000000E+00 -6.000000000E-01 1.400104840E-02
 3.500000000E+00 -5.500000000E-01 1.540523946E-02
 3.500000000E+00 -5.000000000E-01 1.691376489E-02
 3.500000000E+00 -4.500000000E-01 1.847987584E-02
 3.500000000E+00 -4.000000000E-01 2.001019136E-02
 3.500000000E+00 -3.500000000E-01 2.159725029E-02
 3.500000000E+00 -3.000000000E-01 2.310849611E-02
 3.500000000E+00 -2.500000000E-01 2.425922067E-02
 3.500000000E+00 -2.000000000E-01 2.449008554E-02
 3.500000000E+00 -1.500000000E-01 2.375302082E-02
 3.500000000E+00 -1.000000000E-01 2.268141752E-02
 3.500000000E+00 -5.000000000E-02 2.189131263E-02
 3.500000000E+00 -2.752242878E-12 2.197494854E-02
 3.500000000E+00 5.000000000E-02 2.300372402E-02
 3.500000000E+00 1.000000000E-01 2.424604966E-02
 3.500000000E+00 1.500000000E-01 2.480050772E-02
 3.500000000E+00 2.000000000E-01 2.439437366E-02
 3.500000000E+00 2.500000000E-01 2.312341216E-02
 3.500000000E+00 3.000000000E-01 2.155512504E-02
 3.500000000E+00 3.500000000E-01 1.997753717E-02
 3.500000000E+00 4.000000000E-01 1.852050991E-02
 3.500000000E+00 4.500000000E-01 1.706008904E-02
 3.500000000E+00 5.000000000E-01 1.557632015E-02
 3.500000000E+00 5.500000000E-01 1.414454751E-02
 3.500000000E+00 6.000000000E-01 1.291281150E-02
 3.500000000E+00 6.500000000E-01 1.205402069E-02
 3.500000000E+00 7.000000000E-01 1.135173525E-02
 3.500000000E+00 7.500000000E-01 1.031825917E-02
 3.500000000E+00 8.000000000E-01 7.482891191E-03
 3.500000000E+00 8.500000000E-01 2.749785855E-03
 3.500000000E+00 9.000000000E-01 -4.832644096E-03
 3.500000000E+00 9.500000000E-01 -1.383435218E-02
 3.450000000E+00 1.000000000E+00 -2.984077430E-03
 3.400000000E+00 1.000000000E+00 2.429855231E-03
 3.350000000E+00 1.000000000E+00 4.141216433E-03
 3.300000000E+00 1.000000000E+00 4.288126395E-03
 3.250000000E+00 1.000000000E+00 4.137536933E-03
 3.200000000E+00 1.000000000E+00 3.746934599E-03
 3.150000000E+00 1.000000000E+00 3.294654628E-03
 3.100000000E+00 1.000000000E+00 2.568984293E-03
 3.050000000E+00 1.000000000E+00 2.082047650E-03
 3.000000000E+00 1.000000000E+00 1.336435255E-03
 2.950000000E+00 1.000000000E+00 7.485719783E-04
 2.900000000E+00 1.000000000E+00 -1.899135363E-06
 2.850000000E+00 1.000000000E+00 -6.618464884E-04
 2.800000000E+00 1.000000000E+00 -1.325437031E-03
 2.750000000E+00 1.000000000E+00 -1.995792754E-03
 2.700000000E+00 1.000000000E+00 -2.781219577E-03
 2.650000000E+00 1.000000000E+00 -3.399308231E-03
 2.600000000E+00 1.000000000E+00 -4.145724169E-03
 2.550000000E+00 1.000000000E+00 -4.974208161E-03
 2.500000000E+00 1.000000000E+00 -5.811813482E-03
 2.450000000E+00 1.000000000E+00 -6.635113477E-03
 2.400000000E+00 1.000000000E+00 -7.483045230E-03
 2.350000000E+00 1.000000000E+00 -8.374225946E-03
 2.300000000E+00 1.000000000E+00 -9.367289641E-03
 2.250000000E+00 1.000000000E+00 -1.033024867E-02
 2.200000000E+00 1.000000000E+00 -1.136082113E-02
 2.150000000E+00 1.000000000E+00 -1.263740387E-02
 2.100000000E+00 1.000000000E+00 -1.360599954E-02
 2.050000000E+00 1.000000000E+00 -1.518586544E-02
 2.000000000E+00 1.000000000E+00 -1.638854705E-02
 1.950000000E+00 1.000000000E+00 -1.805522772E-02
 1.900000000E+00 1.000000000E+00 -1.980278242E-02
 1.850000000E+00 1.000000000E+00 -2.161182258E-02
 1.800000000E+00 1.000000000E+00 -2.356030981E-02
 1.750000000E+00 1.000000000E+00 -2.593452166E-02
 1.700000000E+00 1.000000000E+00 -2.841310622E-02
 1.650000000E+00 1.000000000E+00 -3.116505711E-02
 1.600000000E+00 1.000000000E+00 -3.432398861E-02
 1.550000000E+00 1.000000000E+00 -3.771624713E-02
 1.500000000E+00 1.000000000E+00 -4.135877664E-02
 1.450000000E+00 1.000000000E+00 -4.555071985E-02
 1.400000000E+00 1.000000000E+00 -5.017899333E-02
 1.350000000E+00 1.000000000E+00 -5.482006042E-02
 1.300000000E+00 1.000000000E+00 -6.042821075E-02
 1.250000000E+00 1.000000000E+00 -6.574305491E-02
 1.200000000E+00 1.000000000E+00 -7.197037294E-02
 1.150000000E+00 1.000000000E+00 -7.789505087E-02
 1.100000000E+00 1.000000000E+00 -8.424529412E-02
 1.050000000E+00 1.000000000E+00 -8.979273978E-02
 1.000000000E+00 1.000000000E+00 -9.545273181E-02
 9.500000000E-01 1.000000000E+00 -9.995751772E-02
 9.000000000E-01 1.000000000E+00 -1.037297353E-01
 8.500000000E-01 1.000000000E+00 -1.069202220E-01
 8.000000000E-01 1.000000000E+00 -1.079886671E-01
 7.500000000E-01 1.000000000E+00 -1.062026197E-01
 7.000000000E-01 1.000000000E+00 -1.046961732E-01
 6.500000000E-01 1.000000000E+00 -1.000014070E-01
 6.000000000E-01 1.000000000E+00 -9.442500287E-02
 5.500000000E-01 1.000000000E+00 -8.627280829E-02
 5.000000000E-01 1.000000000E+00 -7.733978794E-02
 4.500000000E-01 1.000000000E+00 -6.684915565E-02
 4.000000000E-01 1.000000000E+00 -5.559514673E-02
 3.500000000E-01 1.000000000E+00 -4.357461144E-02
 3.000000000E-01 1.000000000E+00 -3.177246003E-02
 2.500000000E-01 1.000000000E+00 -2.004841233E-02
 2.000000000E-01 1.000000000E+00 -8.523573418E-03
 1.500000000E-01 1.000000000E+00 2.464159627E-03
 1.000000000E-01 1.000000000E+00 1.228147341E-02
 5.000000000E-02 1.000000000E+00 2.087250511E-02
 1.733724275E-12 1.000000000E+00 2.810086295E-02
 -5.000000000E-02 1.000000000E+00 3.379325205E-02
 -1.000000000E-01 1.000000000E+00 3.795953262E-02
 -1.500000000E-01 1.000000000E+00 4.055887018E-02
 -2.000000000E-01 1.000000000E+00 4.154984276E-02
 -2.500000000E-01 1.000000000E+00 4.097523902E-02
 -3.000000000E-01 1.000000000E+00 3.883698966E-02
 -3.500000000E-01 1.000000000E+00 3.508571955E-02
 -4.000000000E-01 1.000000000E+00 2.899466015E-02
 -4.500000000E-01 1.000000000E+00 1.949595828E-02
 8.854144278E-01 -9.498060720E-03 3.281603552E-01
 8.098810086E-01 -1.932463646E-02 2.173645285E-01
 7.410277178E-01 -2.982954452E-02 1.065690058E-01
 9.799589809E-01 -5.529313219E-03 3.451833808E-01
 6.756426490E-01 -4.143130640E-02 1.169942140E-03
 6.080955588E-01 -5.142285958E-02 -1.347861527E-01
 5.418040291E-01 -6.251906310E-02 -2.938768062E-01
 4.764432017E-01 -6.891597629E-02 -4.325326559E-01
 4.193047995E-01 -7.447712745E-02 -1.016585557E+00
 3.590368307E-01 -7.607393608E-02 -8.917475933E-01
 3.092576213E-01 -7.570276581E-02 -7.495581781E-01
 2.538207268E-01 -7.182639228E-02 -6.399519480E-01
 1.962023276E-01 -6.731524810E-02 -5.110184316E-01
 1.454799387E-01 -6.057936495E-02 -4.097640664E-01
 1.001122965E-01 -5.250193751E-02 -2.997354464E-01
 6.112713959E-02 -4.464640959E-02 -1.481691280E-01
 2.483189076E-02 -3.041431565E-02 1.582827576E-01