TITLE     = "Visualization of the solution"
VARIABLES = "x"
"y"
"Pressure_Coefficient"
ZONE T="Zone"
 STRANDID=0, SOLUTIONTIME=0
 Nodes=12031, Elements=23479, ZONETYPE=FEQuadrilateral
 DATAPACKING=POINT
 DT=(DOUBLE DOUBLE DOUBLE )
 1.000153899E+00 5.073020002E-04 3.482414303E-01
 9.872437716E-01 3.069550497E-03 2.554550027E-01
 9.741384387E-01 5.715784617E-03 1.677022395E-01
 9.565783143E-01 9.113405831E-03 1.223159379E-01
 9.412514567E-01 1.213179622E-02 8.058362647E-02
 9.266333580E-01 1.507900283E-02 2.502207119E-02
 9.147860408E-01 1.741608605E-02 -1.041673416E-02
 9.027305841E-01 1.974337362E-02 -3.160532065E-02
 8.909139633E-01 2.205312625E-02 -7.328087076E-02
 8.790450096E-01 2.431461029E-02 -1.039570830E-01
 8.669278622E-01 2.658672258E-02 -1.401952942E-01
 8.543050885E-01 2.883973345E-02 -1.476411788E-01
 8.421327472E-01 3.102363460E-02 -1.747337915E-01
 8.313978314E-01 3.295176849E-02 -2.168953148E-01
 8.197763562E-01 3.493237868E-02 -2.288832895E-01
 8.075114489E-01 3.699386492E-02 -2.525040722E-01
 7.949767113E-01 3.905025870E-02 -2.744185670E-01
 7.825080156E-01 4.103709757E-02 -2.874609461E-01
 7.703553438E-01 4.296582565E-02 -3.194869501E-01
 7.589053512E-01 4.474377632E-02 -3.484985733E-01
 7.458091974E-01 4.668237269E-02 -3.570593643E-01
 7.325875163E-01 4.861576855E-02 -3.853633432E-01
 7.221829891E-01 5.011227354E-02 -4.159539652E-01
 7.110968232E-01 5.163350701E-02 -4.265776476E-01
 6.996104121E-01 5.318540707E-02 -4.533276149E-01
 6.865941882E-01 5.488047004E-02 -4.787849318E-01
 6.738321185E-01 5.646073446E-02 -4.965623102E-01
 6.635818481E-01 5.769589916E-02 -5.102340881E-01
 6.520497799E-01 5.901493132E-02 -5.208784848E-01
 6.406168938E-01 6.030341610E-02 -5.370954683E-01
 6.290810704E-01 6.151784584E-02 -4.842949961E-01
 6.176953912E-01 6.264352053E-02 -5.033724641E-01
 6.071468592E-01 6.361754984E-02 -8.836072844E-01
 5.952118635E-01 6.469944119E-02 -9.751673481E-01
 5.839493275E-01 6.562864035E-02 -9.175223294E-01
 5.708749890E-01 6.662403792E-02 -9.135784486E-01
 5.588430166E-01 6.746054441E-02 -9.000130263E-01
 5.468214154E-01 6.820151955E-02 -8.850287561E-01
 5.359362364E-01 6.881599873E-02 -8.785984674E-01
 5.246185064E-01 6.939901412E-02 -8.635031043E-01
 5.125001669E-01 6.992841512E-02 -8.379278926E-01
 5.013205409E-01 7.032746822E-02 -8.196121117E-01
 4.884943664E-01 7.073827088E-02 -8.166848766E-01
 4.753426611E-01 7.107441127E-02 -7.974614236E-01
 4.618975520E-01 7.132798433E-02 -7.739049838E-01
 4.487616420E-01 7.146887481E-02 -7.494701438E-01
 4.361216128E-01 7.152923197E-02 -7.463606062E-01
 4.235112965E-01 7.154674083E-02 -7.387251171E-01
 4.111187458E-01 7.146114856E-02 -7.077559767E-01
 3.986489475E-01 7.131332159E-02 -6.887525120E-01
 3.863067925E-01 7.108793408E-02 -6.816463589E-01
 3.745633066E-01 7.083748281E-02 -6.740530795E-01
 3.614739180E-01 7.045105100E-02 -6.410939243E-01
 3.488203883E-01 7.001226395E-02 -6.287534313E-01
 3.359105587E-01 6.951199472E-02 -6.330786671E-01
 3.248909414E-01 6.901529431E-02 -6.171684325E-01
 3.122326732E-01 6.836635619E-02 -6.002644038E-01
 2.991538346E-01 6.762605906E-02 -5.850960584E-01
 2.852837145E-01 6.673598289E-02 -5.676947487E-01
 2.730680406E-01 6.588983536E-02 -5.566429878E-01
 2.612204552E-01 6.498043239E-02 -5.391399520E-01
 2.487994879E-01 6.397357583E-02 -5.324020914E-01
 2.363299876E-01 6.285029650E-02 -5.107917809E-01
 2.240130454E-01 6.167211384E-02 -4.975401043E-01
 2.120838016E-01 6.043199450E-02 -4.768435029E-01
 2.001872510E-01 5.912920088E-02 -4.651424537E-01
 1.876658946E-01 5.764386430E-02 -4.448166886E-01
 1.757597476E-01 5.614546314E-02 -4.322239371E-01
 1.641918868E-01 5.457838252E-02 -4.077231609E-01
 1.522666663E-01 5.286688358E-02 -3.935021196E-01
 1.413468271E-01 5.118964985E-02 -3.713799212E-01
 1.295607984E-01 4.925369471E-02 -3.453976792E-01
 1.181620732E-01 4.726106673E-02 -3.247980065E-01
 1.074574143E-01 4.525374994E-02 -2.984532024E-01
 9.736144543E-02 4.324151576E-02 -2.726229597E-01
 8.630359173E-02 4.087749496E-02 -2.400134179E-01
 7.475306839E-02 3.820159286E-02 -2.050573977E-01
 6.479781866E-02 3.570734337E-02 -1.710282185E-01
 5.491732433E-02 3.301162645E-02 -1.205517006E-01
 4.615607113E-02 3.039623797E-02 -7.724398613E-02
 3.863998502E-02 2.795596421E-02 -3.155673272E-02
 3.194837645E-02 2.558575571E-02 2.136949510E-02
 2.621904016E-02 2.335816436E-02 6.695182951E-02
 2.206784114E-02 2.161155082E-02 1.159893639E-01
 1.809730381E-02 1.979995333E-02 1.671400591E-01
 1.491097454E-02 1.821480878E-02 2.261253283E-01
 1.200035028E-02 1.664329320E-02 2.746892520E-01
 9.873886593E-03 1.539291441E-02 3.273306334E-01
 8.009524085E-03 1.419995259E-02 3.707860765E-01
 6.283112802E-03 1.300388481E-02 4.518845825E-01
 4.008519929E-03 1.121066883E-02 5.596793406E-01
 2.067724243E-03 9.390668012E-03 6.575897879E-01
 4.993437906E-04 7.556514814E-03 8.626090492E-01
 -1.043426571E-03 4.941496532E-03 1.067088737E+00
 -1.658765716E-03 2.997172065E-03 1.166257780E+00
 -1.821310958E-03 1.431874582E-03 1.198355127E+00
 -1.673503546E-03 -2.370267466E-04 1.151181781E+00
 -1.195776858E-03 -1.914498745E-03 1.030579859E+00
 -1.907876140E-04 -3.924713936E-03 8.676352841E-01
 1.306676073E-03 -5.964041222E-03 6.671774595E-01
 3.339797491E-03 -8.060098626E-03 5.014317094E-01
 5.206739064E-03 -9.636397474E-03 3.628264474E-01
 7.333677728E-03 -1.119221095E-02 2.763559840E-01
 9.046665393E-03 -1.230692584E-02 1.974615513E-01
 1.120246295E-02 -1.358997170E-02 1.483505229E-01
 1.361012645E-02 -1.489923988E-02 8.728283888E-02
 1.696971804E-02 -1.654212922E-02 3.465295635E-02
 1.999389753E-02 -1.789270714E-02 -2.344878811E-02
 2.387283929E-02 -1.947647706E-02 -6.200892183E-02
 2.925912477E-02 -2.146336995E-02 -1.027455024E-01
 3.508649394E-02 -2.339013480E-02 -1.451621835E-01
 4.207758978E-02 -2.548257262E-02 -1.718799115E-01
 4.984985292E-02 -2.758653276E-02 -2.005795715E-01
 5.895492435E-02 -2.982537448E-02 -2.242880583E-01
 6.794732809E-02 -3.183288127E-02 -2.462903474E-01
 7.830607891E-02 -3.396606073E-02 -2.640880959E-01
 8.850835264E-02 -3.590593487E-02 -2.831112867E-01
 9.899306297E-02 -3.774971515E-02 -2.943788059E-01
 1.103884801E-01 -3.962524608E-02 -3.106850882E-01
 1.218135506E-01 -4.137907177E-02 -3.278979090E-01
 1.337420344E-01 -4.308595136E-02 -3.401701240E-01
 1.446643174E-01 -4.455735907E-02 -3.579357549E-01
 1.560540944E-01 -4.600023106E-02 -3.732376266E-01
 1.683082879E-01 -4.745285213E-02 -3.881329427E-01
 1.801603138E-01 -4.877125099E-02 -4.058478375E-01
 1.921353340E-01 -5.001709983E-02 -4.238781802E-01
 2.030425221E-01 -5.107563362E-02 -4.415745819E-01
 2.145245373E-01 -5.211466551E-02 -4.575969181E-01
 2.268796563E-01 -5.314451084E-02 -4.733071351E-01
 2.394458055E-01 -5.410894006E-02 -4.952733608E-01
 2.516691387E-01 -5.496196076E-02 -5.223463189E-01
 2.637711167E-01 -5.569880083E-02 -5.338575964E-01
 2.748422623E-01 -5.631164089E-02 -5.563816270E-01
 2.872270942E-01 -5.689619109E-02 -5.751704749E-01
 2.994835973E-01 -5.738807097E-02 -6.036161593E-01
 3.120931983E-01 -5.776730925E-02 -6.168986741E-01
 3.237846196E-01 -5.802848935E-02 -6.303058568E-01
 3.362157941E-01 -5.819588527E-02 -6.393951993E-01
 3.470800519E-01 -5.826799572E-02 -6.730575988E-01
 3.584131598E-01 -5.821038038E-02 -6.731966830E-01
 3.692796230E-01 -5.806916207E-02 -6.508712823E-01
 3.801124692E-01 -5.784591660E-02 -6.478460539E-01
 3.916293383E-01 -5.749377608E-02 -6.342821185E-01
 4.045930207E-01 -5.696051568E-02 -5.981833645E-01
 4.169947505E-01 -5.633236468E-02 -5.724376165E-01
 4.295676351E-01 -5.556019396E-02 -5.394831250E-01
 4.418366849E-01 -5.469150841E-02 -5.046107990E-01
 4.536943436E-01 -5.373165011E-02 -4.627645721E-01
 4.653334022E-01 -5.270823836E-02 -4.310346825E-01
 4.776658714E-01 -5.152422562E-02 -3.985984091E-01
 4.890983999E-01 -5.030325055E-02 -3.450852007E-01
 5.017529726E-01 -4.890539870E-02 -3.068641143E-01
 5.154460669E-01 -4.731786251E-02 -2.714091137E-01
 5.286195874E-01 -4.571444169E-02 -2.358812380E-01
 5.417188406E-01 -4.406017810E-02 -2.051701041E-01
 5.542081594E-01 -4.239287600E-02 -1.590291991E-01
 5.677481890E-01 -4.058332741E-02 -1.304913992E-01
 5.806028843E-01 -3.881534934E-02 -9.619810146E-02
 5.930561423E-01 -3.710474446E-02 -7.417382665E-02
 6.057759523E-01 -3.531299159E-02 -4.171262427E-02
 6.200321913E-01 -3.330001980E-02 -1.124956206E-02
 6.345582604E-01 -3.127834201E-02 7.657362547E-03
 6.492245793E-01 -2.918285318E-02 4.211548418E-02
 6.623227000E-01 -2.735826001E-02 5.716888051E-02
 6.754373908E-01 -2.549099922E-02 8.757148969E-02
 6.879323721E-01 -2.376705594E-02 1.003469699E-01
 7.000533342E-01 -2.206348069E-02 1.287940295E-01
 7.145780325E-01 -2.009760961E-02 1.440140293E-01
 7.277434468E-01 -1.833825372E-02 1.611280577E-01
 7.396380305E-01 -1.675788127E-02 1.784111904E-01
 7.530170679E-01 -1.498820819E-02 2.009095500E-01
 7.650300860E-01 -1.343361195E-02 2.199250369E-01
 7.782588005E-01 -1.175489929E-02 2.430826443E-01
 7.902700901E-01 -1.031245198E-02 2.555712886E-01
 8.032730222E-01 -8.810403757E-03 2.675109284E-01
 8.140237331E-01 -7.575965952E-03 2.881865363E-01
 8.255057931E-01 -6.321399007E-03 3.040561470E-01
 8.385213614E-01 -4.983838182E-03 3.197794887E-01
 8.510506749E-01 -3.777162638E-03 3.368772766E-01
 8.634428978E-01 -2.691825386E-03 3.491046909E-01
 8.749717474E-01 -1.777434722E-03 3.609743474E-01
 8.863248229E-01 -9.615492309E-04 3.743373668E-01
 8.995150328E-01 -1.712478261E-04 3.813073487E-01
 9.094903469E-01 3.385972232E-04 3.908394810E-01
 9.204822779E-01 7.632185007E-04 3.933376977E-01
 9.303979278E-01 1.051071449E-03 3.950147779E-01
 9.395154119E-01 1.232712064E-03 3.980713983E-01
 9.514057636E-01 1.351152780E-03 3.974989388E-01
 9.637388587E-01 1.339422306E-03 3.985971869E-01
 9.770663381E-01 1.175371464E-03 4.034071614E-01
 9.887523055E-01 8.958024555E-04 4.163717311E-01
 -5.000000000E-01 -1.000000000E+00 1.605990853E-02
 3.500000000E+00 -1.000000000E+00 7.973614190E-03
 3.500000000E+00 1.000000000E+00 -3.372069852E-02
 -5.000000000E-01 1.000000000E+00 1.509728836E-02
 9.936988354E-01 1.788426249E-03 3.279908341E-01
 9.806911051E-01 4.392667557E-03 2.004695801E-01
 9.653583765E-01 7.414595224E-03 1.448689943E-01
 9.489148855E-01 1.062260102E-02 1.028695486E-01
 9.339424074E-01 1.360539952E-02 4.949478657E-02
 9.207096994E-01 1.624754444E-02 4.786755045E-03
 9.087583125E-01 1.857972983E-02 -1.794056055E-02
 8.968222737E-01 2.089824993E-02 -5.459827035E-02
 8.849794865E-01 2.318386827E-02 -8.772568639E-02
 8.729864359E-01 2.545066644E-02 -1.265097543E-01
 8.606164753E-01 2.771322802E-02 -1.411462366E-01
 8.482189178E-01 2.993168402E-02 -1.580964760E-01
 8.367652893E-01 3.198770154E-02 -2.015624891E-01
 8.255870938E-01 3.394207358E-02 -2.212637922E-01
 8.136439025E-01 3.596312180E-02 -2.403213896E-01
 8.012440801E-01 3.802206181E-02 -2.651542153E-01
 7.887423635E-01 4.004367813E-02 -2.786434576E-01
 7.764316797E-01 4.200146161E-02 -3.023908448E-01
 7.646303475E-01 4.385480098E-02 -3.386091549E-01
 7.523572743E-01 4.571307451E-02 -3.507095021E-01
 7.391983569E-01 4.764907062E-02 -3.683596635E-01
 7.273852527E-01 4.936402105E-02 -4.054245263E-01
 7.166399062E-01 5.087289028E-02 -4.187491463E-01
 7.053536177E-01 5.240945704E-02 -4.398807588E-01
 6.931023002E-01 5.403293855E-02 -4.685126415E-01
 6.802131534E-01 5.567060225E-02 -4.849666250E-01
 6.687069833E-01 5.707831681E-02 -5.078753821E-01
 6.578158140E-01 5.835541524E-02 -5.102000670E-01
 6.463333368E-01 5.965917371E-02 -5.370502101E-01
 6.348489821E-01 6.091063097E-02 -5.173949959E-01
 6.233882308E-01 6.208068319E-02 -4.624823518E-01
 6.124211252E-01 6.313053519E-02 -6.673936945E-01
 6.011793613E-01 6.415849552E-02 -9.784204433E-01
 5.895805955E-01 6.516404077E-02 -9.399590167E-01
 5.774121583E-01 6.612633914E-02 -9.130851448E-01
 5.648590028E-01 6.704229116E-02 -9.097696632E-01
 5.528322160E-01 6.783103198E-02 -8.893684473E-01
 5.413788259E-01 6.850875914E-02 -8.816268789E-01
 5.302773714E-01 6.910750642E-02 -8.745639962E-01
 5.185593367E-01 6.966371462E-02 -8.511111733E-01
 5.069103539E-01 7.012794167E-02 -8.235680905E-01
 4.949074537E-01 7.053286955E-02 -8.212689298E-01
 4.819185138E-01 7.090634108E-02 -8.077841256E-01
 4.686201066E-01 7.120119780E-02 -7.872628228E-01
 4.553295970E-01 7.139842957E-02 -7.592050582E-01
 4.424416274E-01 7.149905339E-02 -7.438748262E-01
 4.298164546E-01 7.153798640E-02 -7.493920337E-01
 4.173150212E-01 7.150394469E-02 -7.205571926E-01
 4.048838466E-01 7.138723508E-02 -6.990090219E-01
 3.924778700E-01 7.120062783E-02 -6.800896375E-01
 3.804350495E-01 7.096270844E-02 -6.853896040E-01
 3.680186123E-01 7.064426690E-02 -6.555531804E-01
 3.551471531E-01 7.023165748E-02 -6.310958943E-01
 3.423654735E-01 6.976212934E-02 -6.320819637E-01
 3.304007500E-01 6.926364452E-02 -6.277029821E-01
 3.185618073E-01 6.869082525E-02 -6.069852890E-01
 3.056932539E-01 6.799620762E-02 -5.956835356E-01
 2.922187746E-01 6.718102098E-02 -5.727812508E-01
 2.791758776E-01 6.631290913E-02 -5.650092926E-01
 2.671442479E-01 6.543513387E-02 -5.442092158E-01
 2.550099716E-01 6.447700411E-02 -5.399742193E-01
 2.425647378E-01 6.341193616E-02 -5.192308143E-01
 2.301715165E-01 6.226120517E-02 -5.063767662E-01
 2.180484235E-01 6.105205417E-02 -4.842201309E-01
 2.061355263E-01 5.978059769E-02 -4.741256880E-01
 1.939265728E-01 5.838653259E-02 -4.528099270E-01
 1.817128211E-01 5.689466372E-02 -4.404149694E-01
 1.699758172E-01 5.536192283E-02 -4.189918075E-01
 1.582292765E-01 5.372263305E-02 -4.001607912E-01
 1.468067467E-01 5.202826671E-02 -3.849126812E-01
 1.354538128E-01 5.022167228E-02 -3.573322931E-01
 1.238614358E-01 4.825738072E-02 -3.357715779E-01
 1.128097437E-01 4.625740834E-02 -3.109436897E-01
 1.024094298E-01 4.424763285E-02 -2.875787817E-01
 9.183251858E-02 4.205950536E-02 -2.594654586E-01
 8.052833006E-02 3.953954391E-02 -2.203797873E-01
 6.977544352E-02 3.695446812E-02 -1.890449585E-01
 5.985757150E-02 3.435948491E-02 -1.548896598E-01
 7.312670350E-02 -3.289947100E-02 -2.574962342E-01
 8.340721577E-02 -3.493599780E-02 -2.748577838E-01
 9.375070781E-02 -3.682782501E-02 -2.897475632E-01
 1.046907715E-01 -3.868748061E-02 -3.010086745E-01
 1.161010154E-01 -4.050215892E-02 -3.203396011E-01
 1.277777925E-01 -4.223251157E-02 -3.341368955E-01
 1.392031759E-01 -4.382165521E-02 -3.498349074E-01
 1.503592059E-01 -4.527879506E-02 -3.655244136E-01
 1.621811911E-01 -4.672654159E-02 -3.801816542E-01
 1.742343009E-01 -4.811205156E-02 -3.970863599E-01
 1.861478239E-01 -4.939417541E-02 -4.149353431E-01
 1.975889280E-01 -5.054636672E-02 -4.336393488E-01
 2.087835297E-01 -5.159514956E-02 -4.489218876E-01
 2.207020968E-01 -5.262958817E-02 -4.651871657E-01
 2.331627309E-01 -5.362672545E-02 -4.830695275E-01
 2.455574721E-01 -5.453545041E-02 -5.086580748E-01
 2.577201277E-01 -5.533038080E-02 -5.308264020E-01
 2.693066895E-01 -5.600522086E-02 -5.422540905E-01
 2.810346782E-01 -5.660391599E-02 -5.666945399E-01
 2.933553457E-01 -5.714213103E-02 -5.872010148E-01
 3.057883978E-01 -5.757769011E-02 -6.131121923E-01
 3.179389089E-01 -5.789789930E-02 -6.229972726E-01
 3.300002068E-01 -5.811218731E-02 -6.348150714E-01
 3.416479230E-01 -5.823194049E-02 -6.530083522E-01
 3.527466059E-01 -5.823918805E-02 -6.812008346E-01
 3.638463914E-01 -5.813977122E-02 -6.611026074E-01
 3.746960461E-01 -5.795753933E-02 -6.463652119E-01
 3.858709037E-01 -5.766984634E-02 -6.441641758E-01
 3.981111795E-01 -5.722714588E-02 -6.167608600E-01
 4.107938856E-01 -5.664644018E-02 -5.841278526E-01
 4.232811928E-01 -5.594627932E-02 -5.577247180E-01
 4.357021600E-01 -5.512585118E-02 -5.218204126E-01
 4.477655143E-01 -5.421157926E-02 -4.855250820E-01
 4.595138729E-01 -5.321994424E-02 -4.450494925E-01
 4.714996368E-01 -5.211623199E-02 -4.150975607E-01
 4.833821356E-01 -5.091373809E-02 -3.765257651E-01
 4.954256862E-01 -4.960432462E-02 -3.222498355E-01
 5.085995197E-01 -4.811163060E-02 -2.892774158E-01
 5.220328271E-01 -4.651615210E-02 -2.539777296E-01
 5.351692140E-01 -4.488730989E-02 -2.197721015E-01
 5.479635000E-01 -4.322652705E-02 -1.850002536E-01
 5.609781742E-01 -4.148810171E-02 -1.421192253E-01
 5.741755366E-01 -3.969933838E-02 -1.150739225E-01
 5.868295133E-01 -3.796004690E-02 -8.323832124E-02
 5.994160473E-01 -3.620886803E-02 -5.973811089E-02
 6.129040718E-01 -3.430650569E-02 -2.637312331E-02
 6.272952259E-01 -3.228918090E-02 -1.729292900E-04
 6.418914199E-01 -3.023059759E-02 2.270416641E-02
 6.557736397E-01 -2.827055659E-02 5.263635140E-02
 6.688800454E-01 -2.642462961E-02 6.976833653E-02
 6.816848814E-01 -2.462902758E-02 9.664786649E-02
 6.939928532E-01 -2.291526832E-02 1.119659753E-01
 7.073156834E-01 -2.108054515E-02 1.377068436E-01
 7.211607397E-01 -1.921793167E-02 1.529366518E-01
 7.336907387E-01 -1.754806750E-02 1.695570647E-01
 7.463275492E-01 -1.587304473E-02 1.886345469E-01
 7.590235770E-01 -1.421091007E-02 2.107963602E-01
 7.716444433E-01 -1.259425562E-02 2.303454670E-01
 7.842644453E-01 -1.103367563E-02 2.511014810E-01
 7.967715561E-01 -9.561427869E-03 2.616877117E-01
 8.086483777E-01 -8.193184854E-03 2.767147467E-01
 8.197647631E-01 -6.948682480E-03 2.958660838E-01
 8.320135772E-01 -5.652618594E-03 3.111576900E-01
 8.447860181E-01 -4.380500410E-03 3.279155001E-01
 8.572467864E-01 -3.234494012E-03 3.435675856E-01
 8.692073226E-01 -2.234630054E-03 3.554386473E-01
 8.806482852E-01 -1.369491976E-03 3.669343322E-01
 8.929199278E-01 -5.663985285E-04 3.779139314E-01
 9.149863124E-01 5.509078619E-04 3.947963312E-01
 9.454605877E-01 1.291932422E-03 3.972273386E-01
 9.575723112E-01 1.345287543E-03 3.976139075E-01
 9.704025984E-01 1.257396885E-03 3.991288213E-01
 9.829093218E-01 1.035586960E-03 4.088217572E-01
 9.944531024E-01 7.015522278E-04 4.662838702E-01
 -5.000000000E-01 9.500000000E-01 2.467487901E-02
 -5.000000000E-01 9.000000000E-01 3.735309379E-02
 -5.000000000E-01 8.500000000E-01 4.693232696E-02
 -5.000000000E-01 8.000000000E-01 5.550015504E-02
 -5.000000000E-01 7.500000000E-01 6.358441436E-02
 -5.000000000E-01 7.000000000E-01 7.176443342E-02
 -5.000000000E-01 6.500000000E-01 7.983201038E-02
 -5.000000000E-01 6.000000000E-01 8.842811052E-02
 -5.000000000E-01 5.500000000E-01 9.692180113E-02
 -5.000000000E-01 5.000000000E-01 1.058858124E-01
 -5.000000000E-01 4.500000000E-01 1.148097751E-01
 -5.000000000E-01 4.000000000E-01 1.238334513E-01
 -5.000000000E-01 3.500000000E-01 1.326679217E-01
 -5.000000000E-01 3.000000000E-01 1.411703264E-01
 -5.000000000E-01 2.500000000E-01 1.490143858E-01
 -5.000000000E-01 2.000000000E-01 1.559888459E-01
 -5.000000000E-01 1.500000000E-01 1.617893599E-01
 -5.000000000E-01 1.000000000E-01 1.661658395E-01
 -5.000000000E-01 5.000000000E-02 1.688418209E-01
 -5.000000000E-01 2.752242878E-12 1.698380543E-01
 -5.000000000E-01 -5.000000000E-02 1.688752153E-01
 -5.000000000E-01 -1.000000000E-01 1.663077678E-01
 -5.000000000E-01 -1.500000000E-01 1.620345889E-01
 -5.000000000E-01 -2.000000000E-01 1.564045670E-01
 -5.000000000E-01 -2.500000000E-01 1.495336024E-01
 -5.000000000E-01 -3.000000000E-01 1.420122417E-01
 -5.000000000E-01 -3.500000000E-01 1.338953867E-01
 -5.000000000E-01 -4.000000000E-01 1.252798313E-01
 -5.000000000E-01 -4.500000000E-01 1.166906399E-01
 -5.000000000E-01 -5.000000000E-01 1.079751381E-01
 -5.000000000E-01 -5.500000000E-01 9.939535146E-02
 -5.000000000E-01 -6.000000000E-01 9.101501457E-02
 -5.000000000E-01 -6.500000000E-01 8.273445219E-02
 -5.000000000E-01 -7.000000000E-01 7.457690280E-02
 -5.000000000E-01 -7.500000000E-01 6.673328238E-02
 -5.000000000E-01 -8.000000000E-01 5.812704210E-02
 -5.000000000E-01 -8.500000000E-01 4.942423538E-02
 -5.000000000E-01 -9.000000000E-01 3.947735490E-02
 -5.000000000E-01 -9.500000000E-01 2.610393995E-02
 -4.500000000E-01 -1.000000000E+00 2.161810462E-02
 -4.000000000E-01 -1.000000000E+00 3.225900026E-02
 -3.500000000E-01 -1.000000000E+00 3.891481723E-02
 -3.000000000E-01 -1.000000000E+00 4.302348441E-02
 -2.500000000E-01 -1.000000000E+00 4.576060713E-02
 -2.000000000E-01 -1.000000000E+00 4.689028896E-02
 -1.500000000E-01 -1.000000000E+00 4.651598987E-02
 -1.000000000E-01 -1.000000000E+00 4.460886840E-02
 -5.000000000E-02 -1.000000000E+00 4.120469049E-02
 -9.424683256E-13 -1.000000000E+00 3.642751407E-02
 5.000000000E-02 -1.000000000E+00 3.035261705E-02
 1.000000000E-01 -1.000000000E+00 2.331172966E-02
 1.500000000E-01 -1.000000000E+00 1.540052558E-02
 2.000000000E-01 -1.000000000E+00 7.245402656E-03
 2.500000000E-01 -1.000000000E+00 -1.110755224E-03
 3.000000000E-01 -1.000000000E+00 -8.792458133E-03
 3.500000000E-01 -1.000000000E+00 -1.573327309E-02
 4.000000000E-01 -1.000000000E+00 -2.143651470E-02
 4.500000000E-01 -1.000000000E+00 -2.559611357E-02
 5.000000000E-01 -1.000000000E+00 -2.793254639E-02
 5.500000000E-01 -1.000000000E+00 -2.881331649E-02
 6.000000000E-01 -1.000000000E+00 -2.747900133E-02
 6.500000000E-01 -1.000000000E+00 -2.479064698E-02
 7.000000000E-01 -1.000000000E+00 -2.059426815E-02
 7.500000000E-01 -1.000000000E+00 -1.535597843E-02
 8.000000000E-01 -1.000000000E+00 -9.128006704E-03
 8.500000000E-01 -1.000000000E+00 -2.837243596E-03
 9.000000000E-01 -1.000000000E+00 3.908098912E-03
 9.500000000E-01 -1.000000000E+00 1.039887933E-02
 1.000000000E+00 -1.000000000E+00 1.650429091E-02
 1.050000000E+00 -1.000000000E+00 2.206191538E-02
 1.100000000E+00 -1.000000000E+00 2.698230095E-02
 1.150000000E+00 -1.000000000E+00 3.120705577E-02
 1.200000000E+00 -1.000000000E+00 3.471098548E-02
 1.250000000E+00 -1.000000000E+00 3.756994450E-02
 1.300000000E+00 -1.000000000E+00 3.966474330E-02
 1.350000000E+00 -1.000000000E+00 4.126707629E-02
 1.400000000E+00 -1.000000000E+00 4.234366587E-02
 1.450000000E+00 -1.000000000E+00 4.289709156E-02
 1.500000000E+00 -1.000000000E+00 4.308498770E-02
 1.550000000E+00 -1.000000000E+00 4.292018780E-02
 1.600000000E+00 -1.000000000E+00 4.249106861E-02
 1.650000000E+00 -1.000000000E+00 4.191703608E-02
 1.700000000E+00 -1.000000000E+00 4.104192030E-02
 1.750000000E+00 -1.000000000E+00 4.017859279E-02
 1.800000000E+00 -1.000000000E+00 3.913133936E-02
 1.850000000E+00 -1.000000000E+00 3.798368696E-02
 1.900000000E+00 -1.000000000E+00 3.687491144E-02
 1.950000000E+00 -1.000000000E+00 3.566324708E-02
 2.000000000E+00 -1.000000000E+00 3.448108357E-02
 2.050000000E+00 -1.000000000E+00 3.330747014E-02
 2.100000000E+00 -1.000000000E+00 3.214738348E-02
 2.150000000E+00 -1.000000000E+00 3.102522254E-02
 2.200000000E+00 -1.000000000E+00 2.991216578E-02
 2.250000000E+00 -1.000000000E+00 2.888029547E-02
 2.300000000E+00 -1.000000000E+00 2.783756500E-02
 2.350000000E+00 -1.000000000E+00 2.688745007E-02
 2.400000000E+00 -1.000000000E+00 2.594322987E-02
 2.450000000E+00 -1.000000000E+00 2.506728153E-02
 2.500000000E+00 -1.000000000E+00 2.423644992E-02
 2.550000000E+00 -1.000000000E+00 2.348782656E-02
 2.600000000E+00 -1.000000000E+00 2.277729259E-02
 2.650000000E+00 -1.000000000E+00 2.211512187E-02
 2.700000000E+00 -1.000000000E+00 2.151191742E-02
 2.750000000E+00 -1.000000000E+00 2.093421546E-02
 2.800000000E+00 -1.000000000E+00 2.042943501E-02
 2.850000000E+00 -1.000000000E+00 1.996460342E-02
 2.900000000E+00 -1.000000000E+00 1.955745960E-02
 2.950000000E+00 -1.000000000E+00 1.916799219E-02
 3.000000000E+00 -1.000000000E+00 1.882561849E-02
 3.050000000E+00 -1.000000000E+00 1.848643420E-02
 3.100000000E+00 -1.000000000E+00 1.818894489E-02
 3.150000000E+00 -1.000000000E+00 1.785227304E-02
 3.200000000E+00 -1.000000000E+00 1.749683063E-02
 3.250000000E+00 -1.000000000E+00 1.707743126E-02
 3.300000000E+00 -1.000000000E+00 1.651269930E-02
 3.350000000E+00 -1.000000000E+00 1.574819190E-02
 3.400000000E+00 -1.000000000E+00 1.441137138E-02
 3.450000000E+00 -1.000000000E+00 1.164010413E-02
 3.500000000E+00 -9.500000000E-01 6.145780374E-03
 3.500000000E+00 -9.000000000E-01 7.244574654E-03
 3.500000000E+00 -8.500000000E-01 8.765992761E-03
 3.500000000E+00 -8.000000000E-01 1.031591490E-02
 3.500000000E+00 -7.500000000E-01 1.169885259E-02
 3.500000000E+00 -7.000000000E-01 1.305412168E-02
 3.500000000E+00 -6.500000000E-01 1.443673019E-02
 3.500000000E+00 -6.000000000E-01 1.585219389E-02
 3.500000000E+00 -5.500000000E-01 1.728152126E-02
 3.500000000E+00 -5.000000000E-01 1.877372795E-02
 3.500000000E+00 -4.500000000E-01 2.027681448E-02
 3.500000000E+00 -4.000000000E-01 2.182802082E-02
 3.500000000E+00 -3.500000000E-01 2.337377629E-02
 3.500000000E+00 -3.000000000E-01 2.470829066E-02
 3.500000000E+00 -2.500000000E-01 2.577950945E-02
 3.500000000E+00 -2.000000000E-01 2.629094691E-02
 3.500000000E+00 -1.500000000E-01 2.594848376E-02
 3.500000000E+00 -1.000000000E-01 2.530984380E-02
 3.500000000E+00 -5.000000000E-02 2.492239417E-02
 3.500000000E+00 -2.752242878E-12 2.506810508E-02
 3.500000000E+00 5.000000000E-02 2.551474978E-02
 3.500000000E+00 1.000000000E-01 2.584464054E-02
 3.500000000E+00 1.500000000E-01 2.556509477E-02
 3.500000000E+00 2.000000000E-01 2.454313964E-02
 3.500000000E+00 2.500000000E-01 2.308449902E-02
 3.500000000E+00 3.000000000E-01 2.152427838E-02
 3.500000000E+00 3.500000000E-01 1.994628480E-02
 3.500000000E+00 4.000000000E-01 1.836917394E-02
 3.500000000E+00 4.500000000E-01 1.670210173E-02
 3.500000000E+00 5.000000000E-01 1.502829025E-02
 3.500000000E+00 5.500000000E-01 1.372861162E-02
 3.500000000E+00 6.000000000E-01 1.301796956E-02
 3.500000000E+00 6.500000000E-01 1.283089488E-02
 3.500000000E+00 7.000000000E-01 1.205212794E-02
 3.500000000E+00 7.500000000E-01 8.707805812E-03
 3.500000000E+00 8.000000000E-01 1.513979269E-03
 3.500000000E+00 8.500000000E-01 -9.769054687E-03
 3.500000000E+00 9.000000000E-01 -2.383311853E-02
 3.500000000E+00 9.500000000E-01 -3.799115697E-02
 3.450000000E+00 1.000000000E+00 -1.752368729E-02
 3.400000000E+00 1.000000000E+00 -7.124849163E-03
 3.350000000E+00 1.000000000E+00 -3.129220172E-03
 3.300000000E+00 1.000000000E+00 -2.351535628E-03
 3.250000000E+00 1.000000000E+00 -2.273429052E-03
 3.200000000E+00 1.000000000E+00 -2.486849548E-03
 3.150000000E+00 1.000000000E+00 -3.236400633E-03
 3.100000000E+00 1.000000000E+00 -3.965003246E-03
 3.050000000E+00 1.000000000E+00 -4.842840729E-03
 3.000000000E+00 1.000000000E+00 -5.837906288E-03
 2.950000000E+00 1.000000000E+00 -6.824672732E-03
 2.900000000E+00 1.000000000E+00 -8.044697918E-03
 2.850000000E+00 1.000000000E+00 -9.036221811E-03
 2.800000000E+00 1.000000000E+00 -1.044225096E-02
 2.750000000E+00 1.000000000E+00 -1.141152131E-02
 2.700000000E+00 1.000000000E+00 -1.283007689E-02
 2.650000000E+00 1.000000000E+00 -1.403073368E-02
 2.600000000E+00 1.000000000E+00 -1.539352789E-02
 2.550000000E+00 1.000000000E+00 -1.693378476E-02
 2.500000000E+00 1.000000000E+00 -1.835976630E-02
 2.450000000E+00 1.000000000E+00 -1.977793852E-02
 2.400000000E+00 1.000000000E+00 -2.178192883E-02
 2.350000000E+00 1.000000000E+00 -2.299676241E-02
 2.300000000E+00 1.000000000E+00 -2.511590694E-02
 2.250000000E+00 1.000000000E+00 -2.716052609E-02
 2.200000000E+00 1.000000000E+00 -2.910774010E-02
 2.150000000E+00 1.000000000E+00 -3.121785903E-02
 2.100000000E+00 1.000000000E+00 -3.339145996E-02
 2.050000000E+00 1.000000000E+00 -3.607489741E-02
 2.000000000E+00 1.000000000E+00 -3.856937152E-02
 1.950000000E+00 1.000000000E+00 -4.150074207E-02
 1.900000000E+00 1.000000000E+00 -4.434284435E-02
 1.850000000E+00 1.000000000E+00 -4.780867152E-02
 1.800000000E+00 1.000000000E+00 -5.134197508E-02
 1.750000000E+00 1.000000000E+00 -5.551194328E-02
 1.700000000E+00 1.000000000E+00 -5.940498467E-02
 1.650000000E+00 1.000000000E+00 -6.447089473E-02
 1.600000000E+00 1.000000000E+00 -6.921139614E-02
 1.550000000E+00 1.000000000E+00 -7.466261949E-02
 1.500000000E+00 1.000000000E+00 -8.067732015E-02
 1.450000000E+00 1.000000000E+00 -8.708051788E-02
 1.400000000E+00 1.000000000E+00 -9.418487162E-02
 1.350000000E+00 1.000000000E+00 -1.018256736E-01
 1.300000000E+00 1.000000000E+00 -1.094746600E-01
 1.250000000E+00 1.000000000E+00 -1.178395767E-01
 1.200000000E+00 1.000000000E+00 -1.264736336E-01
 1.150000000E+00 1.000000000E+00 -1.352037595E-01
 1.100000000E+00 1.000000000E+00 -1.440959291E-01
 1.050000000E+00 1.000000000E+00 -1.519707542E-01
 1.000000000E+00 1.000000000E+00 -1.598488489E-01
 9.500000000E-01 1.000000000E+00 -1.659052968E-01
 9.000000000E-01 1.000000000E+00 -1.710624442E-01
 8.500000000E-01 1.000000000E+00 -1.741131802E-01
 8.000000000E-01 1.000000000E+00 -1.734802766E-01
 7.500000000E-01 1.000000000E+00 -1.727502321E-01
 7.000000000E-01 1.000000000E+00 -1.652354301E-01
 6.500000000E-01 1.000000000E+00 -1.603591395E-01
 6.000000000E-01 1.000000000E+00 -1.480033393E-01
 5.500000000E-01 1.000000000E+00 -1.367406875E-01
 5.000000000E-01 1.000000000E+00 -1.216594217E-01
 4.500000000E-01 1.000000000E+00 -1.064335019E-01
 4.000000000E-01 1.000000000E+00 -8.976934180E-02
 3.500000000E-01 1.000000000E+00 -7.250569811E-02
 3.000000000E-01 1.000000000E+00 -5.599548182E-02
 2.500000000E-01 1.000000000E+00 -3.936604660E-02
 2.000000000E-01 1.000000000E+00 -2.384788783E-02
 1.500000000E-01 1.000000000E+00 -9.634319409E-03
 1.000000000E-01 1.000000000E+00 3.158708100E-03
 5.000000000E-02 1.000000000E+00 1.429580071E-02
 1.733724275E-12 1.000000000E+00 2.368667465E-02
 -5.000000000E-02 1.000000000E+00 3.115975712E-02
 -1.000000000E-01 1.000000000E+00 3.655820346E-02
 -1.500000000E-01 1.000000000E+00 4.011907423E-02
 -2.000000000E-01 1.000000000E+00 4.178101947E-02
 -2.500000000E-01 1.000000000E+00 4.169027747E-02
 -3.000000000E-01 1.000000000E+00 3.981974186E-02
 -3.500000000E-01 1.000000000E+00 3.623050001E-02
 -4.000000000E-01 1.000000000E+00 3.019201321E-02
 -4.500000000E-01 1.000000000E+00 2.032478644E-02
 1.974636958E+00 -9.569106902E-01 3.435828743E-02
 1.971463578E+00 9.515887991E-01 -3.827128440E-02
 9.171718844E-01 -4.628369485E-03 3.856907097E-01
 8.358356538E-01 -1.084713146E-02 3.107209350E-01
 7.566407207E-01 -1.951951462E-02 2.038853350E-01
 6.861142734E-01 -2.948890286E-02 9.827566330E-02
 6.173397739E-01 -3.997639529E-02 -1.908858766E-02
 5.457252771E-01 -4.885265333E-02 -1.895805172E-01
 4.810527012E-01 -5.616941191E-02 -3.778458924E-01
 4.267540459E-01 -6.090383431E-02 -5.376588828E-01