TITLE     = "Visualization of the solution"
VARIABLES = "x"
"y"
"Pressure_Coefficient"
ZONE T="Zone"
 STRANDID=0, SOLUTIONTIME=0
 Nodes=11812, Elements=23043, ZONETYPE=FEQuadrilateral
 DATAPACKING=POINT
 DT=(DOUBLE DOUBLE DOUBLE )
 9.996526241E-01 5.283328355E-04 3.166183237E-01
 9.862449169E-01 2.971655456E-03 2.926304504E-01
 9.739283919E-01 5.129183643E-03 2.229851988E-01
 9.601511955E-01 7.640911732E-03 1.462029191E-01
 9.470881224E-01 9.980732575E-03 8.187032445E-02
 9.345260859E-01 1.207789686E-02 6.865194082E-02
 9.236891866E-01 1.397729572E-02 1.884957098E-02
 9.114006758E-01 1.605973206E-02 -1.655758803E-02
 9.001439810E-01 1.797685213E-02 -7.541503705E-02
 8.876950145E-01 1.991650462E-02 -9.678280629E-02
 8.751718998E-01 2.177151106E-02 -1.090540307E-01
 8.632781506E-01 2.351645567E-02 -1.400521351E-01
 8.506941199E-01 2.525727823E-02 -1.539079810E-01
 8.386741281E-01 2.685113065E-02 -1.596020020E-01
 8.267917633E-01 2.840609290E-02 -1.732789232E-01
 8.138235807E-01 3.006304614E-02 -1.869560119E-01
 8.007589579E-01 3.170258924E-02 -2.044277028E-01
 7.885627151E-01 3.318835422E-02 -2.137704969E-01
 7.757729292E-01 3.473200649E-02 -2.325334625E-01
 7.634237409E-01 3.620053083E-02 -2.553057039E-01
 7.499498725E-01 3.771253303E-02 -2.553355812E-01
 7.362701297E-01 3.927062824E-02 -2.863926538E-01
 7.251229882E-01 4.049009457E-02 -3.009557573E-01
 7.133411169E-01 4.172274098E-02 -3.035955734E-01
 7.015865445E-01 4.297002032E-02 -3.315059992E-01
 6.879016161E-01 4.434547946E-02 -3.457054335E-01
 6.747516990E-01 4.563813284E-02 -3.699859552E-01
 6.638767123E-01 4.665596411E-02 -3.814232851E-01
 6.521071196E-01 4.773268104E-02 -4.036586390E-01
 6.410203576E-01 4.869691283E-02 -4.160035676E-01
 6.289409399E-01 4.970289767E-02 -4.325472651E-01
 6.175635457E-01 5.061644688E-02 -4.535962820E-01
 6.066281199E-01 5.143524334E-02 -4.652004563E-01
 5.943379402E-01 5.232086033E-02 -4.849490742E-01
 5.823095441E-01 5.310796946E-02 -4.919505235E-01
 5.688030124E-01 5.396474525E-02 -5.230517588E-01
 5.559284687E-01 5.467939004E-02 -5.313977820E-01
 5.431344509E-01 5.533299223E-02 -5.473140958E-01
 5.317113400E-01 5.584910512E-02 -5.515670563E-01
 5.196942687E-01 5.634060875E-02 -5.694086050E-01
 5.068382025E-01 5.680219829E-02 -5.841295179E-01
 4.957542419E-01 5.710793287E-02 -5.745468340E-01
 4.827818871E-01 5.743183196E-02 -5.818812205E-01
 4.698108733E-01 5.765243247E-02 -5.717767388E-01
 4.559215307E-01 5.784140155E-02 -5.800393155E-01
 4.420563579E-01 5.792682990E-02 -5.720806422E-01
 4.291318357E-01 5.794097856E-02 -5.667147944E-01
 4.159447551E-01 5.788135156E-02 -5.648755524E-01
 4.037908614E-01 5.776889250E-02 -5.591321113E-01
 3.910235167E-01 5.756549537E-02 -5.465828886E-01
 3.791198730E-01 5.733188987E-02 -5.433341689E-01
 3.679149449E-01 5.703890324E-02 -5.235333366E-01
 3.549708128E-01 5.666044354E-02 -5.217015345E-01
 3.430434465E-01 5.624381453E-02 -5.124738726E-01
 3.309878707E-01 5.576278642E-02 -5.016390068E-01
 3.207304478E-01 5.529683456E-02 -4.860153404E-01
 3.089344800E-01 5.473263934E-02 -4.824569389E-01
 2.961918712E-01 5.404015258E-02 -4.674564271E-01
 2.824624777E-01 5.323151872E-02 -4.585800284E-01
 2.696592510E-01 5.238385499E-02 -4.369477638E-01
 2.577945590E-01 5.156091973E-02 -4.297838338E-01
 2.451788783E-01 5.061588436E-02 -4.174275645E-01
 2.320468277E-01 4.955740646E-02 -4.046157657E-01
 2.196843177E-01 4.849532992E-02 -3.936254741E-01
 2.077493072E-01 4.739519954E-02 -3.780373003E-01
 1.962123662E-01 4.627444968E-02 -3.643503842E-01
 1.837139726E-01 4.499625042E-02 -3.552578553E-01
 1.717009246E-01 4.368840903E-02 -3.425997696E-01
 1.597091705E-01 4.229887202E-02 -3.249487789E-01
 1.476962566E-01 4.083014280E-02 -3.108673118E-01
 1.367030442E-01 3.942605108E-02 -3.038734665E-01
 1.253534108E-01 3.787400573E-02 -2.840757070E-01
 1.138695255E-01 3.622773662E-02 -2.755126163E-01
 1.029867530E-01 3.457010537E-02 -2.583457985E-01
 9.304628521E-02 3.296196833E-02 -2.480190143E-01
 8.194883913E-02 3.105148301E-02 -2.318224359E-01
 7.033947110E-02 2.890130132E-02 -2.138408118E-01
 6.064444408E-02 2.695641853E-02 -1.970785780E-01
 5.128126219E-02 2.492986806E-02 -1.804217335E-01
 4.241133854E-02 2.283230238E-02 -1.643465784E-01
 3.486861289E-02 2.087473311E-02 -1.449435112E-01
 2.839158103E-02 1.901310310E-02 -1.205202976E-01
 2.289503813E-02 1.726659946E-02 -1.013738147E-01
 1.893804781E-02 1.588655263E-02 -7.877948279E-02
 1.527910214E-02 1.447606552E-02 -5.587455990E-02
 1.261914056E-02 1.334704179E-02 -2.094899573E-02
 1.030698046E-02 1.226833649E-02 4.586525164E-03
 8.619874716E-03 1.141580380E-02 3.476771236E-02
 7.058173418E-03 1.054934319E-02 6.324006899E-02
 5.581703968E-03 9.656410664E-03 1.357512212E-01
 3.620835254E-03 8.301107213E-03 2.234682304E-01
 1.991649857E-03 6.947296206E-03 3.145977168E-01
 6.052438403E-04 5.517482758E-03 5.302530963E-01
 -7.321501616E-04 3.601645818E-03 7.737222095E-01
 -1.404065173E-03 2.040795283E-03 9.448490651E-01
 -1.698786626E-03 7.643220597E-04 1.061254506E+00
 -1.763079898E-03 -8.152034716E-04 1.193459702E+00
 -1.428365358E-03 -2.759715309E-03 1.150508166E+00
 -5.437264917E-04 -4.956753924E-03 1.083362220E+00
 9.521519532E-04 -7.307677064E-03 8.963503816E-01
 3.089245642E-03 -9.773645550E-03 7.441646771E-01
 5.064541940E-03 -1.162461005E-02 5.958691730E-01
 7.394087967E-03 -1.350549981E-02 4.972048203E-01
 9.104675613E-03 -1.474184450E-02 4.068213669E-01
 1.121915504E-02 -1.614480093E-02 3.516210551E-01
 1.370545197E-02 -1.765781268E-02 2.779319984E-01
 1.704972237E-02 -1.950710639E-02 2.061518894E-01
 2.034442499E-02 -2.116836235E-02 1.315540100E-01
 2.447061799E-02 -2.306958660E-02 7.131273545E-02
 2.996978909E-02 -2.536168136E-02 8.261639712E-03
 3.578848392E-02 -2.755039558E-02 -5.560733131E-02
 4.303979874E-02 -3.002578393E-02 -1.057029717E-01
 5.077739805E-02 -3.241024539E-02 -1.549625275E-01
 5.966201425E-02 -3.489553556E-02 -1.948701142E-01
 6.861124933E-02 -3.717664257E-02 -2.289703786E-01
 7.927235216E-02 -3.966269642E-02 -2.625038459E-01
 8.927259594E-02 -4.180605710E-02 -2.904193879E-01
 1.001108810E-01 -4.396431148E-02 -3.177323922E-01
 1.114316359E-01 -4.604633898E-02 -3.424215654E-01
 1.232517958E-01 -4.805869237E-02 -3.627308196E-01
 1.350383759E-01 -4.993606359E-02 -3.899510486E-01
 1.457632780E-01 -5.152030289E-02 -4.102144198E-01
 1.570224464E-01 -5.307887867E-02 -4.249556405E-01
 1.689965576E-01 -5.463486537E-02 -4.477418538E-01
 1.807804406E-01 -5.606183410E-02 -4.709135910E-01
 1.925664842E-01 -5.739386752E-02 -4.962345017E-01
 2.030364275E-01 -5.848207697E-02 -5.115632010E-01
 2.143854648E-01 -5.959422514E-02 -5.352887270E-01
 2.265433818E-01 -6.067783013E-02 -5.561269665E-01
 2.387165874E-01 -6.167459488E-02 -5.814897842E-01
 2.506651580E-01 -6.254845113E-02 -6.030968485E-01
 2.632713914E-01 -6.337878108E-02 -6.304047818E-01
 2.744579017E-01 -6.401842833E-02 -6.629272289E-01
 2.869000435E-01 -6.462652981E-02 -6.822666373E-01
 2.991967499E-01 -6.512276083E-02 -7.071804734E-01
 3.118263483E-01 -6.552188843E-02 -7.446597621E-01
 3.232861161E-01 -6.575861573E-02 -7.765633830E-01
 3.353517056E-01 -6.590951979E-02 -7.990059284E-01
 3.456436694E-01 -6.594239175E-02 -8.298942107E-01
 3.567871749E-01 -6.587847322E-02 -8.448516424E-01
 3.677897155E-01 -6.572630256E-02 -8.711546678E-01
 3.783846200E-01 -6.546215713E-02 -8.954768226E-01
 3.897580802E-01 -6.508041918E-02 -9.014851220E-01
 4.021324813E-01 -6.455568224E-02 -9.489059484E-01
 4.139762521E-01 -6.389274448E-02 -9.143314633E-01
 4.268349707E-01 -6.306520104E-02 -5.611388057E-01
 4.390863180E-01 -6.215746328E-02 -5.188080266E-01
 4.518315792E-01 -6.105548888E-02 -5.418908352E-01
 4.641621709E-01 -5.990336463E-02 -5.108957581E-01
 4.767503440E-01 -5.861235783E-02 -4.745824512E-01
 4.885035753E-01 -5.729335174E-02 -4.271663410E-01
 5.006524324E-01 -5.586460605E-02 -3.890337961E-01
 5.139156580E-01 -5.421198532E-02 -3.463332704E-01
 5.274367332E-01 -5.245514959E-02 -3.065699417E-01
 5.403555036E-01 -5.070780590E-02 -2.696498495E-01
 5.542239547E-01 -4.878911376E-02 -2.406144164E-01
 5.667971373E-01 -4.694206640E-02 -1.898530866E-01
 5.801476240E-01 -4.500025138E-02 -1.620133293E-01
 5.930177569E-01 -4.310255498E-02 -1.350802974E-01
 6.057441831E-01 -4.119988903E-02 -1.081405803E-01
 6.188185215E-01 -3.921321034E-02 -7.615809143E-02
 6.328725815E-01 -3.707829118E-02 -4.826628613E-02
 6.465036869E-01 -3.501515836E-02 -2.554363163E-02
 6.600396037E-01 -3.296128660E-02 -1.856687681E-03
 6.736627817E-01 -3.089349717E-02 2.115410544E-02
 6.863732338E-01 -2.896594815E-02 4.290167167E-02
 6.989101171E-01 -2.707546949E-02 6.267303900E-02
 7.137045860E-01 -2.483638376E-02 9.091340463E-02
 7.267117500E-01 -2.290263399E-02 1.120860122E-01
 7.382342815E-01 -2.122104354E-02 1.290736909E-01
 7.512344718E-01 -1.937947422E-02 1.378145554E-01
 7.638725638E-01 -1.754118688E-02 1.690437335E-01
 7.770693302E-01 -1.571055688E-02 1.831819896E-01
 7.894240618E-01 -1.404257212E-02 1.969274561E-01
 8.018550873E-01 -1.235433016E-02 2.238586132E-01
 8.133677244E-01 -1.089984644E-02 2.303877721E-01
 8.246939778E-01 -9.474423714E-03 2.494967309E-01
 8.368999362E-01 -7.995259948E-03 2.665861419E-01
 8.490855694E-01 -6.584102754E-03 2.845091549E-01
 8.610893488E-01 -5.276202224E-03 3.010084919E-01
 8.724101782E-01 -4.125406966E-03 3.172387702E-01
 8.843304515E-01 -3.039594740E-03 3.266858037E-01
 8.973894119E-01 -1.975706313E-03 3.372243257E-01
 9.075608850E-01 -1.251038047E-03 3.460793654E-01
 9.178451896E-01 -6.143118953E-04 3.533600400E-01
 9.280004501E-01 -1.113654362E-04 3.524087565E-01
 9.375839829E-01 2.759157505E-04 3.540334915E-01
 9.502155185E-01 6.367909955E-04 3.512374338E-01
 9.640993476E-01 8.469786844E-04 3.444150755E-01
 9.781357646E-01 8.733110153E-04 3.371103632E-01
 9.901955128E-01 7.413687999E-04 3.551473368E-01
 -5.000000000E-01 -1.000000000E+00 1.408197566E-02
 3.500000000E+00 -1.000000000E+00 2.297343922E-03
 3.500000000E+00 1.000000000E+00 -1.356779877E-02
 -5.000000000E-01 1.000000000E+00 1.381563877E-02
 9.929487705E-01 1.749994146E-03 3.908652172E-01
 9.800866544E-01 4.050419549E-03 2.575350373E-01
 9.670397937E-01 6.385047687E-03 1.809100084E-01
 9.536196589E-01 8.810822153E-03 1.074768170E-01
 9.408071041E-01 1.102931472E-02 8.063087015E-02
 9.291076362E-01 1.302759629E-02 4.048048807E-02
 9.175449312E-01 1.501851389E-02 4.212334290E-03
 9.057723284E-01 1.701829210E-02 -5.282302805E-02
 8.939194977E-01 1.894667838E-02 -8.727972969E-02
 8.814334571E-01 2.084400784E-02 -9.928436295E-02
 8.692250252E-01 2.264398336E-02 -1.273885620E-01
 8.569861352E-01 2.438686695E-02 -1.479289532E-01
 8.446841240E-01 2.605420444E-02 -1.549984346E-01
 8.327329457E-01 2.762861177E-02 -1.666677110E-01
 8.203076720E-01 2.923456952E-02 -1.794758011E-01
 8.072912693E-01 3.088281769E-02 -1.965560865E-01
 7.946608365E-01 3.244547173E-02 -2.083820608E-01
 7.821678221E-01 3.396018036E-02 -2.212227266E-01
 7.695983350E-01 3.546626866E-02 -2.489938827E-01
 7.566868067E-01 3.695653193E-02 -2.508591603E-01
 7.431100011E-01 3.849158064E-02 -2.714004189E-01
 7.306965590E-01 3.988036141E-02 -2.975264032E-01
 7.192320526E-01 4.110641778E-02 -2.970110880E-01
 7.074638307E-01 4.234638065E-02 -3.211670410E-01
 6.947440803E-01 4.365774989E-02 -3.366674371E-01
 6.813266575E-01 4.499180615E-02 -3.593971231E-01
 6.693142056E-01 4.614704847E-02 -3.743280826E-01
 6.579919159E-01 4.719432257E-02 -3.933153641E-01
 6.465637386E-01 4.821479693E-02 -4.106273012E-01
 6.349806488E-01 4.919990525E-02 -4.222061978E-01
 6.232522428E-01 5.015967228E-02 -4.457190852E-01
 6.120958328E-01 5.102584511E-02 -4.567811138E-01
 6.004830301E-01 5.187805183E-02 -4.791315592E-01
 5.883237422E-01 5.271441489E-02 -4.832523929E-01
 5.755562782E-01 5.353635736E-02 -5.115530806E-01
 5.623657405E-01 5.432206765E-02 -5.257371127E-01
 5.495314598E-01 5.500619113E-02 -5.404322277E-01
 5.374228954E-01 5.559104867E-02 -5.489319119E-01
 5.257028043E-01 5.609485693E-02 -5.585159119E-01
 5.132662356E-01 5.657140352E-02 -5.823385783E-01
 5.012962222E-01 5.695506558E-02 -5.743398918E-01
 4.892680645E-01 5.726988241E-02 -5.835351140E-01
 4.762963802E-01 5.754213221E-02 -5.722989366E-01
 4.628662020E-01 5.774691701E-02 -5.793410020E-01
 4.489889443E-01 5.788411573E-02 -5.749213476E-01
 4.355940968E-01 5.793390423E-02 -5.701277888E-01
 4.225382954E-01 5.791116506E-02 -5.637288114E-01
 4.098678082E-01 5.782512203E-02 -5.655761876E-01
 3.974071890E-01 5.766719393E-02 -5.494630855E-01
 3.850716949E-01 5.744869262E-02 -5.478509689E-01
 3.735174090E-01 5.718539655E-02 -5.314351265E-01
 3.614428788E-01 5.684967339E-02 -5.230712358E-01
 3.490071297E-01 5.645212904E-02 -5.172512653E-01
 3.370156586E-01 5.600330047E-02 -5.081821299E-01
 3.258591592E-01 5.552981049E-02 -4.907520019E-01
 3.148324639E-01 5.501473695E-02 -4.874706955E-01
 3.025631756E-01 5.438639596E-02 -4.734304313E-01
 2.893271744E-01 5.363583565E-02 -4.658185640E-01
 2.760608643E-01 5.280768685E-02 -4.446493634E-01
 2.637269050E-01 5.197238736E-02 -4.341620706E-01
 2.514867187E-01 5.108840205E-02 -4.245147434E-01
 2.386128530E-01 5.008664541E-02 -4.100546486E-01
 2.258655727E-01 4.902636819E-02 -4.000345115E-01
 2.137168124E-01 4.794526473E-02 -3.851206139E-01
 2.019808367E-01 4.683482461E-02 -3.710799230E-01
 1.899631694E-01 4.563535005E-02 -3.600683794E-01
 1.777074486E-01 4.434232973E-02 -3.497075673E-01
 1.657050475E-01 4.299364053E-02 -3.339804515E-01
 1.537027135E-01 4.156450741E-02 -3.156279262E-01
 1.421996504E-01 4.012809694E-02 -3.099813970E-01
 1.310282275E-01 3.865002841E-02 -2.929932775E-01
 1.196114682E-01 3.705087118E-02 -2.794134920E-01
 1.084281392E-01 3.539892100E-02 -2.702154093E-01
 8.749756217E-02 3.200672567E-02 -2.411361233E-01
 7.614415511E-02 2.997639216E-02 -2.255160900E-01
 7.394180074E-02 -3.841966949E-02 -2.492146722E-01
 8.427247405E-02 -4.073437676E-02 -2.791355334E-01
 9.469173849E-02 -4.288518429E-02 -3.026416575E-01
 1.057712585E-01 -4.500532523E-02 -3.312255936E-01
 1.173417158E-01 -4.705251567E-02 -3.529980688E-01
 1.291450858E-01 -4.899737798E-02 -3.753898176E-01
 1.404008269E-01 -5.072818324E-02 -4.034351588E-01
 1.513928622E-01 -5.229959078E-02 -4.166004094E-01
 1.630095020E-01 -5.385687202E-02 -4.351136665E-01
 1.748884991E-01 -5.534834974E-02 -4.599575103E-01
 1.866734624E-01 -5.672785081E-02 -4.830055024E-01
 1.978014559E-01 -5.793797225E-02 -5.071692091E-01
 2.087109461E-01 -5.903815106E-02 -5.200957615E-01
 2.204644233E-01 -6.013602763E-02 -5.470627169E-01
 2.326299846E-01 -6.117621250E-02 -5.671539743E-01
 2.446908727E-01 -6.211152300E-02 -5.940117864E-01
 2.569682747E-01 -6.296361610E-02 -6.139485468E-01
 2.688646466E-01 -6.369860470E-02 -6.489166629E-01
 2.806789726E-01 -6.432247907E-02 -6.723968371E-01
 2.930483967E-01 -6.487464532E-02 -6.937818976E-01
 3.055115491E-01 -6.532232463E-02 -7.232448791E-01
 3.175562322E-01 -6.564025208E-02 -7.652214694E-01
 3.293189108E-01 -6.583406776E-02 -7.857352388E-01
 3.404976875E-01 -6.592595577E-02 -8.160390607E-01
 3.512154222E-01 -6.591043249E-02 -8.386344146E-01
 3.622884452E-01 -6.580238789E-02 -8.542545007E-01
 3.730871677E-01 -6.559422985E-02 -8.876656231E-01
 3.840713501E-01 -6.527128816E-02 -8.977887021E-01
 3.959452808E-01 -6.481805071E-02 -9.151739837E-01
 4.080543667E-01 -6.422421336E-02 -9.684521702E-01
 4.204056114E-01 -6.347897276E-02 -7.417142086E-01
 4.329606444E-01 -6.261133216E-02 -5.005105971E-01
 4.454589486E-01 -6.160647608E-02 -5.441500577E-01
 4.579968750E-01 -6.047942676E-02 -5.267372094E-01
 4.704562575E-01 -5.925786123E-02 -4.935076769E-01
 4.826269597E-01 -5.795285478E-02 -4.539249067E-01
 4.945780039E-01 -5.657897890E-02 -4.056865260E-01
 5.072840452E-01 -5.503829569E-02 -3.689862322E-01
 5.206761956E-01 -5.333356746E-02 -3.255773403E-01
 5.338961184E-01 -5.158147775E-02 -2.886641517E-01
 5.472897291E-01 -4.974845983E-02 -2.534814144E-01
 5.605105460E-01 -4.786559008E-02 -2.199828478E-01
 5.734723806E-01 -4.597115889E-02 -1.718737163E-01
 5.865826905E-01 -4.405140318E-02 -1.490842308E-01
 5.993809700E-01 -4.215122201E-02 -1.217416614E-01
 6.122813523E-01 -4.020654969E-02 -9.299055641E-02
 6.258455515E-01 -3.814575076E-02 -6.161101980E-02
 6.396881342E-01 -3.604672477E-02 -3.632517960E-02
 6.532716453E-01 -3.398822248E-02 -1.372483137E-02
 6.668511927E-01 -3.192739189E-02 9.630534153E-03
 6.800180078E-01 -2.992972266E-02 3.214567935E-02
 6.926416755E-01 -2.802070882E-02 5.292876254E-02
 7.063073516E-01 -2.595592663E-02 7.533308605E-02
 7.202081680E-01 -2.386950888E-02 1.025325105E-01
 7.324730158E-01 -2.206183877E-02 1.212814735E-01
 7.447343767E-01 -2.030025888E-02 1.345104520E-01
 7.575535178E-01 -1.846033055E-02 1.500835712E-01
 7.704709470E-01 -1.662587188E-02 1.778916421E-01
 7.832466960E-01 -1.487656450E-02 1.904951665E-01
 7.956395745E-01 -1.319845114E-02 2.077375946E-01
 8.076114058E-01 -1.162708830E-02 2.303938036E-01
 8.190308511E-01 -1.018713508E-02 2.379688462E-01
 8.307969570E-01 -8.734841831E-03 2.574982946E-01
 8.429927528E-01 -7.289681351E-03 2.752735328E-01
 8.550874591E-01 -5.930152489E-03 2.926367924E-01
 8.667497635E-01 -4.700804595E-03 3.088800608E-01
 8.783703148E-01 -3.582500853E-03 3.222565367E-01
 8.908599317E-01 -2.507650526E-03 3.314096623E-01
 9.024751484E-01 -1.613372180E-03 3.437023612E-01
 9.127030373E-01 -9.326749714E-04 3.492062365E-01
 9.229228199E-01 -3.628386658E-04 3.549720857E-01
 9.438997507E-01 4.563533730E-04 3.529502174E-01
 9.571574330E-01 7.418848400E-04 3.477488467E-01
 9.711175561E-01 8.601448499E-04 3.399134030E-01
 9.841656387E-01 8.073399076E-04 3.230266045E-01
 -5.000000000E-01 9.500000000E-01 2.265173780E-02
 -5.000000000E-01 9.000000000E-01 3.435278813E-02
 -5.000000000E-01 8.500000000E-01 4.301471436E-02
 -5.000000000E-01 8.000000000E-01 5.084359333E-02
 -5.000000000E-01 7.500000000E-01 5.828775556E-02
 -5.000000000E-01 7.000000000E-01 6.562538343E-02
 -5.000000000E-01 6.500000000E-01 7.313873270E-02
 -5.000000000E-01 6.000000000E-01 8.073426242E-02
 -5.000000000E-01 5.500000000E-01 8.866533525E-02
 -5.000000000E-01 5.000000000E-01 9.655825865E-02
 -5.000000000E-01 4.500000000E-01 1.048391210E-01
 -5.000000000E-01 4.000000000E-01 1.130239704E-01
 -5.000000000E-01 3.500000000E-01 1.211964578E-01
 -5.000000000E-01 3.000000000E-01 1.290261835E-01
 -5.000000000E-01 2.500000000E-01 1.363682786E-01
 -5.000000000E-01 2.000000000E-01 1.428127703E-01
 -5.000000000E-01 1.500000000E-01 1.484957927E-01
 -5.000000000E-01 1.000000000E-01 1.527302404E-01
 -5.000000000E-01 5.000000000E-02 1.554552429E-01
 -5.000000000E-01 2.752242878E-12 1.566256317E-01
 -5.000000000E-01 -5.000000000E-02 1.559664293E-01
 -5.000000000E-01 -1.000000000E-01 1.537142853E-01
 -5.000000000E-01 -1.500000000E-01 1.498601441E-01
 -5.000000000E-01 -2.000000000E-01 1.446244535E-01
 -5.000000000E-01 -2.500000000E-01 1.383011469E-01
 -5.000000000E-01 -3.000000000E-01 1.311148779E-01
 -5.000000000E-01 -3.500000000E-01 1.232416998E-01
 -5.000000000E-01 -4.000000000E-01 1.151603754E-01
 -5.000000000E-01 -4.500000000E-01 1.067902674E-01
 -5.000000000E-01 -5.000000000E-01 9.847806955E-02
 -5.000000000E-01 -5.500000000E-01 9.030049104E-02
 -5.000000000E-01 -6.000000000E-01 8.229779437E-02
 -5.000000000E-01 -6.500000000E-01 7.449487344E-02
 -5.000000000E-01 -7.000000000E-01 6.683732500E-02
 -5.000000000E-01 -7.500000000E-01 5.935583698E-02
 -5.000000000E-01 -8.000000000E-01 5.176530070E-02
 -5.000000000E-01 -8.500000000E-01 4.383789166E-02
 -5.000000000E-01 -9.000000000E-01 3.481575588E-02
 -5.000000000E-01 -9.500000000E-01 2.298282024E-02
 -4.500000000E-01 -1.000000000E+00 1.900486637E-02
 -4.000000000E-01 -1.000000000E+00 2.815359968E-02
 -3.500000000E-01 -1.000000000E+00 3.383464440E-02
 -3.000000000E-01 -1.000000000E+00 3.732628416E-02
 -2.500000000E-01 -1.000000000E+00 3.915591725E-02
 -2.000000000E-01 -1.000000000E+00 3.938851351E-02
 -1.500000000E-01 -1.000000000E+00 3.803193409E-02
 -1.000000000E-01 -1.000000000E+00 3.498989355E-02
 -5.000000000E-02 -1.000000000E+00 3.032727984E-02
 -9.424683256E-13 -1.000000000E+00 2.401250401E-02
 5.000000000E-02 -1.000000000E+00 1.617742199E-02
 1.000000000E-01 -1.000000000E+00 7.036228875E-03
 1.500000000E-01 -1.000000000E+00 -3.117506559E-03
 2.000000000E-01 -1.000000000E+00 -1.390759681E-02
 2.500000000E-01 -1.000000000E+00 -2.467913052E-02
 3.000000000E-01 -1.000000000E+00 -3.526148862E-02
 3.500000000E-01 -1.000000000E+00 -4.495377837E-02
 4.000000000E-01 -1.000000000E+00 -5.387971645E-02
 4.500000000E-01 -1.000000000E+00 -6.068108925E-02
 5.000000000E-01 -1.000000000E+00 -6.560169150E-02
 5.500000000E-01 -1.000000000E+00 -6.822743031E-02
 6.000000000E-01 -1.000000000E+00 -6.872153149E-02
 6.500000000E-01 -1.000000000E+00 -6.707804400E-02
 7.000000000E-01 -1.000000000E+00 -6.388270658E-02
 7.500000000E-01 -1.000000000E+00 -5.891223388E-02
 8.000000000E-01 -1.000000000E+00 -5.302783129E-02
 8.500000000E-01 -1.000000000E+00 -4.608461981E-02
 9.000000000E-01 -1.000000000E+00 -3.886657170E-02
 9.500000000E-01 -1.000000000E+00 -3.157330308E-02
 1.000000000E+00 -1.000000000E+00 -2.443107215E-02
 1.050000000E+00 -1.000000000E+00 -1.774007329E-02
 1.100000000E+00 -1.000000000E+00 -1.144903773E-02
 1.150000000E+00 -1.000000000E+00 -5.906545267E-03
 1.200000000E+00 -1.000000000E+00 -1.094678009E-03
 1.250000000E+00 -1.000000000E+00 3.100773077E-03
 1.300000000E+00 -1.000000000E+00 6.550643221E-03
 1.350000000E+00 -1.000000000E+00 9.524370690E-03
 1.400000000E+00 -1.000000000E+00 1.181903814E-02
 1.450000000E+00 -1.000000000E+00 1.369165947E-02
 1.500000000E+00 -1.000000000E+00 1.516305227E-02
 1.550000000E+00 -1.000000000E+00 1.613911607E-02
 1.600000000E+00 -1.000000000E+00 1.696921446E-02
 1.650000000E+00 -1.000000000E+00 1.748049568E-02
 1.700000000E+00 -1.000000000E+00 1.775383455E-02
 1.750000000E+00 -1.000000000E+00 1.795060490E-02
 1.800000000E+00 -1.000000000E+00 1.792193888E-02
 1.850000000E+00 -1.000000000E+00 1.776960203E-02
 1.900000000E+00 -1.000000000E+00 1.762972783E-02
 1.950000000E+00 -1.000000000E+00 1.730708129E-02
 2.000000000E+00 -1.000000000E+00 1.705111481E-02
 2.050000000E+00 -1.000000000E+00 1.669861027E-02
 2.100000000E+00 -1.000000000E+00 1.638364448E-02
 2.150000000E+00 -1.000000000E+00 1.597792279E-02
 2.200000000E+00 -1.000000000E+00 1.560438053E-02
 2.250000000E+00 -1.000000000E+00 1.527362873E-02
 2.300000000E+00 -1.000000000E+00 1.480276813E-02
 2.350000000E+00 -1.000000000E+00 1.452749512E-02
 2.400000000E+00 -1.000000000E+00 1.419541960E-02
 2.450000000E+00 -1.000000000E+00 1.392555389E-02
 2.500000000E+00 -1.000000000E+00 1.363252984E-02
 2.550000000E+00 -1.000000000E+00 1.348413257E-02
 2.600000000E+00 -1.000000000E+00 1.308630231E-02
 2.650000000E+00 -1.000000000E+00 1.300233251E-02
 2.700000000E+00 -1.000000000E+00 1.275524565E-02
 2.750000000E+00 -1.000000000E+00 1.264171645E-02
 2.800000000E+00 -1.000000000E+00 1.257560403E-02
 2.850000000E+00 -1.000000000E+00 1.249868646E-02
 2.900000000E+00 -1.000000000E+00 1.241581919E-02
 2.950000000E+00 -1.000000000E+00 1.240060500E-02
 3.000000000E+00 -1.000000000E+00 1.240705125E-02
 3.050000000E+00 -1.000000000E+00 1.235637504E-02
 3.100000000E+00 -1.000000000E+00 1.234802791E-02
 3.150000000E+00 -1.000000000E+00 1.232119512E-02
 3.200000000E+00 -1.000000000E+00 1.222067313E-02
 3.250000000E+00 -1.000000000E+00 1.211823395E-02
 3.300000000E+00 -1.000000000E+00 1.175378903E-02
 3.350000000E+00 -1.000000000E+00 1.134527538E-02
 3.400000000E+00 -1.000000000E+00 1.006836023E-02
 3.450000000E+00 -1.000000000E+00 6.983426767E-03
 3.500000000E+00 -9.500000000E-01 5.105605176E-04
 3.500000000E+00 -9.000000000E-01 3.525578240E-03
 3.500000000E+00 -8.500000000E-01 6.560713858E-03
 3.500000000E+00 -8.000000000E-01 8.655322403E-03
 3.500000000E+00 -7.500000000E-01 1.009240048E-02
 3.500000000E+00 -7.000000000E-01 1.119085694E-02
 3.500000000E+00 -6.500000000E-01 1.227961569E-02
 3.500000000E+00 -6.000000000E-01 1.349922074E-02
 3.500000000E+00 -5.500000000E-01 1.486066756E-02
 3.500000000E+00 -5.000000000E-01 1.626065762E-02
 3.500000000E+00 -4.500000000E-01 1.768162119E-02
 3.500000000E+00 -4.000000000E-01 1.917203770E-02
 3.500000000E+00 -3.500000000E-01 2.061786047E-02
 3.500000000E+00 -3.000000000E-01 2.198663191E-02
 3.500000000E+00 -2.500000000E-01 2.319518184E-02
 3.500000000E+00 -2.000000000E-01 2.394765941E-02
 3.500000000E+00 -1.500000000E-01 2.401738291E-02
 3.500000000E+00 -1.000000000E-01 2.375226522E-02
 3.500000000E+00 -5.000000000E-02 2.347026975E-02
 3.500000000E+00 -2.752242878E-12 2.349728796E-02
 3.500000000E+00 5.000000000E-02 2.383183613E-02
 3.500000000E+00 1.000000000E-01 2.404978324E-02
 3.500000000E+00 1.500000000E-01 2.377185544E-02
 3.500000000E+00 2.000000000E-01 2.302675634E-02
 3.500000000E+00 2.500000000E-01 2.184461037E-02
 3.500000000E+00 3.000000000E-01 2.043206050E-02
 3.500000000E+00 3.500000000E-01 1.901715293E-02
 3.500000000E+00 4.000000000E-01 1.764411722E-02
 3.500000000E+00 4.500000000E-01 1.618111166E-02
 3.500000000E+00 5.000000000E-01 1.472608002E-02
 3.500000000E+00 5.500000000E-01 1.332681970E-02
 3.500000000E+00 6.000000000E-01 1.221420096E-02
 3.500000000E+00 6.500000000E-01 1.145304760E-02
 3.500000000E+00 7.000000000E-01 1.087228414E-02
 3.500000000E+00 7.500000000E-01 9.661564481E-03
 3.500000000E+00 8.000000000E-01 6.751286565E-03
 3.500000000E+00 8.500000000E-01 1.119063917E-03
 3.500000000E+00 9.000000000E-01 -6.825439994E-03
 3.500000000E+00 9.500000000E-01 -1.564092830E-02
 3.450000000E+00 1.000000000E+00 -4.487067169E-03
 3.400000000E+00 1.000000000E+00 1.378649902E-03
 3.350000000E+00 1.000000000E+00 3.080775999E-03
 3.300000000E+00 1.000000000E+00 3.135036792E-03
 3.250000000E+00 1.000000000E+00 3.194113770E-03
 3.200000000E+00 1.000000000E+00 2.528008695E-03
 3.150000000E+00 1.000000000E+00 2.082383855E-03
 3.100000000E+00 1.000000000E+00 1.506599182E-03
 3.050000000E+00 1.000000000E+00 9.300322683E-04
 3.000000000E+00 1.000000000E+00 9.319195893E-05
 2.950000000E+00 1.000000000E+00 -4.296079644E-04
 2.900000000E+00 1.000000000E+00 -1.511687588E-03
 2.850000000E+00 1.000000000E+00 -2.056988847E-03
 2.800000000E+00 1.000000000E+00 -2.904186227E-03
 2.750000000E+00 1.000000000E+00 -3.582685429E-03
 2.700000000E+00 1.000000000E+00 -4.356914544E-03
 2.650000000E+00 1.000000000E+00 -5.132705386E-03
 2.600000000E+00 1.000000000E+00 -6.066514543E-03
 2.550000000E+00 1.000000000E+00 -6.809753009E-03
 2.500000000E+00 1.000000000E+00 -7.707607375E-03
 2.450000000E+00 1.000000000E+00 -8.836848453E-03
 2.400000000E+00 1.000000000E+00 -9.491629704E-03
 2.350000000E+00 1.000000000E+00 -1.082260142E-02
 2.300000000E+00 1.000000000E+00 -1.166877411E-02
 2.250000000E+00 1.000000000E+00 -1.286617382E-02
 2.200000000E+00 1.000000000E+00 -1.395348638E-02
 2.150000000E+00 1.000000000E+00 -1.525967435E-02
 2.100000000E+00 1.000000000E+00 -1.668798332E-02
 2.050000000E+00 1.000000000E+00 -1.808484140E-02
 2.000000000E+00 1.000000000E+00 -1.978399150E-02
 1.950000000E+00 1.000000000E+00 -2.142326056E-02
 1.900000000E+00 1.000000000E+00 -2.333813959E-02
 1.850000000E+00 1.000000000E+00 -2.533898171E-02
 1.800000000E+00 1.000000000E+00 -2.748213505E-02
 1.750000000E+00 1.000000000E+00 -3.001501118E-02
 1.700000000E+00 1.000000000E+00 -3.269042008E-02
 1.650000000E+00 1.000000000E+00 -3.558141732E-02
 1.600000000E+00 1.000000000E+00 -3.893098907E-02
 1.550000000E+00 1.000000000E+00 -4.247648062E-02
 1.500000000E+00 1.000000000E+00 -4.635453032E-02
 1.450000000E+00 1.000000000E+00 -5.074332214E-02
 1.400000000E+00 1.000000000E+00 -5.551427582E-02
 1.350000000E+00 1.000000000E+00 -6.047213110E-02
 1.300000000E+00 1.000000000E+00 -6.622812965E-02
 1.250000000E+00 1.000000000E+00 -7.189885024E-02
 1.200000000E+00 1.000000000E+00 -7.800709994E-02
 1.150000000E+00 1.000000000E+00 -8.427235147E-02
 1.100000000E+00 1.000000000E+00 -9.060189313E-02
 1.050000000E+00 1.000000000E+00 -9.632788463E-02
 1.000000000E+00 1.000000000E+00 -1.022100208E-01
 9.500000000E-01 1.000000000E+00 -1.069527248E-01
 9.000000000E-01 1.000000000E+00 -1.102324695E-01
 8.500000000E-01 1.000000000E+00 -1.133714417E-01
 8.000000000E-01 1.000000000E+00 -1.142804696E-01
 7.500000000E-01 1.000000000E+00 -1.137609446E-01
 7.000000000E-01 1.000000000E+00 -1.108452238E-01
 6.500000000E-01 1.000000000E+00 -1.065525275E-01
 6.000000000E-01 1.000000000E+00 -9.996091030E-02
 5.500000000E-01 1.000000000E+00 -9.263722030E-02
 5.000000000E-01 1.000000000E+00 -8.300523030E-02
 4.500000000E-01 1.000000000E+00 -7.262239508E-02
 4.000000000E-01 1.000000000E+00 -6.106462302E-02
 3.500000000E-01 1.000000000E+00 -4.882550155E-02
 3.000000000E-01 1.000000000E+00 -3.656019852E-02
 2.500000000E-01 1.000000000E+00 -2.446232655E-02
 2.000000000E-01 1.000000000E+00 -1.269968408E-02
 1.500000000E-01 1.000000000E+00 -1.567761010E-03
 1.000000000E-01 1.000000000E+00 8.588588979E-03
 5.000000000E-02 1.000000000E+00 1.754334672E-02
 1.733724275E-12 1.000000000E+00 2.490181017E-02
 -5.000000000E-02 1.000000000E+00 3.080609816E-02
 -1.000000000E-01 1.000000000E+00 3.516032630E-02
 -1.500000000E-01 1.000000000E+00 3.794360044E-02
 -2.000000000E-01 1.000000000E+00 3.913781647E-02
 -2.500000000E-01 1.000000000E+00 3.873325352E-02
 -3.000000000E-01 1.000000000E+00 3.685443156E-02
 -3.500000000E-01 1.000000000E+00 3.337805744E-02
 -4.000000000E-01 1.000000000E+00 2.777073613E-02
 -4.500000000E-01 1.000000000E+00 1.868444610E-02
 9.155480005E-01 -5.197276906E-03 3.444252472E-01
 8.405573935E-01 -1.291900460E-02 2.669561803E-01
 7.679261594E-01 -2.210834596E-02 1.700770603E-01
 6.969218837E-01 -3.337577282E-02 5.778807257E-02
 9.872798788E-01 -4.384890361E-03 3.140460482E-01
 6.302695663E-01 -4.360579327E-02 -5.511210778E-02
 5.582909662E-01 -5.445520705E-02 -2.231307272E-01
 4.980300352E-01 -6.207715343E-02 -3.905320462E-01
 4.417084885E-01 -6.686239661E-02 -5.164862851E-01
 3.871871657E-01 -6.996965636E-02 -8.884001366E-01
 3.323436734E-01 -7.074257750E-02 -7.819885020E-01
 2.773183561E-01 -6.928727089E-02 -6.576713093E-01