TITLE     = "Visualization of the solution"
VARIABLES = "x"
"y"
"Pressure_Coefficient"
ZONE T="Zone"
 STRANDID=0, SOLUTIONTIME=0
 Nodes=12103, Elements=23622, ZONETYPE=FEQuadrilateral
 DATAPACKING=POINT
 DT=(DOUBLE DOUBLE DOUBLE )
 9.998342395E-01 5.080448464E-04 3.530837665E-01
 9.878270030E-01 2.951539122E-03 2.547736429E-01
 9.753000736E-01 5.490633193E-03 1.905891118E-01
 9.596991539E-01 8.749763481E-03 1.171141092E-01
 9.452459216E-01 1.172926370E-02 5.842791178E-02
 9.306207299E-01 1.462066732E-02 4.072963796E-02
 9.191710353E-01 1.698750444E-02 -1.197772468E-02
 9.076387286E-01 1.931911707E-02 -5.483630095E-02
 8.956570029E-01 2.165203728E-02 -7.384411415E-02
 8.840005398E-01 2.396083251E-02 -1.281895159E-01
 8.716936707E-01 2.625646628E-02 -1.467318019E-01
 8.592252135E-01 2.854784392E-02 -1.749238498E-01
 8.464868069E-01 3.083770163E-02 -2.076129641E-01
 8.351470232E-01 3.277864307E-02 -2.108589653E-01
 8.234581947E-01 3.481440246E-02 -2.518786270E-01
 8.105103970E-01 3.695147112E-02 -2.629472201E-01
 7.977538705E-01 3.903942928E-02 -2.910422683E-01
 7.852179408E-01 4.105110094E-02 -3.246047805E-01
 7.725272775E-01 4.298459738E-02 -3.320328557E-01
 7.607950568E-01 4.474440590E-02 -3.478105501E-01
 7.477644682E-01 4.668423906E-02 -3.842117940E-01
 7.341095209E-01 4.863011837E-02 -4.042043246E-01
 7.234565616E-01 5.008999258E-02 -4.156495574E-01
 7.126939297E-01 5.157931522E-02 -4.569262769E-01
 7.009653449E-01 5.307988450E-02 -4.525757594E-01
 6.879127622E-01 5.474666879E-02 -4.846591589E-01
 6.751122475E-01 5.631021410E-02 -5.131106009E-01
 6.648796797E-01 5.750993267E-02 -5.290946816E-01
 6.535235643E-01 5.878018215E-02 -5.335027927E-01
 6.417680383E-01 6.004045531E-02 -5.406213340E-01
 6.301609278E-01 6.125905737E-02 -5.139555291E-01
 6.187638044E-01 6.236131862E-02 -5.037927578E-01
 6.080670953E-01 6.333101541E-02 -8.162466161E-01
 5.955736637E-01 6.440194696E-02 -9.519834417E-01
 5.843792558E-01 6.531536579E-02 -9.099989195E-01
 5.710140467E-01 6.631021202E-02 -8.951837310E-01
 5.588599443E-01 6.711458415E-02 -8.756296461E-01
 5.465961695E-01 6.783277541E-02 -8.663596717E-01
 5.358631015E-01 6.842345744E-02 -8.651230058E-01
 5.245575309E-01 6.898720562E-02 -8.464473134E-01
 5.122328401E-01 6.950545311E-02 -8.249384353E-01
 5.011822581E-01 6.989639997E-02 -8.128168933E-01
 4.883495569E-01 7.029311359E-02 -7.970181590E-01
 4.749550223E-01 7.058632374E-02 -7.818794925E-01
 4.615443051E-01 7.083545625E-02 -7.744013827E-01
 4.482499361E-01 7.096727937E-02 -7.493150835E-01
 4.357574284E-01 7.103291154E-02 -7.398349075E-01
 4.229258001E-01 7.101839781E-02 -7.211000058E-01
 4.106041491E-01 7.093268633E-02 -7.039667341E-01
 3.983688056E-01 7.078484446E-02 -6.836301824E-01
 3.861042559E-01 7.054913789E-02 -6.688227854E-01
 3.744025230E-01 7.029190660E-02 -6.716618445E-01
 3.612883389E-01 6.991358101E-02 -6.499423382E-01
 3.487419486E-01 6.946816295E-02 -6.234996411E-01
 3.356136084E-01 6.893846393E-02 -6.147483176E-01
 3.245562613E-01 6.843659282E-02 -6.066134949E-01
 3.118349314E-01 6.779150665E-02 -5.967723151E-01
 2.987282574E-01 6.703860313E-02 -5.731368428E-01
 2.846987545E-01 6.613703817E-02 -5.575327482E-01
 2.723504305E-01 6.529054046E-02 -5.569768908E-01
 2.603561282E-01 6.436982751E-02 -5.336831273E-01
 2.476936430E-01 6.331963092E-02 -5.170337401E-01
 2.351429909E-01 6.220739335E-02 -5.072182463E-01
 2.227002233E-01 6.100261584E-02 -4.865461812E-01
 2.107699960E-01 5.976827443E-02 -4.696082716E-01
 1.989959329E-01 5.847528204E-02 -4.571895197E-01
 1.865709722E-01 5.700922757E-02 -4.385485078E-01
 1.745697558E-01 5.549198389E-02 -4.202312741E-01
 1.632978022E-01 5.398057029E-02 -4.026013204E-01
 1.514585465E-01 5.228054896E-02 -3.804963739E-01
 1.408111304E-01 5.066619441E-02 -3.635419215E-01
 1.291046441E-01 4.877394065E-02 -3.432502920E-01
 1.177445725E-01 4.680385813E-02 -3.169344045E-01
 1.070239395E-01 4.482711479E-02 -2.950703180E-01
 9.692683071E-02 4.284393787E-02 -2.712171033E-01
 8.576642722E-02 4.049139842E-02 -2.368842108E-01
 7.389397919E-02 3.778243065E-02 -2.045128356E-01
 6.374175102E-02 3.525817767E-02 -1.657413784E-01
 5.373839289E-02 3.256065026E-02 -1.169318403E-01
 4.490044713E-02 2.995240502E-02 -7.817116742E-02
 3.745651618E-02 2.755722776E-02 -3.327252726E-02
 3.087660857E-02 2.523090132E-02 2.070827857E-02
 2.519819140E-02 2.304071374E-02 6.574726332E-02
 2.115688659E-02 2.134570107E-02 1.128014351E-01
 1.728649810E-02 1.958962530E-02 1.604663883E-01
 1.420308277E-02 1.805935986E-02 2.203535396E-01
 1.138193347E-02 1.653181948E-02 2.716762594E-01
 9.316591546E-03 1.531953271E-02 3.179844527E-01
 7.515580859E-03 1.416938193E-02 3.666317887E-01
 5.839285441E-03 1.299918815E-02 4.506517501E-01
 3.616990522E-03 1.124472078E-02 5.543337953E-01
 1.730221556E-03 9.463340975E-03 6.631061046E-01
 2.079424157E-04 7.666715886E-03 8.608475542E-01
 -1.282007899E-03 5.100277718E-03 1.063502195E+00
 -1.872048713E-03 3.157172119E-03 1.164172447E+00
 -2.014031168E-03 1.608706894E-03 1.190286086E+00
 -1.846322091E-03 -2.912820491E-05 1.139629282E+00
 -1.363007119E-03 -1.656459179E-03 1.013630218E+00
 -3.469642252E-04 -3.642527154E-03 8.595240205E-01
 1.146577066E-03 -5.645477213E-03 6.590451753E-01
 3.164597554E-03 -7.694446482E-03 4.962740459E-01
 4.998105112E-03 -9.221501648E-03 3.629547673E-01
 7.114231121E-03 -1.075110119E-02 2.746291761E-01
 8.789755404E-03 -1.182970870E-02 1.891484705E-01
 1.094538346E-02 -1.309673954E-02 1.412778780E-01
 1.333518140E-02 -1.437288895E-02 8.529891561E-02
 1.673995890E-02 -1.601780765E-02 3.168700346E-02
 1.976769976E-02 -1.734086312E-02 -2.562582451E-02
 2.375565283E-02 -1.893610880E-02 -5.898550115E-02
 2.919454128E-02 -2.089736983E-02 -9.739750810E-02
 3.506114706E-02 -2.279722132E-02 -1.383309696E-01
 4.225409403E-02 -2.490362152E-02 -1.661433034E-01
 5.001195893E-02 -2.695318498E-02 -1.929484923E-01
 5.933514237E-02 -2.918751910E-02 -2.119339914E-01
 6.831423193E-02 -3.115764819E-02 -2.333605032E-01
 7.879126072E-02 -3.326718137E-02 -2.488930468E-01
 8.908929676E-02 -3.518757969E-02 -2.649315661E-01
 9.939602017E-02 -3.697938845E-02 -2.795287963E-01
 1.109408289E-01 -3.885675594E-02 -2.948959746E-01
 1.221634448E-01 -4.055906460E-02 -3.096761124E-01
 1.341881156E-01 -4.227310419E-02 -3.245705175E-01
 1.449418366E-01 -4.371079803E-02 -3.383150292E-01
 1.563898921E-01 -4.516543821E-02 -3.554893099E-01
 1.688885689E-01 -4.665355384E-02 -3.726658156E-01
 1.807071269E-01 -4.796924815E-02 -3.890265188E-01
 1.925833821E-01 -4.921200871E-02 -4.059920228E-01
 2.034850121E-01 -5.028139800E-02 -4.241126083E-01
 2.149134278E-01 -5.132894218E-02 -4.398830841E-01
 2.273115218E-01 -5.238959566E-02 -4.621409249E-01
 2.400272489E-01 -5.337786674E-02 -4.829896150E-01
 2.523589134E-01 -5.424318835E-02 -4.992751348E-01
 2.646773458E-01 -5.502698198E-02 -5.211590225E-01
 2.756589353E-01 -5.564546958E-02 -5.429132004E-01
 2.879965901E-01 -5.625358224E-02 -5.609774889E-01
 3.004391789E-01 -5.676935613E-02 -5.859916795E-01
 3.131479025E-01 -5.718714371E-02 -6.088218272E-01
 3.247383237E-01 -5.745641515E-02 -6.175557406E-01
 3.372038901E-01 -5.766436085E-02 -6.402403435E-01
 3.478621244E-01 -5.771920830E-02 -6.451301526E-01
 3.593612611E-01 -5.772184581E-02 -6.608081309E-01
 3.700863719E-01 -5.760022625E-02 -6.724641016E-01
 3.806779087E-01 -5.737778544E-02 -6.420565915E-01
 3.920099437E-01 -5.706721544E-02 -6.309939163E-01
 4.051368237E-01 -5.653909966E-02 -5.987672117E-01
 4.172538519E-01 -5.594475567E-02 -5.738634831E-01
 4.297826290E-01 -5.518623814E-02 -5.362980392E-01
 4.422095716E-01 -5.432958528E-02 -5.072596158E-01
 4.539746046E-01 -5.338433385E-02 -4.652588351E-01
 4.655734003E-01 -5.237540975E-02 -4.333158724E-01
 4.778871834E-01 -5.117418617E-02 -3.839068449E-01
 4.892096519E-01 -5.001858249E-02 -3.568931222E-01
 5.019583106E-01 -4.860401526E-02 -3.113609144E-01
 5.158010125E-01 -4.699001089E-02 -2.708287465E-01
 5.292356610E-01 -4.532666877E-02 -2.255371157E-01
 5.425222516E-01 -4.365019500E-02 -1.960185032E-01
 5.551976562E-01 -4.197032377E-02 -1.546572973E-01
 5.687288642E-01 -4.016441107E-02 -1.257395095E-01
 5.818043351E-01 -3.837107867E-02 -9.242373291E-02
 5.941596627E-01 -3.666646034E-02 -6.752968118E-02
 6.067997813E-01 -3.488491848E-02 -3.453463083E-02
 6.214445829E-01 -3.283698112E-02 -9.765441204E-03
 6.359040141E-01 -3.080823272E-02 1.418053994E-02
 6.507485509E-01 -2.867012843E-02 5.290845581E-02
 6.637472510E-01 -2.686976828E-02 6.509344356E-02
 6.771085858E-01 -2.498487383E-02 9.261635735E-02
 6.894563437E-01 -2.326299995E-02 1.142983006E-01
 7.018623352E-01 -2.157413028E-02 1.290117571E-01
 7.161758542E-01 -1.961161196E-02 1.574722462E-01
 7.297975421E-01 -1.784332842E-02 1.638913982E-01
 7.416102886E-01 -1.627338305E-02 1.885007278E-01
 7.552977800E-01 -1.452497765E-02 1.997433317E-01
 7.668318748E-01 -1.300971396E-02 2.316066988E-01
 7.803907394E-01 -1.135544479E-02 2.405817969E-01
 7.920777202E-01 -9.935471229E-03 2.636425435E-01
 8.049461246E-01 -8.456964977E-03 2.766783611E-01
 8.161292672E-01 -7.232328877E-03 2.872087209E-01
 8.273880482E-01 -6.000692490E-03 3.099669229E-01
 8.404115438E-01 -4.683016799E-03 3.246946031E-01
 8.529784679E-01 -3.513144562E-03 3.375509909E-01
 8.652328253E-01 -2.443733159E-03 3.544006606E-01
 8.768870234E-01 -1.543110935E-03 3.654617183E-01
 8.884950876E-01 -7.366259815E-04 3.777895632E-01
 9.016305804E-01 2.837227476E-05 3.862149941E-01
 9.119814038E-01 5.165442126E-04 3.926547124E-01
 9.222012758E-01 9.096420254E-04 3.989909872E-01
 9.319949746E-01 1.177034108E-03 3.996034875E-01
 9.404804111E-01 1.342037111E-03 4.034553134E-01
 9.522375464E-01 1.448894734E-03 4.035642981E-01
 9.644781351E-01 1.427414711E-03 4.063889315E-01
 9.774191976E-01 1.246439759E-03 4.115384747E-01
 9.894444346E-01 9.378712275E-04 4.307313351E-01
 -5.000000000E-01 -1.000000000E+00 1.603795996E-02
 3.500000000E+00 -1.000000000E+00 8.119762959E-03
 3.500000000E+00 1.000000000E+00 -3.424831152E-02
 -5.000000000E-01 1.000000000E+00 1.476332450E-02
 9.938306212E-01 1.729791984E-03 3.301335641E-01
 9.815635383E-01 4.221086157E-03 2.207007105E-01
 9.674996138E-01 7.120198337E-03 1.508285706E-01
 9.524725378E-01 1.023951359E-02 8.237665275E-02
 9.379333258E-01 1.317496551E-02 5.354144053E-02
 9.248958826E-01 1.580408588E-02 1.232084228E-02
 9.134048820E-01 1.815331075E-02 -3.763851749E-02
 9.016478658E-01 2.048557717E-02 -5.861692114E-02
 8.898287714E-01 2.280643489E-02 -1.072109763E-01
 8.778471053E-01 2.510864940E-02 -1.357916456E-01
 8.654594421E-01 2.740215510E-02 -1.593200214E-01
 8.528560102E-01 2.969277278E-02 -1.959178133E-01
 8.408169150E-01 3.180817235E-02 -2.021972652E-01
 8.293026090E-01 3.379652277E-02 -2.371782970E-01
 8.169842958E-01 3.588293679E-02 -2.553956432E-01
 8.041321337E-01 3.799545020E-02 -2.751419812E-01
 7.914859056E-01 4.004526511E-02 -3.121690367E-01
 7.788726091E-01 4.201784916E-02 -3.273214008E-01
 7.666611671E-01 4.386450164E-02 -3.367153704E-01
 7.542797625E-01 4.571432248E-02 -3.677261933E-01
 7.409369946E-01 4.765717871E-02 -3.973445543E-01
 7.287830412E-01 4.936005548E-02 -4.010590323E-01
 7.180752456E-01 5.083465390E-02 -4.469402432E-01
 7.068296373E-01 5.232959986E-02 -4.489012828E-01
 6.944390535E-01 5.391327664E-02 -4.692872852E-01
 6.815125048E-01 5.552844144E-02 -4.985843863E-01
 6.699959636E-01 5.691007338E-02 -5.235377508E-01
 6.592016220E-01 5.814505741E-02 -5.320376209E-01
 6.476458013E-01 5.941031873E-02 -5.351801603E-01
 6.359644830E-01 6.064975634E-02 -5.389280015E-01
 6.244623661E-01 6.181018800E-02 -4.860033279E-01
 6.134154499E-01 6.284616701E-02 -6.239493458E-01
 6.018203795E-01 6.386648118E-02 -9.325028125E-01
 5.899764597E-01 6.485865638E-02 -9.314663506E-01
 5.776966512E-01 6.581278890E-02 -9.010593080E-01
 5.649369955E-01 6.671239808E-02 -8.860161460E-01
 5.527280569E-01 6.747367978E-02 -8.663711316E-01
 5.412296355E-01 6.812811643E-02 -8.677175304E-01
 5.302103162E-01 6.870533153E-02 -8.593864803E-01
 5.183951855E-01 6.924632937E-02 -8.339843234E-01
 5.067075491E-01 6.970092654E-02 -8.161570042E-01
 4.947659075E-01 7.009475678E-02 -8.108075383E-01
 4.816522896E-01 7.043971866E-02 -7.821112471E-01
 4.682496637E-01 7.071089000E-02 -7.853401928E-01
 4.548971206E-01 7.090136781E-02 -7.572481995E-01
 4.420036823E-01 7.100009546E-02 -7.459807607E-01
 4.293416142E-01 7.102565467E-02 -7.308592810E-01
 4.167649746E-01 7.097554207E-02 -7.113460770E-01
 4.044864774E-01 7.085876539E-02 -6.968008661E-01
 3.922365308E-01 7.066699117E-02 -6.698097248E-01
 3.802533895E-01 7.042052224E-02 -6.745152031E-01
 3.678454310E-01 7.010274380E-02 -6.630133413E-01
 3.550151438E-01 6.969087198E-02 -6.346261548E-01
 3.421777785E-01 6.920331344E-02 -6.172991653E-01
 3.300849348E-01 6.868752837E-02 -6.112998950E-01
 3.181955963E-01 6.811404973E-02 -6.033705462E-01
 3.052815944E-01 6.741505489E-02 -5.870750136E-01
 2.917135060E-01 6.658782065E-02 -5.599870937E-01
 2.785245925E-01 6.571378931E-02 -5.607404067E-01
 2.663532794E-01 6.483018398E-02 -5.460453596E-01
 2.540248856E-01 6.384472921E-02 -5.229986202E-01
 2.414183170E-01 6.276351213E-02 -5.143739633E-01
 2.289216071E-01 6.160500459E-02 -4.963825769E-01
 2.167351097E-01 6.038544513E-02 -4.767647053E-01
 2.048829645E-01 5.912177823E-02 -4.648341241E-01
 1.927834526E-01 5.774225481E-02 -4.484442353E-01
 1.805703640E-01 5.625060573E-02 -4.278675325E-01
 1.689337790E-01 5.473627709E-02 -4.136045201E-01
 1.573781744E-01 5.313055962E-02 -3.898191029E-01
 1.461348385E-01 5.147337168E-02 -3.733684826E-01
 1.349578872E-01 4.972006753E-02 -3.546364502E-01
 1.234246083E-01 4.778889939E-02 -3.294078002E-01
 1.123842560E-01 4.581548646E-02 -3.051940533E-01
 1.019753851E-01 4.383552633E-02 -2.852670675E-01
 9.134662896E-02 4.166766815E-02 -2.567674942E-01
 7.983020321E-02 3.913691454E-02 -2.197474734E-01
 6.881786510E-02 3.652030416E-02 -1.855728166E-01
 5.874007195E-02 3.390941396E-02 -1.476792334E-01
 7.355274633E-02 -3.221241478E-02 -2.449588176E-01
 8.394027874E-02 -3.422738053E-02 -2.575112480E-01
 9.424265847E-02 -3.608348407E-02 -2.726560174E-01
 1.051684245E-01 -3.791807219E-02 -2.861021600E-01
 1.165521368E-01 -3.970791027E-02 -3.037079189E-01
 1.281757802E-01 -4.141608439E-02 -3.161249326E-01
 1.395649761E-01 -4.299195111E-02 -3.336212163E-01
 1.506658643E-01 -4.443811812E-02 -3.450997068E-01
 1.626392305E-01 -4.590949602E-02 -3.641359457E-01
 1.747978479E-01 -4.731140099E-02 -3.816871939E-01
 1.866452545E-01 -4.859062843E-02 -3.971396336E-01
 1.980341971E-01 -4.974670336E-02 -4.158439198E-01
 2.091992199E-01 -5.080517009E-02 -4.315731446E-01
 2.211124748E-01 -5.185926892E-02 -4.493844098E-01
 2.336693853E-01 -5.288373120E-02 -4.735984961E-01
 2.461930811E-01 -5.381052755E-02 -4.917337689E-01
 2.585181296E-01 -5.463508517E-02 -5.088003184E-01
 2.701681405E-01 -5.533622578E-02 -5.338949145E-01
 2.818277627E-01 -5.594952591E-02 -5.502066512E-01
 2.942178845E-01 -5.651146919E-02 -5.725788216E-01
 3.067935407E-01 -5.697824992E-02 -5.977888894E-01
 3.189431131E-01 -5.732177943E-02 -6.165361418E-01
 3.309711069E-01 -5.756038800E-02 -6.234912696E-01
 3.425330073E-01 -5.769178458E-02 -6.514860652E-01
 3.536116928E-01 -5.772052705E-02 -6.442912910E-01
 3.647238165E-01 -5.766103603E-02 -6.739022503E-01
 3.753821403E-01 -5.748900585E-02 -6.606030316E-01
 3.863439262E-01 -5.722250044E-02 -6.309723430E-01
 3.985733837E-01 -5.680315755E-02 -6.195661244E-01
 4.111953378E-01 -5.624192767E-02 -5.835132402E-01
 4.235182405E-01 -5.556549691E-02 -5.582151340E-01
 4.359961003E-01 -5.475791171E-02 -5.191039322E-01
 4.480920881E-01 -5.385695957E-02 -4.905685299E-01
 4.597740024E-01 -5.287987180E-02 -4.463200608E-01
 4.717302918E-01 -5.177479796E-02 -4.120805931E-01
 4.835484177E-01 -5.059638433E-02 -3.668514992E-01
 4.955839813E-01 -4.931129888E-02 -3.369401866E-01
 5.088796616E-01 -4.779701307E-02 -2.893572789E-01
 5.225183368E-01 -4.615833983E-02 -2.501180133E-01
 5.358789563E-01 -4.448843189E-02 -2.082473216E-01
 5.488599539E-01 -4.281025939E-02 -1.781395777E-01
 5.619632602E-01 -4.106736742E-02 -1.379215990E-01
 5.752665997E-01 -3.926774487E-02 -1.101949498E-01
 5.879819989E-01 -3.751876950E-02 -7.894739492E-02
 6.004797220E-01 -3.577568941E-02 -5.261260680E-02
 6.141221821E-01 -3.386094980E-02 -2.080676593E-02
 6.286742985E-01 -3.182260692E-02 2.164677759E-03
 6.433262825E-01 -2.973918058E-02 3.072298693E-02
 6.572479010E-01 -2.776994836E-02 6.317003492E-02
 6.704279184E-01 -2.592732105E-02 7.647907965E-02
 6.832824647E-01 -2.412393689E-02 1.040165772E-01
 6.956593394E-01 -2.241856512E-02 1.225654978E-01
 7.090190947E-01 -2.059287112E-02 1.411801374E-01
 7.229866982E-01 -1.872747019E-02 1.642599142E-01
 7.357039154E-01 -1.705835573E-02 1.734385093E-01
 7.484540343E-01 -1.539918035E-02 1.958244792E-01
 7.610648274E-01 -1.376734581E-02 2.120750932E-01
 7.736113071E-01 -1.218257938E-02 2.379859135E-01
 7.862342298E-01 -1.064545801E-02 2.506853301E-01
 7.985119224E-01 -9.196218103E-03 2.706693625E-01
 8.105376959E-01 -7.844646927E-03 2.832629456E-01
 8.217586577E-01 -6.616510684E-03 2.960986635E-01
 8.338997960E-01 -5.341854645E-03 3.171346232E-01
 8.466950059E-01 -4.098080681E-03 3.319354009E-01
 8.591056466E-01 -2.978438861E-03 3.448967437E-01
 8.710599244E-01 -1.993422047E-03 3.610742535E-01
 8.826910555E-01 -1.139868458E-03 3.706997355E-01
 8.950628340E-01 -3.541268534E-04 3.814102050E-01
 9.068059921E-01 2.724582437E-04 3.919216119E-01
 9.170913398E-01 7.130931190E-04 3.955897797E-01
 9.463589787E-01 1.395465923E-03 4.031179437E-01
 9.583578408E-01 1.438154723E-03 4.043106006E-01
 9.709486663E-01 1.336927235E-03 4.078762397E-01
 9.834318161E-01 1.092155493E-03 4.187233856E-01
 9.946393371E-01 7.229580369E-04 4.787153387E-01
 -5.000000000E-01 9.500000000E-01 2.424938790E-02
 -5.000000000E-01 9.000000000E-01 3.667116734E-02
 -5.000000000E-01 8.500000000E-01 4.618947851E-02
 -5.000000000E-01 8.000000000E-01 5.459433119E-02
 -5.000000000E-01 7.500000000E-01 6.261283095E-02
 -5.000000000E-01 7.000000000E-01 7.058480503E-02
 -5.000000000E-01 6.500000000E-01 7.875788571E-02
 -5.000000000E-01 6.000000000E-01 8.700788455E-02
 -5.000000000E-01 5.500000000E-01 9.557440482E-02
 -5.000000000E-01 5.000000000E-01 1.042546244E-01
 -5.000000000E-01 4.500000000E-01 1.132324160E-01
 -5.000000000E-01 4.000000000E-01 1.221021517E-01
 -5.000000000E-01 3.500000000E-01 1.310136253E-01
 -5.000000000E-01 3.000000000E-01 1.392775622E-01
 -5.000000000E-01 2.500000000E-01 1.471548782E-01
 -5.000000000E-01 2.000000000E-01 1.540875709E-01
 -5.000000000E-01 1.500000000E-01 1.598178210E-01
 -5.000000000E-01 1.000000000E-01 1.642339445E-01
 -5.000000000E-01 5.000000000E-02 1.669776691E-01
 -5.000000000E-01 2.752242878E-12 1.680076443E-01
 -5.000000000E-01 -5.000000000E-02 1.671912414E-01
 -5.000000000E-01 -1.000000000E-01 1.646001520E-01
 -5.000000000E-01 -1.500000000E-01 1.604909880E-01
 -5.000000000E-01 -2.000000000E-01 1.549848236E-01
 -5.000000000E-01 -2.500000000E-01 1.484234583E-01
 -5.000000000E-01 -3.000000000E-01 1.409360683E-01
 -5.000000000E-01 -3.500000000E-01 1.329757783E-01
 -5.000000000E-01 -4.000000000E-01 1.245261111E-01
 -5.000000000E-01 -4.500000000E-01 1.160169475E-01
 -5.000000000E-01 -5.000000000E-01 1.074218162E-01
 -5.000000000E-01 -5.500000000E-01 9.899108745E-02
 -5.000000000E-01 -6.000000000E-01 9.073473899E-02
 -5.000000000E-01 -6.500000000E-01 8.255906176E-02
 -5.000000000E-01 -7.000000000E-01 7.451822985E-02
 -5.000000000E-01 -7.500000000E-01 6.632128628E-02
 -5.000000000E-01 -8.000000000E-01 5.812318512E-02
 -5.000000000E-01 -8.500000000E-01 4.946404175E-02
 -5.000000000E-01 -9.000000000E-01 3.937229294E-02
 -5.000000000E-01 -9.500000000E-01 2.610814157E-02
 -4.500000000E-01 -1.000000000E+00 2.161402529E-02
 -4.000000000E-01 -1.000000000E+00 3.210960471E-02
 -3.500000000E-01 -1.000000000E+00 3.882078965E-02
 -3.000000000E-01 -1.000000000E+00 4.309561023E-02
 -2.500000000E-01 -1.000000000E+00 4.590184342E-02
 -2.000000000E-01 -1.000000000E+00 4.714084953E-02
 -1.500000000E-01 -1.000000000E+00 4.683145986E-02
 -1.000000000E-01 -1.000000000E+00 4.508327934E-02
 -5.000000000E-02 -1.000000000E+00 4.185636705E-02
 -9.424683256E-13 -1.000000000E+00 3.726072477E-02
 5.000000000E-02 -1.000000000E+00 3.141873959E-02
 1.000000000E-01 -1.000000000E+00 2.453305129E-02
 1.500000000E-01 -1.000000000E+00 1.691973164E-02
 2.000000000E-01 -1.000000000E+00 8.903670244E-03
 2.500000000E-01 -1.000000000E+00 8.103804039E-04
 3.000000000E-01 -1.000000000E+00 -6.780708937E-03
 3.500000000E-01 -1.000000000E+00 -1.345691886E-02
 4.000000000E-01 -1.000000000E+00 -1.899017013E-02
 4.500000000E-01 -1.000000000E+00 -2.300477080E-02
 5.000000000E-01 -1.000000000E+00 -2.534484499E-02
 5.500000000E-01 -1.000000000E+00 -2.585810952E-02
 6.000000000E-01 -1.000000000E+00 -2.464922567E-02
 6.500000000E-01 -1.000000000E+00 -2.186363631E-02
 7.000000000E-01 -1.000000000E+00 -1.767638386E-02
 7.500000000E-01 -1.000000000E+00 -1.238488789E-02
 8.000000000E-01 -1.000000000E+00 -6.262477500E-03
 8.500000000E-01 -1.000000000E+00 1.974428813E-04
 9.000000000E-01 -1.000000000E+00 6.724575781E-03
 9.500000000E-01 -1.000000000E+00 1.322836942E-02
 1.000000000E+00 -1.000000000E+00 1.920494875E-02
 1.050000000E+00 -1.000000000E+00 2.466325156E-02
 1.100000000E+00 -1.000000000E+00 2.953325102E-02
 1.150000000E+00 -1.000000000E+00 3.359412890E-02
 1.200000000E+00 -1.000000000E+00 3.707546972E-02
 1.250000000E+00 -1.000000000E+00 3.971113847E-02
 1.300000000E+00 -1.000000000E+00 4.178045345E-02
 1.350000000E+00 -1.000000000E+00 4.331684715E-02
 1.400000000E+00 -1.000000000E+00 4.428372030E-02
 1.450000000E+00 -1.000000000E+00 4.474918706E-02
 1.500000000E+00 -1.000000000E+00 4.486839307E-02
 1.550000000E+00 -1.000000000E+00 4.463062187E-02
 1.600000000E+00 -1.000000000E+00 4.413450590E-02
 1.650000000E+00 -1.000000000E+00 4.341955847E-02
 1.700000000E+00 -1.000000000E+00 4.254975801E-02
 1.750000000E+00 -1.000000000E+00 4.151545795E-02
 1.800000000E+00 -1.000000000E+00 4.041921244E-02
 1.850000000E+00 -1.000000000E+00 3.925840755E-02
 1.900000000E+00 -1.000000000E+00 3.802555364E-02
 1.950000000E+00 -1.000000000E+00 3.683828464E-02
 2.000000000E+00 -1.000000000E+00 3.554411880E-02
 2.050000000E+00 -1.000000000E+00 3.435465751E-02
 2.100000000E+00 -1.000000000E+00 3.313205032E-02
 2.150000000E+00 -1.000000000E+00 3.193171283E-02
 2.200000000E+00 -1.000000000E+00 3.076187093E-02
 2.250000000E+00 -1.000000000E+00 2.966516509E-02
 2.300000000E+00 -1.000000000E+00 2.860249734E-02
 2.350000000E+00 -1.000000000E+00 2.760052376E-02
 2.400000000E+00 -1.000000000E+00 2.664637978E-02
 2.450000000E+00 -1.000000000E+00 2.572384582E-02
 2.500000000E+00 -1.000000000E+00 2.488608675E-02
 2.550000000E+00 -1.000000000E+00 2.407106652E-02
 2.600000000E+00 -1.000000000E+00 2.333335820E-02
 2.650000000E+00 -1.000000000E+00 2.262012500E-02
 2.700000000E+00 -1.000000000E+00 2.199662190E-02
 2.750000000E+00 -1.000000000E+00 2.139708703E-02
 2.800000000E+00 -1.000000000E+00 2.085857207E-02
 2.850000000E+00 -1.000000000E+00 2.035984439E-02
 2.900000000E+00 -1.000000000E+00 1.992280584E-02
 2.950000000E+00 -1.000000000E+00 1.950640825E-02
 3.000000000E+00 -1.000000000E+00 1.916393910E-02
 3.050000000E+00 -1.000000000E+00 1.879644443E-02
 3.100000000E+00 -1.000000000E+00 1.844472720E-02
 3.150000000E+00 -1.000000000E+00 1.812506919E-02
 3.200000000E+00 -1.000000000E+00 1.768346288E-02
 3.250000000E+00 -1.000000000E+00 1.727151379E-02
 3.300000000E+00 -1.000000000E+00 1.670506965E-02
 3.350000000E+00 -1.000000000E+00 1.591166185E-02
 3.400000000E+00 -1.000000000E+00 1.453781176E-02
 3.450000000E+00 -1.000000000E+00 1.181209443E-02
 3.500000000E+00 -9.500000000E-01 6.237455523E-03
 3.500000000E+00 -9.000000000E-01 7.567689525E-03
 3.500000000E+00 -8.500000000E-01 8.884004667E-03
 3.500000000E+00 -8.000000000E-01 1.031337942E-02
 3.500000000E+00 -7.500000000E-01 1.170952985E-02
 3.500000000E+00 -7.000000000E-01 1.304254256E-02
 3.500000000E+00 -6.500000000E-01 1.439428284E-02
 3.500000000E+00 -6.000000000E-01 1.580204727E-02
 3.500000000E+00 -5.500000000E-01 1.724827088E-02
 3.500000000E+00 -5.000000000E-01 1.873846460E-02
 3.500000000E+00 -4.500000000E-01 2.025435475E-02
 3.500000000E+00 -4.000000000E-01 2.170756863E-02
 3.500000000E+00 -3.500000000E-01 2.322384910E-02
 3.500000000E+00 -3.000000000E-01 2.459897930E-02
 3.500000000E+00 -2.500000000E-01 2.561822731E-02
 3.500000000E+00 -2.000000000E-01 2.599275637E-02
 3.500000000E+00 -1.500000000E-01 2.586477854E-02
 3.500000000E+00 -1.000000000E-01 2.541262952E-02
 3.500000000E+00 -5.000000000E-02 2.512993425E-02
 3.500000000E+00 -2.752242878E-12 2.525445899E-02
 3.500000000E+00 5.000000000E-02 2.559327419E-02
 3.500000000E+00 1.000000000E-01 2.578972311E-02
 3.500000000E+00 1.500000000E-01 2.522219740E-02
 3.500000000E+00 2.000000000E-01 2.415475486E-02
 3.500000000E+00 2.500000000E-01 2.277546120E-02
 3.500000000E+00 3.000000000E-01 2.114816386E-02
 3.500000000E+00 3.500000000E-01 1.961385325E-02
 3.500000000E+00 4.000000000E-01 1.803337642E-02
 3.500000000E+00 4.500000000E-01 1.638717087E-02
 3.500000000E+00 5.000000000E-01 1.476749382E-02
 3.500000000E+00 5.500000000E-01 1.345766193E-02
 3.500000000E+00 6.000000000E-01 1.270551579E-02
 3.500000000E+00 6.500000000E-01 1.240394577E-02
 3.500000000E+00 7.000000000E-01 1.175832879E-02
 3.500000000E+00 7.500000000E-01 8.722056305E-03
 3.500000000E+00 8.000000000E-01 1.050783143E-03
 3.500000000E+00 8.500000000E-01 -1.061178977E-02
 3.500000000E+00 9.000000000E-01 -2.434413305E-02
 3.500000000E+00 9.500000000E-01 -3.881557628E-02
 3.450000000E+00 1.000000000E+00 -1.814895288E-02
 3.400000000E+00 1.000000000E+00 -7.469768203E-03
 3.350000000E+00 1.000000000E+00 -3.622187594E-03
 3.300000000E+00 1.000000000E+00 -2.810223167E-03
 3.250000000E+00 1.000000000E+00 -2.653912166E-03
 3.200000000E+00 1.000000000E+00 -3.048852944E-03
 3.150000000E+00 1.000000000E+00 -3.477206776E-03
 3.100000000E+00 1.000000000E+00 -4.454284647E-03
 3.050000000E+00 1.000000000E+00 -5.125139556E-03
 3.000000000E+00 1.000000000E+00 -6.437359346E-03
 2.950000000E+00 1.000000000E+00 -7.419559030E-03
 2.900000000E+00 1.000000000E+00 -8.558648165E-03
 2.850000000E+00 1.000000000E+00 -9.552083110E-03
 2.800000000E+00 1.000000000E+00 -1.068145995E-02
 2.750000000E+00 1.000000000E+00 -1.205343583E-02
 2.700000000E+00 1.000000000E+00 -1.329068992E-02
 2.650000000E+00 1.000000000E+00 -1.472066598E-02
 2.600000000E+00 1.000000000E+00 -1.616501865E-02
 2.550000000E+00 1.000000000E+00 -1.751649666E-02
 2.500000000E+00 1.000000000E+00 -1.899403006E-02
 2.450000000E+00 1.000000000E+00 -2.059949599E-02
 2.400000000E+00 1.000000000E+00 -2.224391704E-02
 2.350000000E+00 1.000000000E+00 -2.413213899E-02
 2.300000000E+00 1.000000000E+00 -2.590426801E-02
 2.250000000E+00 1.000000000E+00 -2.787492267E-02
 2.200000000E+00 1.000000000E+00 -2.988810344E-02
 2.150000000E+00 1.000000000E+00 -3.217982839E-02
 2.100000000E+00 1.000000000E+00 -3.449405418E-02
 2.050000000E+00 1.000000000E+00 -3.718628627E-02
 2.000000000E+00 1.000000000E+00 -3.976608402E-02
 1.950000000E+00 1.000000000E+00 -4.277906744E-02
 1.900000000E+00 1.000000000E+00 -4.577651176E-02
 1.850000000E+00 1.000000000E+00 -4.926111892E-02
 1.800000000E+00 1.000000000E+00 -5.282434354E-02
 1.750000000E+00 1.000000000E+00 -5.694991919E-02
 1.700000000E+00 1.000000000E+00 -6.120391690E-02
 1.650000000E+00 1.000000000E+00 -6.595241669E-02
 1.600000000E+00 1.000000000E+00 -7.088547796E-02
 1.550000000E+00 1.000000000E+00 -7.663772454E-02
 1.500000000E+00 1.000000000E+00 -8.264025109E-02
 1.450000000E+00 1.000000000E+00 -8.923411551E-02
 1.400000000E+00 1.000000000E+00 -9.629693558E-02
 1.350000000E+00 1.000000000E+00 -1.037344767E-01
 1.300000000E+00 1.000000000E+00 -1.117257047E-01
 1.250000000E+00 1.000000000E+00 -1.200870504E-01
 1.200000000E+00 1.000000000E+00 -1.290202993E-01
 1.150000000E+00 1.000000000E+00 -1.376411371E-01
 1.100000000E+00 1.000000000E+00 -1.462541863E-01
 1.050000000E+00 1.000000000E+00 -1.543800912E-01
 1.000000000E+00 1.000000000E+00 -1.619175025E-01
 9.500000000E-01 1.000000000E+00 -1.683596506E-01
 9.000000000E-01 1.000000000E+00 -1.722143626E-01
 8.500000000E-01 1.000000000E+00 -1.759949160E-01
 8.000000000E-01 1.000000000E+00 -1.744099891E-01
 7.500000000E-01 1.000000000E+00 -1.738650528E-01
 7.000000000E-01 1.000000000E+00 -1.667429516E-01
 6.500000000E-01 1.000000000E+00 -1.596589452E-01
 6.000000000E-01 1.000000000E+00 -1.487290227E-01
 5.500000000E-01 1.000000000E+00 -1.366126943E-01
 5.000000000E-01 1.000000000E+00 -1.212208216E-01
 4.500000000E-01 1.000000000E+00 -1.058360665E-01
 4.000000000E-01 1.000000000E+00 -8.972621563E-02
 3.500000000E-01 1.000000000E+00 -7.271491818E-02
 3.000000000E-01 1.000000000E+00 -5.589718300E-02
 2.500000000E-01 1.000000000E+00 -3.945632206E-02
 2.000000000E-01 1.000000000E+00 -2.427128446E-02
 1.500000000E-01 1.000000000E+00 -1.001438922E-02
 1.000000000E-01 1.000000000E+00 2.503288358E-03
 5.000000000E-02 1.000000000E+00 1.371277576E-02
 1.733724275E-12 1.000000000E+00 2.292835863E-02
 -5.000000000E-02 1.000000000E+00 3.031121384E-02
 -1.000000000E-01 1.000000000E+00 3.578729559E-02
 -1.500000000E-01 1.000000000E+00 3.939836196E-02
 -2.000000000E-01 1.000000000E+00 4.101678048E-02
 -2.500000000E-01 1.000000000E+00 4.096582100E-02
 -3.000000000E-01 1.000000000E+00 3.916353904E-02
 -3.500000000E-01 1.000000000E+00 3.558321092E-02
 -4.000000000E-01 1.000000000E+00 2.963734914E-02
 -4.500000000E-01 1.000000000E+00 1.998680015E-02
 9.863135667E-01 -3.839168866E-03 4.192446658E-01
 9.049941424E-01 -4.021537733E-03 3.831777767E-01
 8.248894311E-01 -1.113408876E-02 2.997844127E-01
 7.525172093E-01 -2.005177442E-02 1.969689316E-01
 6.809411185E-01 -2.990114134E-02 9.785117997E-02
 6.102426132E-01 -4.024680609E-02 -3.043181739E-02
 5.458721422E-01 -4.933813990E-02 -1.833429630E-01
 4.868456212E-01 -5.515226082E-02 -3.554786007E-01
 4.329003772E-01 -6.048503342E-02 -5.179050603E-01