TITLE     = "Visualization of the solution"
VARIABLES = "x"
"y"
"Pressure_Coefficient"
ZONE T="Zone"
 STRANDID=0, SOLUTIONTIME=0
 Nodes=11575, Elements=22570, ZONETYPE=FEQuadrilateral
 DATAPACKING=POINT
 DT=(DOUBLE DOUBLE DOUBLE )
 9.998537302E-01 5.178505671E-04 3.320681921E-01
 9.869560599E-01 2.936995123E-03 2.937161645E-01
 9.744902253E-01 5.215982907E-03 2.191939994E-01
 9.605460167E-01 7.855773903E-03 1.368448152E-01
 9.466264844E-01 1.034135558E-02 1.029055725E-01
 9.338238239E-01 1.268280111E-02 5.556267564E-02
 9.228737354E-01 1.466834545E-02 1.468809516E-02
 9.107175469E-01 1.684255898E-02 -3.178363054E-02
 8.990488648E-01 1.884951442E-02 -6.850097927E-02
 8.863514066E-01 2.091337182E-02 -8.527861350E-02
 8.739430904E-01 2.290056832E-02 -1.143220736E-01
 8.616700768E-01 2.477732301E-02 -1.242116312E-01
 8.493957520E-01 2.668341435E-02 -1.715581907E-01
 8.372265697E-01 2.840595506E-02 -1.652991578E-01
 8.252189159E-01 3.012387455E-02 -1.867378543E-01
 8.120974898E-01 3.195036203E-02 -2.065734467E-01
 7.990705967E-01 3.370924667E-02 -2.210813377E-01
 7.869353294E-01 3.530938178E-02 -2.339808367E-01
 7.743971944E-01 3.694321960E-02 -2.536713416E-01
 7.620387673E-01 3.849390894E-02 -2.596135620E-01
 7.491894364E-01 4.012513533E-02 -2.899442598E-01
 7.352236509E-01 4.181729257E-02 -3.036296183E-01
 7.243300676E-01 4.313071817E-02 -3.294373566E-01
 7.130110860E-01 4.444581643E-02 -3.455623691E-01
 7.010958791E-01 4.578499869E-02 -3.596694514E-01
 6.874170899E-01 4.728900269E-02 -3.836675525E-01
 6.742393374E-01 4.866950959E-02 -3.964399016E-01
 6.640155315E-01 4.972899333E-02 -4.249617798E-01
 6.522461772E-01 5.090330914E-02 -4.495924032E-01
 6.409023404E-01 5.195215717E-02 -4.491898155E-01
 6.291238070E-01 5.304012448E-02 -4.861928742E-01
 6.180422306E-01 5.401135981E-02 -5.158797945E-01
 6.068781614E-01 5.490776151E-02 -5.185391326E-01
 5.943709612E-01 5.586234480E-02 -5.355420285E-01
 5.825401545E-01 5.671796575E-02 -5.582737590E-01
 5.691278577E-01 5.761215091E-02 -5.822984126E-01
 5.565689802E-01 5.837207288E-02 -6.067636540E-01
 5.442324877E-01 5.904878303E-02 -6.270974948E-01
 5.332791209E-01 5.957012251E-02 -6.323806289E-01
 5.213911533E-01 6.008907035E-02 -6.472301584E-01
 5.085680485E-01 6.055796146E-02 -6.467417946E-01
 4.975865781E-01 6.089390442E-02 -6.449992183E-01
 4.846208990E-01 6.123188138E-02 -6.626359245E-01
 4.717057645E-01 6.149233133E-02 -6.613416041E-01
 4.575730264E-01 6.166495755E-02 -6.443300395E-01
 4.437433183E-01 6.175128371E-02 -6.350315693E-01
 4.307395816E-01 6.175435334E-02 -6.314789397E-01
 4.177748859E-01 6.169034168E-02 -6.255209527E-01
 4.053621888E-01 6.153748184E-02 -6.036842564E-01
 3.928049207E-01 6.132473797E-02 -5.946188931E-01
 3.805643916E-01 6.105243042E-02 -5.857086502E-01
 3.692582548E-01 6.073630974E-02 -5.651109381E-01
 3.562036455E-01 6.030689925E-02 -5.525117135E-01
 3.440878987E-01 5.985505879E-02 -5.448473360E-01
 3.317228854E-01 5.932223052E-02 -5.343762189E-01
 3.211116195E-01 5.881261453E-02 -5.201520044E-01
 3.088200092E-01 5.815910548E-02 -5.039575942E-01
 2.956489325E-01 5.739302561E-02 -4.900058029E-01
 2.817364931E-01 5.650371686E-02 -4.752422684E-01
 2.687765062E-01 5.559740588E-02 -4.609450013E-01
 2.566159070E-01 5.469370633E-02 -4.521429659E-01
 2.436959147E-01 5.363938585E-02 -4.312309794E-01
 2.306195945E-01 5.251018330E-02 -4.179577492E-01
 2.182307690E-01 5.135628954E-02 -3.996992482E-01
 2.063394189E-01 5.020347610E-02 -3.940441908E-01
 1.948045194E-01 4.899360612E-02 -3.721409133E-01
 1.823114902E-01 4.763075709E-02 -3.639688610E-01
 1.703084111E-01 4.622277617E-02 -3.433606214E-01
 1.584650576E-01 4.476397485E-02 -3.273673056E-01
 1.465048045E-01 4.321988672E-02 -3.191612489E-01
 1.355464011E-01 4.171157628E-02 -3.017213635E-01
 1.241359636E-01 4.005378485E-02 -2.847201673E-01
 1.126492172E-01 3.829159960E-02 -2.708831755E-01
 1.019204929E-01 3.653828055E-02 -2.543669468E-01
 9.195246547E-02 3.481439874E-02 -2.361207011E-01
 8.088435233E-02 3.278330714E-02 -2.182200702E-01
 6.914950162E-02 3.045249358E-02 -1.946821239E-01
 5.959397182E-02 2.840609476E-02 -1.748467189E-01
 5.009742826E-02 2.620524168E-02 -1.532538931E-01
 4.146082699E-02 2.401377819E-02 -1.298304261E-01
 3.413131461E-02 2.196738869E-02 -1.037757302E-01
 2.785529196E-02 2.005059086E-02 -7.264785875E-02
 2.243039012E-02 1.820880361E-02 -4.755099614E-02
 1.858228818E-02 1.678098179E-02 -1.446670169E-02
 1.498470176E-02 1.530780829E-02 1.718042904E-02
 1.236589625E-02 1.413352601E-02 5.427110926E-02
 1.004394423E-02 1.299371477E-02 8.885359189E-02
 8.360752836E-03 1.209184155E-02 1.231725026E-01
 6.809019949E-03 1.119050849E-02 1.584411550E-01
 5.352112930E-03 1.025616750E-02 2.363612286E-01
 3.444755916E-03 8.870074525E-03 3.297995161E-01
 1.808674540E-03 7.455936167E-03 4.222713694E-01
 4.076154437E-04 5.940444767E-03 6.417181256E-01
 -9.507483919E-04 3.875239752E-03 8.764917599E-01
 -1.598591916E-03 2.226461656E-03 1.030691297E+00
 -1.853646128E-03 9.096320719E-04 1.141044529E+00
 -1.872787368E-03 -6.631611614E-04 1.192213348E+00
 -1.524045714E-03 -2.495653462E-03 1.157588639E+00
 -6.654817844E-04 -4.593918100E-03 1.024615354E+00
 7.884786464E-04 -6.868325174E-03 8.623285670E-01
 2.871638164E-03 -9.255621582E-03 6.850058074E-01
 4.706214648E-03 -1.096099801E-02 5.320589355E-01
 6.909506861E-03 -1.272883452E-02 4.382945335E-01
 8.531722240E-03 -1.389111020E-02 3.464709087E-01
 1.057735085E-02 -1.522849500E-02 2.932447300E-01
 1.296558231E-02 -1.666313224E-02 2.196150769E-01
 1.620857976E-02 -1.842113212E-02 1.469945395E-01
 1.933614351E-02 -1.995959692E-02 7.835183223E-02
 2.337426879E-02 -2.177585475E-02 2.107734826E-02
 2.885491773E-02 -2.398494445E-02 -3.607328796E-02
 3.460261971E-02 -2.607222833E-02 -9.512966997E-02
 4.207226261E-02 -2.850634418E-02 -1.398922246E-01
 4.967687279E-02 -3.073632903E-02 -1.834904470E-01
 5.867728963E-02 -3.311911970E-02 -2.156750482E-01
 6.743559986E-02 -3.523619473E-02 -2.450975752E-01
 7.776972651E-02 -3.752957284E-02 -2.738386657E-01
 8.775237948E-02 -3.956185654E-02 -2.968910635E-01
 9.828174859E-02 -4.154482111E-02 -3.144186450E-01
 1.091803685E-01 -4.345420003E-02 -3.359067202E-01
 1.206903011E-01 -4.532565549E-02 -3.525419404E-01
 1.321122199E-01 -4.706518352E-02 -3.751070429E-01
 1.426443309E-01 -4.855434597E-02 -3.883960645E-01
 1.537182778E-01 -5.003856495E-02 -4.069613874E-01
 1.655406058E-01 -5.151754990E-02 -4.255173587E-01
 1.771175563E-01 -5.287248641E-02 -4.451962499E-01
 1.888906956E-01 -5.415304750E-02 -4.608264306E-01
 1.994233727E-01 -5.523129180E-02 -4.833517693E-01
 2.106460780E-01 -5.630028248E-02 -5.040483161E-01
 2.228430361E-01 -5.735990405E-02 -5.152932999E-01
 2.354825139E-01 -5.838941783E-02 -5.488541102E-01
 2.475536615E-01 -5.925423652E-02 -5.699223715E-01
 2.600688934E-01 -6.005873531E-02 -5.842138579E-01
 2.712189853E-01 -6.070988253E-02 -6.232527744E-01
 2.839379609E-01 -6.132078916E-02 -6.387485111E-01
 2.966381311E-01 -6.183985621E-02 -6.575600748E-01
 3.095547855E-01 -6.224775314E-02 -6.804782317E-01
 3.212850690E-01 -6.252747029E-02 -7.183981501E-01
 3.337241411E-01 -6.269455701E-02 -7.451242236E-01
 3.443555236E-01 -6.274672598E-02 -7.642382186E-01
 3.556948304E-01 -6.270954758E-02 -7.769817984E-01
 3.667666912E-01 -6.257506460E-02 -8.026860226E-01
 3.773945868E-01 -6.233460829E-02 -8.247896531E-01
 3.888252676E-01 -6.198472530E-02 -8.267447407E-01
 4.014137983E-01 -6.145920232E-02 -7.157802286E-01
 4.136974216E-01 -6.083150208E-02 -6.146020102E-01
 4.267318249E-01 -6.001729518E-02 -5.986601366E-01
 4.396078289E-01 -5.909378454E-02 -5.870322766E-01
 4.525140822E-01 -5.802301690E-02 -5.412345317E-01
 4.648879468E-01 -5.688225478E-02 -4.978873083E-01
 4.774415493E-01 -5.560265109E-02 -4.504907096E-01
 4.892602563E-01 -5.432300642E-02 -4.164441016E-01
 5.016455650E-01 -5.286194757E-02 -3.632362522E-01
 5.154054761E-01 -5.118142441E-02 -3.235939869E-01
 5.292608738E-01 -4.940093681E-02 -2.846829883E-01
 5.425687432E-01 -4.759913683E-02 -2.361501136E-01
 5.565003157E-01 -4.569983482E-02 -2.080242158E-01
 5.692876577E-01 -4.389072582E-02 -1.735938098E-01
 5.826342702E-01 -4.195414111E-02 -1.350302566E-01
 5.950813293E-01 -4.015224054E-02 -1.131676441E-01
 6.073592305E-01 -3.832373396E-02 -7.834802329E-02
 6.208708286E-01 -3.631086275E-02 -4.669389861E-02
 6.352323890E-01 -3.421337157E-02 -3.002033915E-02
 6.490911245E-01 -3.214968368E-02 -1.602219731E-03
 6.625072956E-01 -3.015641496E-02 2.207388129E-02
 6.760509014E-01 -2.814159915E-02 4.710067222E-02
 6.885200739E-01 -2.628835291E-02 7.253442015E-02
 7.012504339E-01 -2.445052564E-02 8.547405448E-02
 7.156435251E-01 -2.235021442E-02 1.133113195E-01
 7.286692858E-01 -2.050203457E-02 1.285944688E-01
 7.400887609E-01 -1.887521893E-02 1.528983400E-01
 7.527555227E-01 -1.713874564E-02 1.654659263E-01
 7.652842999E-01 -1.545133721E-02 1.808711796E-01
 7.781531811E-01 -1.372863073E-02 2.020448782E-01
 7.899956107E-01 -1.219600625E-02 2.170206331E-01
 8.022673130E-01 -1.062700246E-02 2.395726110E-01
 8.136136532E-01 -9.268401191E-03 2.470307195E-01
 8.247867227E-01 -7.925942540E-03 2.721429495E-01
 8.373324871E-01 -6.532275584E-03 2.837757087E-01
 8.496136665E-01 -5.245355424E-03 2.984053142E-01
 8.617175221E-01 -4.059601575E-03 3.129645400E-01
 8.736159205E-01 -2.998036565E-03 3.244272550E-01
 8.853494525E-01 -2.040079795E-03 3.383842979E-01
 8.985193372E-01 -1.121544163E-03 3.458417620E-01
 9.087886810E-01 -5.234886776E-04 3.498103418E-01
 9.188199043E-01 -2.301690438E-05 3.531058692E-01
 9.283701181E-01 3.551920818E-04 3.555586001E-01
 9.375476837E-01 6.356462836E-04 3.550588381E-01
 9.497957826E-01 8.936756058E-04 3.523663061E-01
 9.634144306E-01 1.013979316E-03 3.463279032E-01
 9.778071642E-01 9.677317576E-04 3.403962698E-01
 9.901519418E-01 7.762167952E-04 3.523575731E-01
 -5.000000000E-01 -1.000000000E+00 1.414512159E-02
 3.500000000E+00 -1.000000000E+00 4.293979990E-03
 3.500000000E+00 1.000000000E+00 -1.806968606E-02
 -5.000000000E-01 1.000000000E+00 1.399210372E-02
 9.934048951E-01 1.727422845E-03 3.705189142E-01
 9.807231426E-01 4.076489015E-03 2.562310138E-01
 9.675181210E-01 6.535878405E-03 1.714454302E-01
 9.535862505E-01 9.098564740E-03 1.219126543E-01
 9.402251542E-01 1.151207834E-02 7.791180383E-02
 9.283487797E-01 1.367557328E-02 3.465605200E-02
 9.167956412E-01 1.575545222E-02 -9.751238228E-03
 9.048832059E-01 1.784603670E-02 -5.399789919E-02
 8.927001357E-01 1.988144312E-02 -7.412742130E-02
 8.801472485E-01 2.190697007E-02 -1.030396025E-01
 8.678065836E-01 2.383894566E-02 -1.130819593E-01
 8.555329144E-01 2.573036868E-02 -1.562210772E-01
 8.433111608E-01 2.754468471E-02 -1.636943511E-01
 8.312227428E-01 2.926491480E-02 -1.762888172E-01
 8.186582029E-01 3.103711829E-02 -1.973111340E-01
 8.055840433E-01 3.282980435E-02 -2.142000390E-01
 7.930029631E-01 3.450931422E-02 -2.257839103E-01
 7.806662619E-01 3.612630069E-02 -2.469292514E-01
 7.682179809E-01 3.771856427E-02 -2.519737544E-01
 7.556141019E-01 3.930952214E-02 -2.782511289E-01
 7.422065437E-01 4.097121395E-02 -2.943673948E-01
 7.297768593E-01 4.247400537E-02 -3.179369069E-01
 7.186705768E-01 4.378826730E-02 -3.385464000E-01
 7.070534825E-01 4.511540756E-02 -3.508452431E-01
 6.942564845E-01 4.653700069E-02 -3.738639640E-01
 6.808282137E-01 4.797925614E-02 -3.876206959E-01
 6.691274345E-01 4.919925146E-02 -4.097465973E-01
 6.581308544E-01 5.031615123E-02 -4.431215801E-01
 6.465742588E-01 5.142773315E-02 -4.441681058E-01
 6.350130737E-01 5.249614082E-02 -4.664161677E-01
 6.235830188E-01 5.352574214E-02 -5.058163757E-01
 6.124601960E-01 5.445956066E-02 -5.165921402E-01
 6.006245613E-01 5.538505316E-02 -5.249789196E-01
 5.884555578E-01 5.629015528E-02 -5.480245976E-01
 5.758340061E-01 5.716505833E-02 -5.701054239E-01
 5.628484190E-01 5.799211189E-02 -5.935566852E-01
 5.504007339E-01 5.871042795E-02 -6.202075327E-01
 5.387558043E-01 5.930945277E-02 -6.268030736E-01
 5.273351371E-01 5.982959643E-02 -6.428999842E-01
 5.149796009E-01 6.032351591E-02 -6.473557698E-01
 5.030773133E-01 6.072593294E-02 -6.435269333E-01
 4.911037385E-01 6.106289290E-02 -6.537908196E-01
 4.781633317E-01 6.136210635E-02 -6.671204310E-01
 4.646393955E-01 6.157864444E-02 -6.514816086E-01
 4.506581724E-01 6.170812063E-02 -6.390776388E-01
 4.372414500E-01 6.175281852E-02 -6.316795659E-01
 4.242572337E-01 6.172234751E-02 -6.319091837E-01
 4.115685374E-01 6.161391176E-02 -6.129489081E-01
 3.990835547E-01 6.143110991E-02 -5.985349534E-01
 3.866846561E-01 6.118858419E-02 -5.908562732E-01
 3.749113232E-01 6.089437008E-02 -5.764600984E-01
 3.627309501E-01 6.052160449E-02 -5.565048131E-01
 3.501457721E-01 6.008097902E-02 -5.501524347E-01
 3.379053921E-01 5.958864465E-02 -5.384473820E-01
 3.264172524E-01 5.906742252E-02 -5.287398700E-01
 3.149658144E-01 5.848586001E-02 -5.117838377E-01
 3.022344708E-01 5.777606554E-02 -4.975071217E-01
 2.886927128E-01 5.694837123E-02 -4.831260676E-01
 2.752564996E-01 5.605056137E-02 -4.653267477E-01
 2.626962066E-01 5.514555611E-02 -4.599416741E-01
 2.501559108E-01 5.416654609E-02 -4.399916712E-01
 2.371577546E-01 5.307478458E-02 -4.261167430E-01
 2.244251817E-01 5.193323642E-02 -4.055966102E-01
 2.122850940E-01 5.077988282E-02 -4.000148292E-01
 2.005719692E-01 4.959854111E-02 -3.811990280E-01
 1.885580048E-01 4.831218161E-02 -3.699809565E-01
 1.763099506E-01 4.692676663E-02 -3.531251179E-01
 1.643867344E-01 4.549337551E-02 -3.344328925E-01
 1.524849311E-01 4.399193078E-02 -3.238356392E-01
 1.410256028E-01 4.246573150E-02 -3.110552778E-01
 1.298411824E-01 4.088268057E-02 -2.930495810E-01
 1.183925904E-01 3.917269222E-02 -2.782827539E-01
 1.072848551E-01 3.741494007E-02 -2.618855232E-01
 9.693647921E-02 3.567633964E-02 -2.462966167E-01
 8.641840890E-02 3.379885294E-02 -2.296191273E-01
 7.501692697E-02 3.161790036E-02 -2.075745716E-01
 7.260266319E-02 -3.638288379E-02 -2.614123724E-01
 8.276105300E-02 -3.854571469E-02 -2.877041176E-01
 9.301706403E-02 -4.055333883E-02 -3.051378944E-01
 1.037310585E-01 -4.249951057E-02 -3.255019686E-01
 1.149353348E-01 -4.438992776E-02 -3.446095048E-01
 1.264012605E-01 -4.619541951E-02 -3.633893972E-01
 1.373782754E-01 -4.780976474E-02 -3.848433983E-01
 1.481813043E-01 -4.929645546E-02 -3.952905380E-01
 1.596294418E-01 -5.077805743E-02 -4.166835763E-01
 1.713290811E-01 -5.219501816E-02 -4.353562581E-01
 1.830041260E-01 -5.351276696E-02 -4.537861384E-01
 1.941570342E-01 -5.469216965E-02 -4.716634223E-01
 2.050347254E-01 -5.576578714E-02 -4.936134666E-01
 2.167445570E-01 -5.683009326E-02 -5.104191902E-01
 2.291627750E-01 -5.787466094E-02 -5.279426721E-01
 2.415180877E-01 -5.882182717E-02 -5.641472349E-01
 2.538112774E-01 -5.965648592E-02 -5.750951792E-01
 2.656439394E-01 -6.038430892E-02 -6.012519711E-01
 2.775784731E-01 -6.101533584E-02 -6.354140796E-01
 2.902880460E-01 -6.158032268E-02 -6.449378849E-01
 3.030964583E-01 -6.204380468E-02 -6.695113958E-01
 3.154199272E-01 -6.238761172E-02 -6.971927403E-01
 3.275046051E-01 -6.261101365E-02 -7.346191770E-01
 3.390398324E-01 -6.272064149E-02 -7.564820634E-01
 3.500251770E-01 -6.272813678E-02 -7.695607153E-01
 3.612307608E-01 -6.264230609E-02 -7.873927312E-01
 3.720806390E-01 -6.245483644E-02 -8.174519100E-01
 3.831099272E-01 -6.215966679E-02 -8.289065985E-01
 3.951195329E-01 -6.172196381E-02 -7.893029077E-01
 4.075556099E-01 -6.114535220E-02 -6.476559274E-01
 4.202146232E-01 -6.042439863E-02 -6.027809266E-01
 4.331698269E-01 -5.955553986E-02 -5.953238638E-01
 4.460609555E-01 -5.855840072E-02 -5.674869283E-01
 4.587010145E-01 -5.745263584E-02 -5.186376571E-01
 4.711647481E-01 -5.624245293E-02 -4.755577188E-01
 4.833509028E-01 -5.496282876E-02 -4.317328049E-01
 4.954529107E-01 -5.359247699E-02 -3.935732054E-01
 5.085255206E-01 -5.202168599E-02 -3.398169174E-01
 5.223331749E-01 -5.029118061E-02 -3.056588552E-01
 5.359148085E-01 -4.850003682E-02 -2.621648035E-01
 5.495345294E-01 -4.664948583E-02 -2.187215682E-01
 5.628939867E-01 -4.479528032E-02 -1.930538552E-01
 5.759609640E-01 -4.292243347E-02 -1.544391506E-01
 5.888577998E-01 -4.105319083E-02 -1.219916745E-01
 6.012202799E-01 -3.923798725E-02 -9.845079950E-02
 6.141150296E-01 -3.731729835E-02 -6.170098917E-02
 6.280516088E-01 -3.526211716E-02 -3.639390790E-02
 6.421617568E-01 -3.318152763E-02 -1.755613738E-02
 6.557992101E-01 -3.115304932E-02 1.098053852E-02
 6.692790985E-01 -2.914900705E-02 3.420016769E-02
 6.822854877E-01 -2.721497603E-02 5.937812917E-02
 6.948852539E-01 -2.536943927E-02 8.074368235E-02
 7.084469795E-01 -2.340037003E-02 9.729725632E-02
 7.221564054E-01 -2.142612450E-02 1.229656143E-01
 7.343790233E-01 -1.968862675E-02 1.391812232E-01
 7.464221418E-01 -1.800698228E-02 1.603594488E-01
 7.590199113E-01 -1.629504142E-02 1.730865248E-01
 7.717187405E-01 -1.458998397E-02 1.901983561E-01
 7.840743959E-01 -1.296231849E-02 2.105118441E-01
 7.961314619E-01 -1.141150435E-02 2.268982276E-01
 8.079404831E-01 -9.947701823E-03 2.458391035E-01
 8.192001879E-01 -8.597171865E-03 2.564570394E-01
 8.310596049E-01 -7.229109062E-03 2.788554690E-01
 8.434730768E-01 -5.888815504E-03 2.909109235E-01
 8.556655943E-01 -4.652478499E-03 3.055201678E-01
 8.676667213E-01 -3.528819070E-03 3.189986052E-01
 8.794826865E-01 -2.519058180E-03 3.306055298E-01
 8.919343948E-01 -1.580811979E-03 3.417774304E-01
 9.036540091E-01 -8.225164202E-04 3.511928140E-01
 9.436717331E-01 7.646609447E-04 3.524976905E-01
 9.566051066E-01 9.538274608E-04 3.490546196E-01
 9.706107974E-01 9.908555367E-04 3.426881149E-01
 9.839795530E-01 8.719742764E-04 3.350434203E-01
 -5.000000000E-01 9.500000000E-01 2.285567390E-02
 -5.000000000E-01 9.000000000E-01 3.456877782E-02
 -5.000000000E-01 8.500000000E-01 4.358380965E-02
 -5.000000000E-01 8.000000000E-01 5.140626353E-02
 -5.000000000E-01 7.500000000E-01 5.888764410E-02
 -5.000000000E-01 7.000000000E-01 6.635077793E-02
 -5.000000000E-01 6.500000000E-01 7.397881380E-02
 -5.000000000E-01 6.000000000E-01 8.161219058E-02
 -5.000000000E-01 5.500000000E-01 8.966815322E-02
 -5.000000000E-01 5.000000000E-01 9.777140411E-02
 -5.000000000E-01 4.500000000E-01 1.059692677E-01
 -5.000000000E-01 4.000000000E-01 1.143487421E-01
 -5.000000000E-01 3.500000000E-01 1.224723489E-01
 -5.000000000E-01 3.000000000E-01 1.303124245E-01
 -5.000000000E-01 2.500000000E-01 1.376542863E-01
 -5.000000000E-01 2.000000000E-01 1.442571423E-01
 -5.000000000E-01 1.500000000E-01 1.496930387E-01
 -5.000000000E-01 1.000000000E-01 1.538599831E-01
 -5.000000000E-01 5.000000000E-02 1.564724312E-01
 -5.000000000E-01 2.752242878E-12 1.573926173E-01
 -5.000000000E-01 -5.000000000E-02 1.566982091E-01
 -5.000000000E-01 -1.000000000E-01 1.543016587E-01
 -5.000000000E-01 -1.500000000E-01 1.503176099E-01
 -5.000000000E-01 -2.000000000E-01 1.450094553E-01
 -5.000000000E-01 -2.500000000E-01 1.385558463E-01
 -5.000000000E-01 -3.000000000E-01 1.313885818E-01
 -5.000000000E-01 -3.500000000E-01 1.234602077E-01
 -5.000000000E-01 -4.000000000E-01 1.154076458E-01
 -5.000000000E-01 -4.500000000E-01 1.070586127E-01
 -5.000000000E-01 -5.000000000E-01 9.882702514E-02
 -5.000000000E-01 -5.500000000E-01 9.061724354E-02
 -5.000000000E-01 -6.000000000E-01 8.266696155E-02
 -5.000000000E-01 -6.500000000E-01 7.484940316E-02
 -5.000000000E-01 -7.000000000E-01 6.724895058E-02
 -5.000000000E-01 -7.500000000E-01 5.975499418E-02
 -5.000000000E-01 -8.000000000E-01 5.216872877E-02
 -5.000000000E-01 -8.500000000E-01 4.416274444E-02
 -5.000000000E-01 -9.000000000E-01 3.519851433E-02
 -5.000000000E-01 -9.500000000E-01 2.313837905E-02
 -4.500000000E-01 -1.000000000E+00 1.915117058E-02
 -4.000000000E-01 -1.000000000E+00 2.847853838E-02
 -3.500000000E-01 -1.000000000E+00 3.423618748E-02
 -3.000000000E-01 -1.000000000E+00 3.776994148E-02
 -2.500000000E-01 -1.000000000E+00 3.973887133E-02
 -2.000000000E-01 -1.000000000E+00 4.017372118E-02
 -1.500000000E-01 -1.000000000E+00 3.905649462E-02
 -1.000000000E-01 -1.000000000E+00 3.628989970E-02
 -5.000000000E-02 -1.000000000E+00 3.201550651E-02
 -9.424683256E-13 -1.000000000E+00 2.615855438E-02
 5.000000000E-02 -1.000000000E+00 1.891955589E-02
 1.000000000E-01 -1.000000000E+00 1.041874581E-02
 1.500000000E-01 -1.000000000E+00 9.750945924E-04
 2.000000000E-01 -1.000000000E+00 -8.890941251E-03
 2.500000000E-01 -1.000000000E+00 -1.889723271E-02
 3.000000000E-01 -1.000000000E+00 -2.826218021E-02
 3.500000000E-01 -1.000000000E+00 -3.700975799E-02
 4.000000000E-01 -1.000000000E+00 -4.431817549E-02
 4.500000000E-01 -1.000000000E+00 -5.041783841E-02
 5.000000000E-01 -1.000000000E+00 -5.411170201E-02
 5.500000000E-01 -1.000000000E+00 -5.650764628E-02
 6.000000000E-01 -1.000000000E+00 -5.628990665E-02
 6.500000000E-01 -1.000000000E+00 -5.426549074E-02
 7.000000000E-01 -1.000000000E+00 -5.077817523E-02
 7.500000000E-01 -1.000000000E+00 -4.580207122E-02
 8.000000000E-01 -1.000000000E+00 -3.988220167E-02
 8.500000000E-01 -1.000000000E+00 -3.329638686E-02
 9.000000000E-01 -1.000000000E+00 -2.631283739E-02
 9.500000000E-01 -1.000000000E+00 -1.928582605E-02
 1.000000000E+00 -1.000000000E+00 -1.263103958E-02
 1.050000000E+00 -1.000000000E+00 -6.217823515E-03
 1.100000000E+00 -1.000000000E+00 -7.112214221E-04
 1.150000000E+00 -1.000000000E+00 4.437391093E-03
 1.200000000E+00 -1.000000000E+00 8.860059025E-03
 1.250000000E+00 -1.000000000E+00 1.257523905E-02
 1.300000000E+00 -1.000000000E+00 1.560807343E-02
 1.350000000E+00 -1.000000000E+00 1.809749557E-02
 1.400000000E+00 -1.000000000E+00 2.005106026E-02
 1.450000000E+00 -1.000000000E+00 2.146715856E-02
 1.500000000E+00 -1.000000000E+00 2.268571604E-02
 1.550000000E+00 -1.000000000E+00 2.318730918E-02
 1.600000000E+00 -1.000000000E+00 2.376077052E-02
 1.650000000E+00 -1.000000000E+00 2.389233241E-02
 1.700000000E+00 -1.000000000E+00 2.388301211E-02
 1.750000000E+00 -1.000000000E+00 2.365955892E-02
 1.800000000E+00 -1.000000000E+00 2.353074193E-02
 1.850000000E+00 -1.000000000E+00 2.296634896E-02
 1.900000000E+00 -1.000000000E+00 2.262549997E-02
 1.950000000E+00 -1.000000000E+00 2.208492254E-02
 2.000000000E+00 -1.000000000E+00 2.149856542E-02
 2.050000000E+00 -1.000000000E+00 2.094782969E-02
 2.100000000E+00 -1.000000000E+00 2.040788320E-02
 2.150000000E+00 -1.000000000E+00 1.981503132E-02
 2.200000000E+00 -1.000000000E+00 1.924807040E-02
 2.250000000E+00 -1.000000000E+00 1.869859064E-02
 2.300000000E+00 -1.000000000E+00 1.816812193E-02
 2.350000000E+00 -1.000000000E+00 1.766786536E-02
 2.400000000E+00 -1.000000000E+00 1.717929138E-02
 2.450000000E+00 -1.000000000E+00 1.673269461E-02
 2.500000000E+00 -1.000000000E+00 1.629674758E-02
 2.550000000E+00 -1.000000000E+00 1.592776931E-02
 2.600000000E+00 -1.000000000E+00 1.558673025E-02
 2.650000000E+00 -1.000000000E+00 1.528114188E-02
 2.700000000E+00 -1.000000000E+00 1.498796256E-02
 2.750000000E+00 -1.000000000E+00 1.475747194E-02
 2.800000000E+00 -1.000000000E+00 1.449555173E-02
 2.850000000E+00 -1.000000000E+00 1.432830482E-02
 2.900000000E+00 -1.000000000E+00 1.420123190E-02
 2.950000000E+00 -1.000000000E+00 1.403392195E-02
 3.000000000E+00 -1.000000000E+00 1.393869765E-02
 3.050000000E+00 -1.000000000E+00 1.385382631E-02
 3.100000000E+00 -1.000000000E+00 1.370843790E-02
 3.150000000E+00 -1.000000000E+00 1.366292665E-02
 3.200000000E+00 -1.000000000E+00 1.345274970E-02
 3.250000000E+00 -1.000000000E+00 1.327344675E-02
 3.300000000E+00 -1.000000000E+00 1.288012580E-02
 3.350000000E+00 -1.000000000E+00 1.234162428E-02
 3.400000000E+00 -1.000000000E+00 1.114056494E-02
 3.450000000E+00 -1.000000000E+00 8.308443212E-03
 3.500000000E+00 -9.500000000E-01 2.685650840E-03
 3.500000000E+00 -9.000000000E-01 5.052571240E-03
 3.500000000E+00 -8.500000000E-01 7.064145061E-03
 3.500000000E+00 -8.000000000E-01 8.844752025E-03
 3.500000000E+00 -7.500000000E-01 1.026026183E-02
 3.500000000E+00 -7.000000000E-01 1.135022263E-02
 3.500000000E+00 -6.500000000E-01 1.249444011E-02
 3.500000000E+00 -6.000000000E-01 1.375017235E-02
 3.500000000E+00 -5.500000000E-01 1.511325959E-02
 3.500000000E+00 -5.000000000E-01 1.653991373E-02
 3.500000000E+00 -4.500000000E-01 1.797093621E-02
 3.500000000E+00 -4.000000000E-01 1.943720516E-02
 3.500000000E+00 -3.500000000E-01 2.088360187E-02
 3.500000000E+00 -3.000000000E-01 2.224976240E-02
 3.500000000E+00 -2.500000000E-01 2.340551325E-02
 3.500000000E+00 -2.000000000E-01 2.414874601E-02
 3.500000000E+00 -1.500000000E-01 2.440674220E-02
 3.500000000E+00 -1.000000000E-01 2.426062950E-02
 3.500000000E+00 -5.000000000E-02 2.405610764E-02
 3.500000000E+00 -2.752242878E-12 2.410011011E-02
 3.500000000E+00 5.000000000E-02 2.430702985E-02
 3.500000000E+00 1.000000000E-01 2.438917043E-02
 3.500000000E+00 1.500000000E-01 2.397933960E-02
 3.500000000E+00 2.000000000E-01 2.307292814E-02
 3.500000000E+00 2.500000000E-01 2.180531205E-02
 3.500000000E+00 3.000000000E-01 2.047664088E-02
 3.500000000E+00 3.500000000E-01 1.917984485E-02
 3.500000000E+00 4.000000000E-01 1.766590842E-02
 3.500000000E+00 4.500000000E-01 1.617306617E-02
 3.500000000E+00 5.000000000E-01 1.464829306E-02
 3.500000000E+00 5.500000000E-01 1.323222505E-02
 3.500000000E+00 6.000000000E-01 1.215338372E-02
 3.500000000E+00 6.500000000E-01 1.155619336E-02
 3.500000000E+00 7.000000000E-01 1.106948702E-02
 3.500000000E+00 7.500000000E-01 9.611467920E-03
 3.500000000E+00 8.000000000E-01 6.228961926E-03
 3.500000000E+00 8.500000000E-01 -6.370930570E-04
 3.500000000E+00 9.000000000E-01 -9.649749809E-03
 3.500000000E+00 9.500000000E-01 -2.029169491E-02
 3.450000000E+00 1.000000000E+00 -7.349426735E-03
 3.400000000E+00 1.000000000E+00 -4.341491243E-04
 3.350000000E+00 1.000000000E+00 1.653791111E-03
 3.300000000E+00 1.000000000E+00 1.851899371E-03
 3.250000000E+00 1.000000000E+00 1.853059435E-03
 3.200000000E+00 1.000000000E+00 1.295814084E-03
 3.150000000E+00 1.000000000E+00 7.026607037E-04
 3.100000000E+00 1.000000000E+00 5.526585360E-05
 3.050000000E+00 1.000000000E+00 -6.943836837E-04
 3.000000000E+00 1.000000000E+00 -1.491593840E-03
 2.950000000E+00 1.000000000E+00 -2.220652811E-03
 2.900000000E+00 1.000000000E+00 -3.034517148E-03
 2.850000000E+00 1.000000000E+00 -3.871774984E-03
 2.800000000E+00 1.000000000E+00 -4.649257311E-03
 2.750000000E+00 1.000000000E+00 -5.566399066E-03
 2.700000000E+00 1.000000000E+00 -6.507019024E-03
 2.650000000E+00 1.000000000E+00 -7.353844862E-03
 2.600000000E+00 1.000000000E+00 -8.503556487E-03
 2.550000000E+00 1.000000000E+00 -9.337100107E-03
 2.500000000E+00 1.000000000E+00 -1.045242468E-02
 2.450000000E+00 1.000000000E+00 -1.146270098E-02
 2.400000000E+00 1.000000000E+00 -1.262768653E-02
 2.350000000E+00 1.000000000E+00 -1.391367509E-02
 2.300000000E+00 1.000000000E+00 -1.506776530E-02
 2.250000000E+00 1.000000000E+00 -1.643615185E-02
 2.200000000E+00 1.000000000E+00 -1.782321092E-02
 2.150000000E+00 1.000000000E+00 -1.926222572E-02
 2.100000000E+00 1.000000000E+00 -2.089469356E-02
 2.050000000E+00 1.000000000E+00 -2.258670193E-02
 2.000000000E+00 1.000000000E+00 -2.447009700E-02
 1.950000000E+00 1.000000000E+00 -2.647474742E-02
 1.900000000E+00 1.000000000E+00 -2.867738597E-02
 1.850000000E+00 1.000000000E+00 -3.101137170E-02
 1.800000000E+00 1.000000000E+00 -3.348000501E-02
 1.750000000E+00 1.000000000E+00 -3.629875302E-02
 1.700000000E+00 1.000000000E+00 -3.938102079E-02
 1.650000000E+00 1.000000000E+00 -4.269867687E-02
 1.600000000E+00 1.000000000E+00 -4.629361190E-02
 1.550000000E+00 1.000000000E+00 -5.055803403E-02
 1.500000000E+00 1.000000000E+00 -5.471144397E-02
 1.450000000E+00 1.000000000E+00 -5.963113261E-02
 1.400000000E+00 1.000000000E+00 -6.478492674E-02
 1.350000000E+00 1.000000000E+00 -7.066712796E-02
 1.300000000E+00 1.000000000E+00 -7.636834374E-02
 1.250000000E+00 1.000000000E+00 -8.316570162E-02
 1.200000000E+00 1.000000000E+00 -8.990434544E-02
 1.150000000E+00 1.000000000E+00 -9.611054169E-02
 1.100000000E+00 1.000000000E+00 -1.037102537E-01
 1.050000000E+00 1.000000000E+00 -1.094676833E-01
 1.000000000E+00 1.000000000E+00 -1.164351707E-01
 9.500000000E-01 1.000000000E+00 -1.211439013E-01
 9.000000000E-01 1.000000000E+00 -1.252397011E-01
 8.500000000E-01 1.000000000E+00 -1.279433785E-01
 8.000000000E-01 1.000000000E+00 -1.282830510E-01
 7.500000000E-01 1.000000000E+00 -1.279347872E-01
 7.000000000E-01 1.000000000E+00 -1.245132763E-01
 6.500000000E-01 1.000000000E+00 -1.198461363E-01
 6.000000000E-01 1.000000000E+00 -1.126217058E-01
 5.500000000E-01 1.000000000E+00 -1.038623683E-01
 5.000000000E-01 1.000000000E+00 -9.246599448E-02
 4.500000000E-01 1.000000000E+00 -8.144445596E-02
 4.000000000E-01 1.000000000E+00 -6.780877362E-02
 3.500000000E-01 1.000000000E+00 -5.482721439E-02
 3.000000000E-01 1.000000000E+00 -4.154000813E-02
 2.500000000E-01 1.000000000E+00 -2.831728793E-02
 2.000000000E-01 1.000000000E+00 -1.561990212E-02
 1.500000000E-01 1.000000000E+00 -3.781782564E-03
 1.000000000E-01 1.000000000E+00 6.898125955E-03
 5.000000000E-02 1.000000000E+00 1.629100941E-02
 1.733724275E-12 1.000000000E+00 2.421434502E-02
 -5.000000000E-02 1.000000000E+00 3.047929989E-02
 -1.000000000E-01 1.000000000E+00 3.517716125E-02
 -1.500000000E-01 1.000000000E+00 3.807517988E-02
 -2.000000000E-01 1.000000000E+00 3.940061823E-02
 -2.500000000E-01 1.000000000E+00 3.901154380E-02
 -3.000000000E-01 1.000000000E+00 3.708994176E-02
 -3.500000000E-01 1.000000000E+00 3.366361051E-02
 -4.000000000E-01 1.000000000E+00 2.799838114E-02
 -4.500000000E-01 1.000000000E+00 1.886104034E-02
 1.977192309E+00 -9.586193788E-01 2.151884145E-02
 1.975100733E+00 9.562320301E-01 -2.420502858E-02
 9.065767661E-01 -5.270626961E-03 3.440465518E-01
 8.283106748E-01 -1.279153768E-02 2.687511224E-01
 9.873940629E-01 -4.207411885E-03 3.234265913E-01
 7.563918095E-01 -2.169461763E-02 1.674798547E-01
 6.861860074E-01 -3.242416475E-02 6.395942263E-02
 6.180124249E-01 -4.262668600E-02 -5.529797152E-02
 5.537086201E-01 -5.174020304E-02 -2.099021483E-01
 4.928018077E-01 -5.931648690E-02 -3.965307093E-01
 4.367887197E-01 -6.490013547E-02 -5.803173529E-01
 3.812540775E-01 -6.699076290E-02 -8.155929448E-01
 3.246385783E-01 -6.770135225E-02 -7.155023384E-01