TITLE     = "Visualization of the solution"
VARIABLES = "x"
"y"
"Pressure_Coefficient"
ZONE T="Zone"
 STRANDID=0, SOLUTIONTIME=0
 Nodes=11923, Elements=23265, ZONETYPE=FEQuadrilateral
 DATAPACKING=POINT
 DT=(DOUBLE DOUBLE DOUBLE )
 9.998435974E-01 5.119160051E-04 3.430555465E-01
 9.864370823E-01 3.165980568E-03 3.420303132E-01
 9.737064242E-01 5.671516061E-03 2.426607554E-01
 9.581509233E-01 8.698330261E-03 1.790165006E-01
 9.439598918E-01 1.150031667E-02 1.150081127E-01
 9.303185940E-01 1.407315396E-02 9.496962819E-02
 9.189956784E-01 1.632121764E-02 3.630278185E-02
 9.070666432E-01 1.859911159E-02 -5.785385103E-04
 8.951634765E-01 2.081000805E-02 -2.825900342E-02
 8.830435276E-01 2.301733010E-02 -5.193401124E-02
 8.713496327E-01 2.518006042E-02 -1.087930848E-01
 8.588530421E-01 2.727766521E-02 -1.011255226E-01
 8.467425704E-01 2.938330360E-02 -1.459261111E-01
 8.353313208E-01 3.127210960E-02 -1.626100432E-01
 8.237996697E-01 3.315301985E-02 -1.865902230E-01
 8.112390637E-01 3.513039276E-02 -2.005103205E-01
 7.985557318E-01 3.709962219E-02 -2.244765017E-01
 7.863536477E-01 3.893271089E-02 -2.333291450E-01
 7.740254402E-01 4.078852758E-02 -2.627779563E-01
 7.625906467E-01 4.247844219E-02 -2.917491389E-01
 7.496085763E-01 4.431208968E-02 -3.034909143E-01
 7.360126972E-01 4.620650038E-02 -3.322909263E-01
 7.252676487E-01 4.766001552E-02 -3.523914516E-01
 7.141425610E-01 4.911912233E-02 -3.666117333E-01
 7.025682330E-01 5.060905218E-02 -3.893673778E-01
 6.894939542E-01 5.224577710E-02 -4.198126511E-01
 6.766691208E-01 5.377735943E-02 -4.400225931E-01
 6.659561396E-01 5.500759557E-02 -4.523188340E-01
 6.544990540E-01 5.629385635E-02 -4.769510032E-01
 6.432738900E-01 5.751395226E-02 -5.111805570E-01
 6.313308477E-01 5.874923244E-02 -5.338793436E-01
 6.198372841E-01 5.985359475E-02 -5.450229084E-01
 6.093183756E-01 6.084906682E-02 -5.845802410E-01
 5.970305204E-01 6.192073599E-02 -6.042136842E-01
 5.852844119E-01 6.287278235E-02 -6.077414502E-01
 5.717415214E-01 6.389948726E-02 -6.149251093E-01
 5.591024160E-01 6.479003280E-02 -6.313750891E-01
 5.462247729E-01 6.556493789E-02 -7.160737304E-01
 5.350694656E-01 6.620819867E-02 -8.087695435E-01
 5.230900645E-01 6.682588160E-02 -8.050223422E-01
 5.104025602E-01 6.739675254E-02 -7.842730101E-01
 4.993524551E-01 6.781910360E-02 -7.665859036E-01
 4.861404300E-01 6.824936718E-02 -7.549155461E-01
 4.729666710E-01 6.857015938E-02 -7.398802462E-01
 4.591691196E-01 6.883300096E-02 -7.341983620E-01
 4.454247355E-01 6.898819655E-02 -7.244318451E-01
 4.325732291E-01 6.907120347E-02 -7.226040769E-01
 4.195058048E-01 6.907293200E-02 -7.039234468E-01
 4.069704711E-01 6.898695976E-02 -6.797162193E-01
 3.942835331E-01 6.883027405E-02 -6.760751672E-01
 3.822449148E-01 6.862856448E-02 -6.707711851E-01
 3.703317940E-01 6.833988428E-02 -6.511290251E-01
 3.570407331E-01 6.795936078E-02 -6.391760432E-01
 3.444439471E-01 6.749989092E-02 -6.168376700E-01
 3.317542672E-01 6.698433310E-02 -6.084180112E-01
 3.209087551E-01 6.646702439E-02 -5.860858551E-01
 3.084231019E-01 6.582704931E-02 -5.838305173E-01
 2.954130769E-01 6.507746130E-02 -5.686209489E-01
 2.816393673E-01 6.417936087E-02 -5.507708381E-01
 2.693016827E-01 6.330817938E-02 -5.420626189E-01
 2.574029863E-01 6.238416955E-02 -5.232326874E-01
 2.448620051E-01 6.133264303E-02 -5.077132236E-01
 2.323703617E-01 6.020418927E-02 -4.927026741E-01
 2.201098204E-01 5.901058391E-02 -4.771741156E-01
 2.082605809E-01 5.777500570E-02 -4.604944788E-01
 1.965932995E-01 5.647835508E-02 -4.440747376E-01
 1.844282299E-01 5.504091829E-02 -4.316523194E-01
 1.726257056E-01 5.354010314E-02 -4.095871559E-01
 1.611507088E-01 5.199067295E-02 -3.881369682E-01
 1.494899541E-01 5.033177137E-02 -3.764234605E-01
 1.387773901E-01 4.870689288E-02 -3.574029959E-01
 1.275027096E-01 4.688623175E-02 -3.357732174E-01
 1.163441315E-01 4.497074708E-02 -3.172988373E-01
 1.057522446E-01 4.303171858E-02 -2.879669724E-01
 9.593976289E-02 4.112543166E-02 -2.714676159E-01
 8.505690098E-02 3.886483237E-02 -2.409985096E-01
 7.356069982E-02 3.629279882E-02 -2.132957888E-01
 6.361281872E-02 3.388884664E-02 -1.782282339E-01
 5.395176262E-02 3.134841472E-02 -1.432159929E-01
 4.503816739E-02 2.879693359E-02 -1.077902309E-01
 3.737928346E-02 2.639877982E-02 -6.733532457E-02
 3.066304885E-02 2.409490757E-02 -2.348181498E-02
 2.496644668E-02 2.195239067E-02 1.328988328E-02
 2.085956745E-02 2.026206069E-02 6.059182061E-02
 1.691905409E-02 1.849459484E-02 1.026974604E-01
 1.394346170E-02 1.704030111E-02 1.482715038E-01
 1.126261801E-02 1.560868230E-02 1.951676574E-01
 9.249972180E-03 1.443701703E-02 2.371672597E-01
 7.456640247E-03 1.330467220E-02 2.830235405E-01
 5.799513776E-03 1.215016376E-02 3.685711671E-01
 3.628961975E-03 1.043291949E-02 4.654000718E-01
 1.828714390E-03 8.718811907E-03 5.860166499E-01
 3.387736506E-04 6.938829552E-03 7.827413529E-01
 -1.074192347E-03 4.503349308E-03 9.850381134E-01
 -1.685997122E-03 2.601997927E-03 1.114209629E+00
 -1.880855416E-03 1.080743154E-03 1.182020396E+00
 -1.787034795E-03 -6.766634760E-04 1.193122671E+00
 -1.321552205E-03 -2.596719656E-03 1.117349487E+00
 -2.955135424E-04 -4.869205877E-03 9.940191593E-01
 1.280967495E-03 -7.239203434E-03 8.062376590E-01
 3.436579136E-03 -9.678172879E-03 6.493505011E-01
 5.367000587E-03 -1.148105226E-02 5.083898330E-01
 7.664164528E-03 -1.333793066E-02 4.181007210E-01
 9.397974238E-03 -1.459469460E-02 3.294935634E-01
 1.154203899E-02 -1.602411456E-02 2.703038074E-01
 1.400029194E-02 -1.752107963E-02 2.021294108E-01
 1.735983789E-02 -1.938575506E-02 1.350572735E-01
 2.051236853E-02 -2.098020539E-02 6.334156157E-02
 2.461665310E-02 -2.287966758E-02 1.030760699E-02
 3.000774235E-02 -2.512989193E-02 -4.485958960E-02
 3.573027253E-02 -2.728764154E-02 -1.018759215E-01
 4.275796562E-02 -2.969191223E-02 -1.470510388E-01
 5.033664405E-02 -3.203412518E-02 -1.898497670E-01
 5.926430225E-02 -3.454574198E-02 -2.251040823E-01
 6.804310530E-02 -3.678193688E-02 -2.570569572E-01
 7.843692601E-02 -3.922832757E-02 -2.888012787E-01
 8.834080398E-02 -4.135882482E-02 -3.124902499E-01
 9.875036776E-02 -4.343669489E-02 -3.322733224E-01
 1.098983437E-01 -4.550365731E-02 -3.533664684E-01
 1.211225614E-01 -4.743941501E-02 -3.745023338E-01
 1.328088045E-01 -4.931663722E-02 -3.934440538E-01
 1.433204263E-01 -5.089926720E-02 -4.148952619E-01
 1.546584666E-01 -5.250355601E-02 -4.350646785E-01
 1.667380184E-01 -5.408949405E-02 -4.519831238E-01
 1.784088016E-01 -5.552518368E-02 -4.733367835E-01
 1.901499927E-01 -5.686889961E-02 -4.921530345E-01
 2.007132322E-01 -5.800137296E-02 -5.153965716E-01
 2.120752335E-01 -5.913133547E-02 -5.341659771E-01
 2.243409306E-01 -6.026435643E-02 -5.636344405E-01
 2.365608215E-01 -6.127670035E-02 -5.857095156E-01
 2.486135811E-01 -6.217667088E-02 -6.001257043E-01
 2.609893978E-01 -6.301549077E-02 -6.299367261E-01
 2.719072998E-01 -6.365901977E-02 -6.602700661E-01
 2.843644619E-01 -6.429878622E-02 -6.870282326E-01
 2.965258360E-01 -6.480287015E-02 -7.111772245E-01
 3.092033267E-01 -6.522706896E-02 -7.420739979E-01
 3.206869662E-01 -6.548998505E-02 -7.644837808E-01
 3.333372474E-01 -6.568104029E-02 -7.828188032E-01
 3.438354731E-01 -6.573140621E-02 -8.138163131E-01
 3.552866280E-01 -6.568882614E-02 -8.396024568E-01
 3.662610948E-01 -6.553474814E-02 -8.679032022E-01
 3.770067692E-01 -6.528301537E-02 -8.756710579E-01
 3.885608315E-01 -6.493137032E-02 -9.026664909E-01
 4.014907181E-01 -6.436360627E-02 -9.451577830E-01
 4.135760069E-01 -6.371749192E-02 -8.192017967E-01
 4.264099896E-01 -6.288669258E-02 -5.234235592E-01
 4.389438629E-01 -6.195031106E-02 -5.218901518E-01
 4.514142871E-01 -6.091216952E-02 -5.464257785E-01
 4.634186029E-01 -5.978951976E-02 -5.063050078E-01
 4.757383764E-01 -5.851612613E-02 -4.491919731E-01
 4.876177311E-01 -5.724104866E-02 -4.281829882E-01
 5.001812577E-01 -5.576731265E-02 -3.827240150E-01
 5.138068199E-01 -5.408232287E-02 -3.362854654E-01
 5.273240805E-01 -5.232756212E-02 -2.949114946E-01
 5.401900411E-01 -5.058933049E-02 -2.533629474E-01
 5.537020564E-01 -4.874136299E-02 -2.268479687E-01
 5.670046806E-01 -4.683745652E-02 -1.861399560E-01
 5.803772807E-01 -4.490469396E-02 -1.580645547E-01
 5.929321051E-01 -4.303483665E-02 -1.221454311E-01
 6.057085395E-01 -4.112891108E-02 -9.553632889E-02
 6.195077896E-01 -3.904332221E-02 -6.349054054E-02
 6.338040829E-01 -3.688875586E-02 -3.904514431E-02
 6.479704380E-01 -3.472642601E-02 -7.918290752E-03
 6.612363458E-01 -3.272723407E-02 1.128566223E-02
 6.748136878E-01 -3.067009524E-02 3.457681452E-02
 6.873352528E-01 -2.875913121E-02 6.162263220E-02
 6.997411847E-01 -2.690411918E-02 7.850917952E-02
 7.144901156E-01 -2.470276691E-02 1.027774903E-01
 7.277583480E-01 -2.275391296E-02 1.209735971E-01
 7.395869493E-01 -2.104525454E-02 1.328742215E-01
 7.525030375E-01 -1.912261359E-02 1.686690549E-01
 7.653520107E-01 -1.733847708E-02 1.734581808E-01
 7.783845663E-01 -1.548504271E-02 2.035765974E-01
 7.906739116E-01 -1.382396556E-02 2.154165735E-01
 8.033748269E-01 -1.213623304E-02 2.337185020E-01
 8.143194318E-01 -1.069197617E-02 2.590592981E-01
 8.259754777E-01 -9.264481254E-03 2.670584201E-01
 8.386171460E-01 -7.767779287E-03 2.821002370E-01
 8.508594036E-01 -6.360184867E-03 3.028350450E-01
 8.630939722E-01 -5.049079657E-03 3.190211348E-01
 8.741428852E-01 -3.948530182E-03 3.342678326E-01
 8.855918646E-01 -2.918853657E-03 3.454761134E-01
 8.982787132E-01 -1.897815149E-03 3.588657391E-01
 9.089259505E-01 -1.192030497E-03 3.603947875E-01
 9.194651842E-01 -5.739179906E-04 3.671359339E-01
 9.292342067E-01 -9.919056902E-05 3.697470098E-01
 9.388598204E-01 2.576806583E-04 3.711783637E-01
 9.509029984E-01 5.880955141E-04 3.683034408E-01
 9.640491009E-01 7.846853696E-04 3.636233296E-01
 9.776632190E-01 8.190513472E-04 3.589762642E-01
 9.900256395E-01 7.045938983E-04 3.937460907E-01
 -5.000000000E-01 -1.000000000E+00 1.596835602E-02
 3.500000000E+00 -1.000000000E+00 4.718157308E-03
 3.500000000E+00 1.000000000E+00 -2.283209221E-02
 -5.000000000E-01 1.000000000E+00 1.583125184E-02
 9.931403399E-01 1.838948287E-03 4.242131440E-01
 9.800717533E-01 4.418748314E-03 2.807699828E-01
 9.659286737E-01 7.184923161E-03 2.091540677E-01
 9.510554075E-01 1.009932347E-02 1.409858817E-01
 9.371392429E-01 1.278673531E-02 1.091412834E-01
 9.246571362E-01 1.519718580E-02 6.141973216E-02
 9.130311608E-01 1.746016461E-02 1.649466224E-02
 9.011150599E-01 1.970455982E-02 -1.493474806E-02
 8.891035020E-01 2.191366907E-02 -3.414273594E-02
 8.771965802E-01 2.409869526E-02 -9.233242886E-02
 8.651013374E-01 2.622886281E-02 -9.678109517E-02
 8.527978063E-01 2.833048441E-02 -1.272678011E-01
 8.410369456E-01 3.032770660E-02 -1.529935261E-01
 8.295654953E-01 3.221256472E-02 -1.764384114E-01
 8.175193667E-01 3.414170630E-02 -1.917358739E-01
 8.048973978E-01 3.611500748E-02 -2.142927314E-01
 7.924546897E-01 3.801616654E-02 -2.263434431E-01
 7.801895440E-01 3.986061923E-02 -2.470709605E-01
 7.683080435E-01 4.163348489E-02 -2.812781024E-01
 7.560996115E-01 4.339526594E-02 -2.952311909E-01
 7.428106368E-01 4.525929503E-02 -3.177638227E-01
 7.306401730E-01 4.693325795E-02 -3.436892853E-01
 7.197051048E-01 4.838956892E-02 -3.583615926E-01
 7.083553970E-01 4.986408725E-02 -3.775122444E-01
 6.960310936E-01 5.142741464E-02 -4.058142400E-01
 6.830815375E-01 5.301156826E-02 -4.305200841E-01
 6.713126302E-01 5.439247750E-02 -4.449636267E-01
 6.602275968E-01 5.565072596E-02 -4.633963052E-01
 6.488864720E-01 5.690390430E-02 -4.939306563E-01
 6.373023689E-01 5.813159235E-02 -5.277087556E-01
 6.255840659E-01 5.930141360E-02 -5.322924271E-01
 6.145778298E-01 6.035133079E-02 -5.686971659E-01
 6.031744480E-01 6.138490140E-02 -5.961341355E-01
 5.911574662E-01 6.239675917E-02 -6.072961075E-01
 5.785129666E-01 6.338613480E-02 -6.097231227E-01
 5.654219687E-01 6.434476003E-02 -6.233407110E-01
 5.526635945E-01 6.517748535E-02 -6.562980714E-01
 5.406471193E-01 6.588656828E-02 -7.779071800E-01
 5.290797651E-01 6.651704013E-02 -8.143089366E-01
 5.167463124E-01 6.711131707E-02 -7.938814646E-01
 5.048775077E-01 6.760792807E-02 -7.739091423E-01
 4.927464426E-01 6.803423539E-02 -7.634814388E-01
 4.795535505E-01 6.840976328E-02 -7.438891462E-01
 4.660678953E-01 6.870158017E-02 -7.398089032E-01
 4.522969276E-01 6.891059875E-02 -7.258956804E-01
 4.389989823E-01 6.902970001E-02 -7.252583274E-01
 4.260395169E-01 6.907206774E-02 -7.156588195E-01
 4.132381380E-01 6.902994588E-02 -6.898739795E-01
 4.006270021E-01 6.890861690E-02 -6.744723619E-01
 3.882642239E-01 6.872941926E-02 -6.783404175E-01
 3.762883544E-01 6.848422438E-02 -6.577709601E-01
 3.636862636E-01 6.814962253E-02 -6.490554992E-01
 3.507423401E-01 6.772962585E-02 -6.238506891E-01
 3.380991071E-01 6.724211201E-02 -6.153854454E-01
 3.263315111E-01 6.672567874E-02 -5.941408024E-01
 3.146659285E-01 6.614703685E-02 -5.857824470E-01
 3.019180894E-01 6.545225531E-02 -5.793413801E-01
 2.885262221E-01 6.462841108E-02 -5.567011354E-01
 2.754705250E-01 6.374377012E-02 -5.476552573E-01
 2.633523345E-01 6.284617446E-02 -5.329036243E-01
 2.511324957E-01 6.185840629E-02 -5.150508070E-01
 2.386161834E-01 6.076841615E-02 -5.007117766E-01
 2.262400910E-01 5.960738659E-02 -4.845204904E-01
 2.141852006E-01 5.839279480E-02 -4.688511548E-01
 2.024269402E-01 5.712668039E-02 -4.519959905E-01
 1.905107647E-01 5.575963669E-02 -4.391010493E-01
 1.785269678E-01 5.429051071E-02 -4.207343741E-01
 1.668882072E-01 5.276538804E-02 -3.976888845E-01
 1.553203315E-01 5.116122216E-02 -3.820296419E-01
 1.441336721E-01 4.951933213E-02 -3.685476706E-01
 1.331400499E-01 4.779656231E-02 -3.464629279E-01
 1.219234206E-01 4.592848942E-02 -3.262329127E-01
 1.110481881E-01 4.400123283E-02 -3.059997701E-01
 9.049833193E-02 3.999513201E-02 -2.585223984E-01
 7.930880040E-02 3.757881559E-02 -2.248028493E-01
 6.858675927E-02 3.509082273E-02 -2.031651401E-01
 7.324001566E-02 -3.800513223E-02 -2.746037891E-01
 8.338886499E-02 -4.029357620E-02 -3.041877461E-01
 9.354558587E-02 -4.239775985E-02 -3.210011100E-01
 1.043243557E-01 -4.447017610E-02 -3.427610394E-01
 1.155104525E-01 -4.647153616E-02 -3.644846663E-01
 1.269656830E-01 -4.837802611E-02 -3.841685236E-01
 1.380646154E-01 -5.010795221E-02 -4.054356847E-01
 1.489894465E-01 -5.170141160E-02 -4.236855667E-01
 1.606982425E-01 -5.329652503E-02 -4.441363080E-01
 1.725734100E-01 -5.480733886E-02 -4.624925710E-01
 1.842793971E-01 -5.619704165E-02 -4.831936825E-01
 1.954316124E-01 -5.743513629E-02 -5.039667850E-01
 2.063942328E-01 -5.856635422E-02 -5.246021272E-01
 2.182080820E-01 -5.969784595E-02 -5.464017406E-01
 2.304508761E-01 -6.077052839E-02 -5.774410212E-01
 2.425872013E-01 -6.172668561E-02 -5.929619562E-01
 2.548014894E-01 -6.259608082E-02 -6.119065843E-01
 2.664483488E-01 -6.333725527E-02 -6.481862435E-01
 2.781358808E-01 -6.397890300E-02 -6.712936497E-01
 2.904451489E-01 -6.455082819E-02 -7.010691164E-01
 3.028645813E-01 -6.501496956E-02 -7.237497058E-01
 3.149451464E-01 -6.535852700E-02 -7.581025559E-01
 3.270121068E-01 -6.558551267E-02 -7.695347267E-01
 3.385863602E-01 -6.570622325E-02 -8.013467328E-01
 3.495610505E-01 -6.571011618E-02 -8.241196304E-01
 3.607738614E-01 -6.561178714E-02 -8.556439712E-01
 3.716339320E-01 -6.540888175E-02 -8.755877787E-01
 3.827838004E-01 -6.510719284E-02 -8.792956775E-01
 3.950257748E-01 -6.464748830E-02 -9.295961648E-01
 4.075333625E-01 -6.404054910E-02 -9.249549131E-01
 4.199929982E-01 -6.330209225E-02 -6.444272190E-01
 4.326769263E-01 -6.241850182E-02 -4.982603608E-01
 4.451790750E-01 -6.143124029E-02 -5.436743449E-01
 4.574164450E-01 -6.035084464E-02 -5.318887558E-01
 4.695784897E-01 -5.915282294E-02 -4.777297537E-01
 4.816780537E-01 -5.787858739E-02 -4.341293494E-01
 4.938994944E-01 -5.650418065E-02 -4.103192040E-01
 5.069940388E-01 -5.492481776E-02 -3.575219434E-01
 5.205654502E-01 -5.320494249E-02 -3.159057051E-01
 5.337570608E-01 -5.145844631E-02 -2.748102643E-01
 5.469460487E-01 -4.966534674E-02 -2.376764805E-01
 5.603533685E-01 -4.778940976E-02 -2.091514439E-01
 5.736909807E-01 -4.587107524E-02 -1.700079599E-01
 5.866546929E-01 -4.396976531E-02 -1.420964022E-01
 5.993203223E-01 -4.208187386E-02 -1.074907113E-01
 6.126081645E-01 -4.008611664E-02 -8.049398735E-02
 6.266559362E-01 -3.796603903E-02 -5.037544238E-02
 6.408872604E-01 -3.580759093E-02 -2.458886681E-02
 6.546033919E-01 -3.372683004E-02 3.481171005E-03
 6.680250168E-01 -3.169866465E-02 2.222230501E-02
 6.810744703E-01 -2.971461322E-02 4.739818422E-02
 6.935382187E-01 -2.783162519E-02 7.137184000E-02
 7.071156502E-01 -2.580344304E-02 8.941527413E-02
 7.211242318E-01 -2.372833993E-02 1.130281116E-01
 7.336726487E-01 -2.189958375E-02 1.279003573E-01
 7.460449934E-01 -2.008393407E-02 1.469246057E-01
 7.589275241E-01 -1.823054533E-02 1.751462546E-01
 7.718682885E-01 -1.641175989E-02 1.847890533E-01
 7.845292389E-01 -1.465450414E-02 2.120550746E-01
 7.970243692E-01 -1.298009930E-02 2.239397523E-01
 8.088471293E-01 -1.141410461E-02 2.448529173E-01
 8.201474547E-01 -9.978228714E-03 2.648010043E-01
 8.322963119E-01 -8.516130270E-03 2.740303748E-01
 8.447382748E-01 -7.063982077E-03 2.914736569E-01
 8.569766879E-01 -5.704632262E-03 3.113943399E-01
 8.686184287E-01 -4.498804919E-03 3.270912455E-01
 8.798673749E-01 -3.433691920E-03 3.399954426E-01
 8.919352889E-01 -2.408334403E-03 3.509199932E-01
 9.036023319E-01 -1.544922823E-03 3.628904618E-01
 9.141955674E-01 -8.829742437E-04 3.636237670E-01
 9.448814094E-01 4.228880862E-04 3.682219185E-01
 9.574760497E-01 6.863904418E-04 3.658054810E-01
 9.708561599E-01 8.018683584E-04 3.606005915E-01
 9.838444293E-01 7.618226227E-04 3.488347329E-01
 -5.000000000E-01 9.500000000E-01 2.586796789E-02
 -5.000000000E-01 9.000000000E-01 3.905321827E-02
 -5.000000000E-01 8.500000000E-01 4.908071921E-02
 -5.000000000E-01 8.000000000E-01 5.805860230E-02
 -5.000000000E-01 7.500000000E-01 6.636998503E-02
 -5.000000000E-01 7.000000000E-01 7.489356835E-02
 -5.000000000E-01 6.500000000E-01 8.325784662E-02
 -5.000000000E-01 6.000000000E-01 9.187963588E-02
 -5.000000000E-01 5.500000000E-01 1.008341985E-01
 -5.000000000E-01 5.000000000E-01 1.098695753E-01
 -5.000000000E-01 4.500000000E-01 1.193199256E-01
 -5.000000000E-01 4.000000000E-01 1.283389724E-01
 -5.000000000E-01 3.500000000E-01 1.376096462E-01
 -5.000000000E-01 3.000000000E-01 1.463790288E-01
 -5.000000000E-01 2.500000000E-01 1.545158150E-01
 -5.000000000E-01 2.000000000E-01 1.616162730E-01
 -5.000000000E-01 1.500000000E-01 1.677043284E-01
 -5.000000000E-01 1.000000000E-01 1.722421091E-01
 -5.000000000E-01 5.000000000E-02 1.750325304E-01
 -5.000000000E-01 2.752242878E-12 1.760691920E-01
 -5.000000000E-01 -5.000000000E-02 1.751045091E-01
 -5.000000000E-01 -1.000000000E-01 1.722550544E-01
 -5.000000000E-01 -1.500000000E-01 1.677058386E-01
 -5.000000000E-01 -2.000000000E-01 1.618362697E-01
 -5.000000000E-01 -2.500000000E-01 1.544917937E-01
 -5.000000000E-01 -3.000000000E-01 1.464303669E-01
 -5.000000000E-01 -3.500000000E-01 1.376652353E-01
 -5.000000000E-01 -4.000000000E-01 1.286286697E-01
 -5.000000000E-01 -4.500000000E-01 1.193676545E-01
 -5.000000000E-01 -5.000000000E-01 1.101662071E-01
 -5.000000000E-01 -5.500000000E-01 1.011391984E-01
 -5.000000000E-01 -6.000000000E-01 9.221101759E-02
 -5.000000000E-01 -6.500000000E-01 8.361962675E-02
 -5.000000000E-01 -7.000000000E-01 7.518566812E-02
 -5.000000000E-01 -7.500000000E-01 6.683559215E-02
 -5.000000000E-01 -8.000000000E-01 5.827023124E-02
 -5.000000000E-01 -8.500000000E-01 4.941983087E-02
 -5.000000000E-01 -9.000000000E-01 3.934052552E-02
 -5.000000000E-01 -9.500000000E-01 2.599865367E-02
 -4.500000000E-01 -1.000000000E+00 2.156352611E-02
 -4.000000000E-01 -1.000000000E+00 3.189441541E-02
 -3.500000000E-01 -1.000000000E+00 3.838649749E-02
 -3.000000000E-01 -1.000000000E+00 4.239223155E-02
 -2.500000000E-01 -1.000000000E+00 4.464558381E-02
 -2.000000000E-01 -1.000000000E+00 4.519372052E-02
 -1.500000000E-01 -1.000000000E+00 4.401940929E-02
 -1.000000000E-01 -1.000000000E+00 4.113384539E-02
 -5.000000000E-02 -1.000000000E+00 3.651835045E-02
 -9.424683256E-13 -1.000000000E+00 3.015745784E-02
 5.000000000E-02 -1.000000000E+00 2.244409928E-02
 1.000000000E-01 -1.000000000E+00 1.329218345E-02
 1.500000000E-01 -1.000000000E+00 3.122519620E-03
 2.000000000E-01 -1.000000000E+00 -7.550743703E-03
 2.500000000E-01 -1.000000000E+00 -1.829680550E-02
 3.000000000E-01 -1.000000000E+00 -2.865575802E-02
 3.500000000E-01 -1.000000000E+00 -3.843324592E-02
 4.000000000E-01 -1.000000000E+00 -4.678673848E-02
 4.500000000E-01 -1.000000000E+00 -5.331921282E-02
 5.000000000E-01 -1.000000000E+00 -5.794639829E-02
 5.500000000E-01 -1.000000000E+00 -6.035721717E-02
 6.000000000E-01 -1.000000000E+00 -6.054221940E-02
 6.500000000E-01 -1.000000000E+00 -5.858059043E-02
 7.000000000E-01 -1.000000000E+00 -5.495367298E-02
 7.500000000E-01 -1.000000000E+00 -4.970622827E-02
 8.000000000E-01 -1.000000000E+00 -4.347790991E-02
 8.500000000E-01 -1.000000000E+00 -3.637263664E-02
 9.000000000E-01 -1.000000000E+00 -2.893077419E-02
 9.500000000E-01 -1.000000000E+00 -2.148330685E-02
 1.000000000E+00 -1.000000000E+00 -1.426576904E-02
 1.050000000E+00 -1.000000000E+00 -7.445070434E-03
 1.100000000E+00 -1.000000000E+00 -1.298461197E-03
 1.150000000E+00 -1.000000000E+00 4.205182087E-03
 1.200000000E+00 -1.000000000E+00 8.959074872E-03
 1.250000000E+00 -1.000000000E+00 1.297542643E-02
 1.300000000E+00 -1.000000000E+00 1.632753300E-02
 1.350000000E+00 -1.000000000E+00 1.904342758E-02
 1.400000000E+00 -1.000000000E+00 2.118792581E-02
 1.450000000E+00 -1.000000000E+00 2.281818637E-02
 1.500000000E+00 -1.000000000E+00 2.403482727E-02
 1.550000000E+00 -1.000000000E+00 2.485248466E-02
 1.600000000E+00 -1.000000000E+00 2.537799609E-02
 1.650000000E+00 -1.000000000E+00 2.559924976E-02
 1.700000000E+00 -1.000000000E+00 2.563525402E-02
 1.750000000E+00 -1.000000000E+00 2.548186643E-02
 1.800000000E+00 -1.000000000E+00 2.522007752E-02
 1.850000000E+00 -1.000000000E+00 2.481799167E-02
 1.900000000E+00 -1.000000000E+00 2.433279293E-02
 1.950000000E+00 -1.000000000E+00 2.395192495E-02
 2.000000000E+00 -1.000000000E+00 2.314432559E-02
 2.050000000E+00 -1.000000000E+00 2.274905761E-02
 2.100000000E+00 -1.000000000E+00 2.211163896E-02
 2.150000000E+00 -1.000000000E+00 2.138832893E-02
 2.200000000E+00 -1.000000000E+00 2.086971847E-02
 2.250000000E+00 -1.000000000E+00 2.031029086E-02
 2.300000000E+00 -1.000000000E+00 1.973464414E-02
 2.350000000E+00 -1.000000000E+00 1.921387576E-02
 2.400000000E+00 -1.000000000E+00 1.872209575E-02
 2.450000000E+00 -1.000000000E+00 1.818246337E-02
 2.500000000E+00 -1.000000000E+00 1.776433258E-02
 2.550000000E+00 -1.000000000E+00 1.736161898E-02
 2.600000000E+00 -1.000000000E+00 1.702636428E-02
 2.650000000E+00 -1.000000000E+00 1.664328251E-02
 2.700000000E+00 -1.000000000E+00 1.639200721E-02
 2.750000000E+00 -1.000000000E+00 1.611654521E-02
 2.800000000E+00 -1.000000000E+00 1.587833294E-02
 2.850000000E+00 -1.000000000E+00 1.570530528E-02
 2.900000000E+00 -1.000000000E+00 1.554521727E-02
 2.950000000E+00 -1.000000000E+00 1.542440179E-02
 3.000000000E+00 -1.000000000E+00 1.535637849E-02
 3.050000000E+00 -1.000000000E+00 1.521501773E-02
 3.100000000E+00 -1.000000000E+00 1.513917298E-02
 3.150000000E+00 -1.000000000E+00 1.511618842E-02
 3.200000000E+00 -1.000000000E+00 1.479257794E-02
 3.250000000E+00 -1.000000000E+00 1.473858258E-02
 3.300000000E+00 -1.000000000E+00 1.428722240E-02
 3.350000000E+00 -1.000000000E+00 1.366183461E-02
 3.400000000E+00 -1.000000000E+00 1.239286428E-02
 3.450000000E+00 -1.000000000E+00 9.245804406E-03
 3.500000000E+00 -9.500000000E-01 2.860350196E-03
 3.500000000E+00 -9.000000000E-01 5.685983321E-03
 3.500000000E+00 -8.500000000E-01 8.000691273E-03
 3.500000000E+00 -8.000000000E-01 9.919510018E-03
 3.500000000E+00 -7.500000000E-01 1.140020423E-02
 3.500000000E+00 -7.000000000E-01 1.274892862E-02
 3.500000000E+00 -6.500000000E-01 1.406150293E-02
 3.500000000E+00 -6.000000000E-01 1.549150888E-02
 3.500000000E+00 -5.500000000E-01 1.699994602E-02
 3.500000000E+00 -5.000000000E-01 1.860497528E-02
 3.500000000E+00 -4.500000000E-01 2.021599449E-02
 3.500000000E+00 -4.000000000E-01 2.184115390E-02
 3.500000000E+00 -3.500000000E-01 2.348770059E-02
 3.500000000E+00 -3.000000000E-01 2.505620998E-02
 3.500000000E+00 -2.500000000E-01 2.632423038E-02
 3.500000000E+00 -2.000000000E-01 2.712823150E-02
 3.500000000E+00 -1.500000000E-01 2.736831206E-02
 3.500000000E+00 -1.000000000E-01 2.706613467E-02
 3.500000000E+00 -5.000000000E-02 2.673132460E-02
 3.500000000E+00 -2.752242878E-12 2.683328702E-02
 3.500000000E+00 5.000000000E-02 2.719825405E-02
 3.500000000E+00 1.000000000E-01 2.739691598E-02
 3.500000000E+00 1.500000000E-01 2.697840472E-02
 3.500000000E+00 2.000000000E-01 2.594405871E-02
 3.500000000E+00 2.500000000E-01 2.449754249E-02
 3.500000000E+00 3.000000000E-01 2.296648176E-02
 3.500000000E+00 3.500000000E-01 2.136249351E-02
 3.500000000E+00 4.000000000E-01 1.980039798E-02
 3.500000000E+00 4.500000000E-01 1.808892333E-02
 3.500000000E+00 5.000000000E-01 1.635119266E-02
 3.500000000E+00 5.500000000E-01 1.478568770E-02
 3.500000000E+00 6.000000000E-01 1.367295598E-02
 3.500000000E+00 6.500000000E-01 1.310370656E-02
 3.500000000E+00 7.000000000E-01 1.251189216E-02
 3.500000000E+00 7.500000000E-01 1.014077754E-02
 3.500000000E+00 8.000000000E-01 5.212668418E-03
 3.500000000E+00 8.500000000E-01 -2.742849723E-03
 3.500000000E+00 9.000000000E-01 -1.334164862E-02
 3.500000000E+00 9.500000000E-01 -2.590062957E-02
 3.450000000E+00 1.000000000E+00 -9.913569681E-03
 3.400000000E+00 1.000000000E+00 -1.460518124E-03
 3.350000000E+00 1.000000000E+00 1.361787224E-03
 3.300000000E+00 1.000000000E+00 1.816962547E-03
 3.250000000E+00 1.000000000E+00 1.801422941E-03
 3.200000000E+00 1.000000000E+00 1.520978421E-03
 3.150000000E+00 1.000000000E+00 8.374996486E-04
 3.100000000E+00 1.000000000E+00 1.103149629E-04
 3.050000000E+00 1.000000000E+00 -6.538400276E-04
 3.000000000E+00 1.000000000E+00 -1.482142649E-03
 2.950000000E+00 1.000000000E+00 -2.267202337E-03
 2.900000000E+00 1.000000000E+00 -3.296787849E-03
 2.850000000E+00 1.000000000E+00 -4.053142820E-03
 2.800000000E+00 1.000000000E+00 -5.094479394E-03
 2.750000000E+00 1.000000000E+00 -6.021971015E-03
 2.700000000E+00 1.000000000E+00 -6.914332602E-03
 2.650000000E+00 1.000000000E+00 -7.968670336E-03
 2.600000000E+00 1.000000000E+00 -9.023405054E-03
 2.550000000E+00 1.000000000E+00 -1.012091116E-02
 2.500000000E+00 1.000000000E+00 -1.134840466E-02
 2.450000000E+00 1.000000000E+00 -1.249489867E-02
 2.400000000E+00 1.000000000E+00 -1.366652634E-02
 2.350000000E+00 1.000000000E+00 -1.500146065E-02
 2.300000000E+00 1.000000000E+00 -1.623003411E-02
 2.250000000E+00 1.000000000E+00 -1.798257815E-02
 2.200000000E+00 1.000000000E+00 -1.909011741E-02
 2.150000000E+00 1.000000000E+00 -2.095700945E-02
 2.100000000E+00 1.000000000E+00 -2.261852488E-02
 2.050000000E+00 1.000000000E+00 -2.459831149E-02
 2.000000000E+00 1.000000000E+00 -2.659493479E-02
 1.950000000E+00 1.000000000E+00 -2.888760211E-02
 1.900000000E+00 1.000000000E+00 -3.119925786E-02
 1.850000000E+00 1.000000000E+00 -3.389271829E-02
 1.800000000E+00 1.000000000E+00 -3.639483003E-02
 1.750000000E+00 1.000000000E+00 -3.969295569E-02
 1.700000000E+00 1.000000000E+00 -4.287620062E-02
 1.650000000E+00 1.000000000E+00 -4.656355919E-02
 1.600000000E+00 1.000000000E+00 -5.077778083E-02
 1.550000000E+00 1.000000000E+00 -5.519163875E-02
 1.500000000E+00 1.000000000E+00 -6.019639379E-02
 1.450000000E+00 1.000000000E+00 -6.553438810E-02
 1.400000000E+00 1.000000000E+00 -7.140683485E-02
 1.350000000E+00 1.000000000E+00 -7.804631245E-02
 1.300000000E+00 1.000000000E+00 -8.482055758E-02
 1.250000000E+00 1.000000000E+00 -9.222079695E-02
 1.200000000E+00 1.000000000E+00 -9.993545165E-02
 1.150000000E+00 1.000000000E+00 -1.077569578E-01
 1.100000000E+00 1.000000000E+00 -1.157009965E-01
 1.050000000E+00 1.000000000E+00 -1.232523706E-01
 1.000000000E+00 1.000000000E+00 -1.306463394E-01
 9.500000000E-01 1.000000000E+00 -1.366062191E-01
 9.000000000E-01 1.000000000E+00 -1.416204579E-01
 8.500000000E-01 1.000000000E+00 -1.454159359E-01
 8.000000000E-01 1.000000000E+00 -1.467874763E-01
 7.500000000E-01 1.000000000E+00 -1.458015063E-01
 7.000000000E-01 1.000000000E+00 -1.420795301E-01
 6.500000000E-01 1.000000000E+00 -1.369109814E-01
 6.000000000E-01 1.000000000E+00 -1.279995359E-01
 5.500000000E-01 1.000000000E+00 -1.180982080E-01
 5.000000000E-01 1.000000000E+00 -1.065685113E-01
 4.500000000E-01 1.000000000E+00 -9.254573644E-02
 4.000000000E-01 1.000000000E+00 -7.789163950E-02
 3.500000000E-01 1.000000000E+00 -6.276204494E-02
 3.000000000E-01 1.000000000E+00 -4.736709263E-02
 2.500000000E-01 1.000000000E+00 -3.225314926E-02
 2.000000000E-01 1.000000000E+00 -1.786098648E-02
 1.500000000E-01 1.000000000E+00 -4.250142676E-03
 1.000000000E-01 1.000000000E+00 7.906465445E-03
 5.000000000E-02 1.000000000E+00 1.844580916E-02
 1.733724275E-12 1.000000000E+00 2.742293172E-02
 -5.000000000E-02 1.000000000E+00 3.450205052E-02
 -1.000000000E-01 1.000000000E+00 3.967790488E-02
 -1.500000000E-01 1.000000000E+00 4.293181184E-02
 -2.000000000E-01 1.000000000E+00 4.439099741E-02
 -2.500000000E-01 1.000000000E+00 4.399908424E-02
 -3.000000000E-01 1.000000000E+00 4.189134724E-02
 -3.500000000E-01 1.000000000E+00 3.801030105E-02
 -4.000000000E-01 1.000000000E+00 3.167212474E-02
 -4.500000000E-01 1.000000000E+00 2.130545098E-02
 9.015035886E-01 -6.628754736E-03 3.530025084E-01
 8.234725136E-01 -1.471561763E-02 2.615633588E-01
 9.863622363E-01 -4.855983805E-03 3.351149081E-01
 7.501037971E-01 -2.517765462E-02 1.557221762E-01
 6.787362369E-01 -3.548719736E-02 4.101829487E-02
 6.100734394E-01 -4.581429545E-02 -8.685375651E-02
 5.443416371E-01 -5.570376225E-02 -2.422620173E-01
 4.800578816E-01 -6.312136263E-02 -4.325288731E-01
 4.235571560E-01 -6.858857286E-02 -5.671755093E-01
 3.636981294E-01 -7.088160863E-02 -8.470297303E-01
 3.117431141E-01 -7.054940498E-02 -7.367641563E-01
 2.573324713E-01 -6.851574000E-02 -6.097422261E-01