TITLE     = "Visualization of the solution"
VARIABLES = "x"
"y"
"Pressure_Coefficient"
ZONE T="Zone"
 STRANDID=0, SOLUTIONTIME=0
 Nodes=11830, Elements=23081, ZONETYPE=FEQuadrilateral
 DATAPACKING=POINT
 DT=(DOUBLE DOUBLE DOUBLE )
 1.000061393E+00 5.247394438E-04 3.101256999E-01
 9.883397222E-01 2.613354009E-03 2.252614280E-01
 9.769760370E-01 4.693198018E-03 1.444902624E-01
 9.629091620E-01 7.197359577E-03 8.482510400E-02
 9.490936399E-01 9.600254707E-03 4.431856449E-02
 9.355694056E-01 1.194715127E-02 8.216703155E-03
 9.246452451E-01 1.388730016E-02 -4.688132460E-02
 9.121398926E-01 1.602005959E-02 -9.599822015E-02
 9.001416564E-01 1.791489683E-02 -1.073003494E-01
 8.877835274E-01 1.985600032E-02 -1.396800967E-01
 8.750917912E-01 2.177830227E-02 -1.706863429E-01
 8.628442287E-01 2.354460582E-02 -1.899048263E-01
 8.498871326E-01 2.532526851E-02 -2.010166199E-01
 8.380759954E-01 2.689968608E-02 -2.116275186E-01
 8.259872198E-01 2.847911417E-02 -2.273437484E-01
 8.125302792E-01 3.017265722E-02 -2.361330620E-01
 7.991859317E-01 3.182144836E-02 -2.504711093E-01
 7.866891026E-01 3.331442922E-02 -2.545340706E-01
 7.743445039E-01 3.481357545E-02 -2.842903694E-01
 7.619378567E-01 3.624150530E-02 -2.900316557E-01
 7.489205003E-01 3.773682937E-02 -3.153853687E-01
 7.347344160E-01 3.927706927E-02 -3.178825265E-01
 7.237573862E-01 4.048188031E-02 -3.449404519E-01
 7.124860287E-01 4.166407138E-02 -3.560110823E-01
 7.005429268E-01 4.288131371E-02 -3.675722696E-01
 6.866995096E-01 4.427001625E-02 -3.917818064E-01
 6.731562614E-01 4.555671662E-02 -4.151703531E-01
 6.631860137E-01 4.649412632E-02 -4.290647216E-01
 6.512715220E-01 4.753565043E-02 -4.387229850E-01
 6.397857070E-01 4.853361845E-02 -4.657650853E-01
 6.278922558E-01 4.948708788E-02 -4.771396018E-01
 6.166691780E-01 5.036053434E-02 -4.966993759E-01
 6.054929495E-01 5.116226524E-02 -5.021245351E-01
 5.928121209E-01 5.204892531E-02 -5.329147511E-01
 5.809026957E-01 5.280471593E-02 -5.441293216E-01
 5.674698353E-01 5.358731747E-02 -5.594932701E-01
 5.550537705E-01 5.424808711E-02 -5.801605500E-01
 5.429116488E-01 5.482358858E-02 -5.907884719E-01
 5.319384933E-01 5.527560413E-02 -5.878962329E-01
 5.203776956E-01 5.570512637E-02 -5.938226772E-01
 5.077309012E-01 5.611237511E-02 -6.056761455E-01
 4.966945052E-01 5.640655756E-02 -6.102215366E-01
 4.837921262E-01 5.668468773E-02 -6.079903281E-01
 4.707083404E-01 5.687114224E-02 -5.917716450E-01
 4.565493166E-01 5.701233819E-02 -5.975502829E-01
 4.432049394E-01 5.706749111E-02 -5.931205318E-01
 4.303283095E-01 5.702873692E-02 -5.763182737E-01
 4.175907671E-01 5.693453923E-02 -5.682456329E-01
 4.053488374E-01 5.677694455E-02 -5.578740552E-01
 3.932219446E-01 5.656589195E-02 -5.457932428E-01
 3.810937703E-01 5.628867820E-02 -5.358508570E-01
 3.703385293E-01 5.601136014E-02 -5.319667652E-01
 3.575485349E-01 5.559629202E-02 -5.102751458E-01
 3.457214534E-01 5.516161770E-02 -4.973136153E-01
 3.333238065E-01 5.467067286E-02 -4.967817711E-01
 3.226073384E-01 5.417563021E-02 -4.789700856E-01
 3.104241788E-01 5.357672647E-02 -4.712204936E-01
 2.973141074E-01 5.285622180E-02 -4.548497475E-01
 2.834000289E-01 5.202135816E-02 -4.403095856E-01
 2.706690431E-01 5.119341239E-02 -4.282504314E-01
 2.586060762E-01 5.035659671E-02 -4.182053922E-01
 2.459795922E-01 4.940716177E-02 -4.010967547E-01
 2.329848558E-01 4.837405309E-02 -3.908694370E-01
 2.207603604E-01 4.733611643E-02 -3.788792491E-01
 2.089602500E-01 4.627068713E-02 -3.666004247E-01
 1.978063881E-01 4.520666599E-02 -3.518079633E-01
 1.851412803E-01 4.393041134E-02 -3.374253562E-01
 1.730050296E-01 4.264594987E-02 -3.282167037E-01
 1.613133401E-01 4.133066535E-02 -3.125839288E-01
 1.490934193E-01 3.988131136E-02 -2.998108702E-01
 1.382895559E-01 3.853342682E-02 -2.885586274E-01
 1.266420335E-01 3.699618578E-02 -2.745222463E-01
 1.147888228E-01 3.533287346E-02 -2.592781920E-01
 1.040598080E-01 3.374277055E-02 -2.424612316E-01
 9.414695948E-02 3.218572214E-02 -2.310027059E-01
 8.271996677E-02 3.027992696E-02 -2.142105960E-01
 7.071898133E-02 2.811471559E-02 -1.957171395E-01
 6.085135043E-02 2.618652396E-02 -1.758849043E-01
 5.111348629E-02 2.412110008E-02 -1.525602943E-01
 4.228024930E-02 2.206457593E-02 -1.318645442E-01
 3.489314020E-02 2.018507756E-02 -1.111208546E-01
 2.845046669E-02 1.837607101E-02 -8.023588967E-02
 2.292943001E-02 1.665186696E-02 -5.397182823E-02
 1.897037216E-02 1.529964339E-02 -2.271628725E-02
 1.535868738E-02 1.393432356E-02 8.086855917E-03
 1.271964423E-02 1.284512039E-02 4.452027718E-02
 1.034790929E-02 1.177221444E-02 8.027758257E-02
 8.634428494E-03 1.092506479E-02 1.144265245E-01
 7.088325918E-03 1.009938866E-02 1.494467708E-01
 5.610377062E-03 9.233155288E-03 2.226617598E-01
 3.679048037E-03 7.955193520E-03 3.165299809E-01
 2.004125854E-03 6.639197003E-03 3.992795514E-01
 5.309418775E-04 5.203648936E-03 6.219199382E-01
 -8.535024244E-04 3.321809927E-03 8.577502670E-01
 -1.532358350E-03 1.820860780E-03 1.024558805E+00
 -1.815587166E-03 6.143575883E-04 1.139368278E+00
 -1.853298629E-03 -7.868848625E-04 1.194020979E+00
 -1.550394809E-03 -2.342655091E-03 1.126533840E+00
 -7.708041812E-04 -4.113985691E-03 9.805463990E-01
 5.510771880E-04 -6.000970025E-03 7.703638098E-01
 2.480674768E-03 -7.985547185E-03 5.856912082E-01
 4.225153942E-03 -9.421950206E-03 4.368561302E-01
 6.257900037E-03 -1.085407753E-02 3.469595748E-01
 7.804385386E-03 -1.182373520E-02 2.661861095E-01
 9.757660329E-03 -1.294237562E-02 2.140661298E-01
 1.206531376E-02 -1.414136309E-02 1.534939895E-01
 1.519735251E-02 -1.560699008E-02 9.299885428E-02
 1.816757023E-02 -1.686829142E-02 3.671885139E-02
 2.200002782E-02 -1.835387759E-02 -3.516759735E-03
 2.734525688E-02 -2.021305822E-02 -4.447950273E-02
 3.307942301E-02 -2.200381458E-02 -8.778027413E-02
 4.048958793E-02 -2.407860011E-02 -1.185715163E-01
 4.808693752E-02 -2.600674704E-02 -1.494571630E-01
 5.694686249E-02 -2.804481052E-02 -1.718919677E-01
 6.570135802E-02 -2.988611534E-02 -1.934859181E-01
 7.591408491E-02 -3.186679631E-02 -2.109264725E-01
 8.591603488E-02 -3.366921097E-02 -2.293830913E-01
 9.638412297E-02 -3.541934118E-02 -2.418680882E-01
 1.072366908E-01 -3.712420911E-02 -2.584356810E-01
 1.188407317E-01 -3.882980719E-02 -2.731957507E-01
 1.303889900E-01 -4.042584449E-02 -2.897675846E-01
 1.412086338E-01 -4.183452949E-02 -3.044997692E-01
 1.521373093E-01 -4.317868873E-02 -3.168284262E-01
 1.642046571E-01 -4.458730295E-02 -3.333170098E-01
 1.758944690E-01 -4.587473348E-02 -3.527247144E-01
 1.880026758E-01 -4.712298512E-02 -3.661413582E-01
 1.987338662E-01 -4.817223921E-02 -3.860293668E-01
 2.100875080E-01 -4.921090603E-02 -4.014667816E-01
 2.225182503E-01 -5.027075484E-02 -4.175717425E-01
 2.354729176E-01 -5.130098015E-02 -4.420599949E-01
 2.480899394E-01 -5.220561847E-02 -4.592308371E-01
 2.612029910E-01 -5.306858197E-02 -4.819286397E-01
 2.725593448E-01 -5.373258889E-02 -5.031947896E-01
 2.858354747E-01 -5.442164466E-02 -5.231557546E-01
 2.988462746E-01 -5.499338359E-02 -5.459943914E-01
 3.118967116E-01 -5.546610430E-02 -5.694430541E-01
 3.239210844E-01 -5.579848588E-02 -5.888846276E-01
 3.364071548E-01 -5.604955554E-02 -6.099439813E-01
 3.473764062E-01 -5.617518723E-02 -6.348974909E-01
 3.586407602E-01 -5.619744956E-02 -6.344725110E-01
 3.697306812E-01 -5.614217743E-02 -6.429973893E-01
 3.804786801E-01 -5.598526821E-02 -6.462344785E-01
 3.920110762E-01 -5.572862178E-02 -6.510395538E-01
 4.046120644E-01 -5.529206991E-02 -6.274427577E-01
 4.168310761E-01 -5.474377424E-02 -5.915289892E-01
 4.299466610E-01 -5.402998254E-02 -5.670279945E-01
 4.426444769E-01 -5.319238082E-02 -5.342627705E-01
 4.551077187E-01 -5.224682391E-02 -4.975498907E-01
 4.673331678E-01 -5.120284855E-02 -4.635530495E-01
 4.796791077E-01 -5.001519248E-02 -4.142732198E-01
 4.910210073E-01 -4.884117097E-02 -3.732369285E-01
 5.030749440E-01 -4.751949012E-02 -3.357720462E-01
 5.167110562E-01 -4.593732581E-02 -2.962846305E-01
 5.304049850E-01 -4.425249249E-02 -2.551561195E-01
 5.437221527E-01 -4.253067821E-02 -2.122381448E-01
 5.568904281E-01 -4.078812897E-02 -1.783178289E-01
 5.694386959E-01 -3.907172009E-02 -1.428389662E-01
 5.823130012E-01 -3.727856278E-02 -1.086224606E-01
 5.941756964E-01 -3.561300412E-02 -8.149413309E-02
 6.061567068E-01 -3.391477093E-02 -5.400912323E-02
 6.194899082E-01 -3.202005103E-02 -2.765695460E-02
 6.335275173E-01 -3.001316264E-02 3.990347447E-04
 6.471033096E-01 -2.807398327E-02 2.545918101E-02
 6.601267457E-01 -2.619851567E-02 5.584585862E-02
 6.735702753E-01 -2.432199381E-02 7.116745948E-02
 6.859455109E-01 -2.258500643E-02 9.403681958E-02
 6.983089447E-01 -2.086883597E-02 1.148884690E-01
 7.127814889E-01 -1.891406626E-02 1.292119931E-01
 7.250977755E-01 -1.720765792E-02 1.624501927E-01
 7.370753288E-01 -1.566274278E-02 1.672803639E-01
 7.491784692E-01 -1.409658883E-02 1.858157739E-01
 7.613096833E-01 -1.253216621E-02 2.098758133E-01
 7.743061185E-01 -1.096300036E-02 2.166933828E-01
 7.855762243E-01 -9.590794332E-03 2.392865474E-01
 7.980477810E-01 -8.122615516E-03 2.603751301E-01
 8.092457056E-01 -6.896248553E-03 2.708490814E-01
 8.210583329E-01 -5.666410085E-03 2.817934257E-01
 8.333859444E-01 -4.411451519E-03 3.038229300E-01
 8.461038470E-01 -3.261253703E-03 3.103040855E-01
 8.579283953E-01 -2.237121807E-03 3.297678176E-01
 8.702672124E-01 -1.305160695E-03 3.387512333E-01
 8.827270865E-01 -4.823956988E-04 3.482683370E-01
 8.963540792E-01 2.644787892E-04 3.546218186E-01
 9.065734744E-01 7.175281644E-04 3.595069745E-01
 9.165924788E-01 1.074420405E-03 3.617275289E-01
 9.262105227E-01 1.317194081E-03 3.632630814E-01
 9.352484345E-01 1.471100375E-03 3.628424368E-01
 9.477273822E-01 1.564968843E-03 3.601242537E-01
 9.612557292E-01 1.519498997E-03 3.573211768E-01
 9.761959314E-01 1.295704511E-03 3.570572928E-01
 9.890087843E-01 9.510061354E-04 3.650247256E-01
 -5.000000000E-01 -1.000000000E+00 1.313753435E-02
 3.500000000E+00 -1.000000000E+00 5.784085741E-03
 3.500000000E+00 1.000000000E+00 -2.020183251E-02
 -5.000000000E-01 1.000000000E+00 1.191202744E-02
 9.942005575E-01 1.569046726E-03 3.049466494E-01
 9.826578796E-01 3.653276013E-03 1.802198884E-01
 9.699425995E-01 5.945278797E-03 1.120433999E-01
 9.560014009E-01 8.398807142E-03 6.435327512E-02
 9.423315227E-01 1.077370299E-02 2.809894247E-02
 9.301073253E-01 1.291722571E-02 -2.182463234E-02
 9.183925688E-01 1.495367987E-02 -7.714685870E-02
 9.061407745E-01 1.696747821E-02 -9.815223515E-02
 8.939625919E-01 1.888544858E-02 -1.238111479E-01
 8.814376593E-01 2.081715129E-02 -1.567666297E-01
 8.689680099E-01 2.266145404E-02 -1.817349853E-01
 8.563656807E-01 2.443493716E-02 -1.949836096E-01
 8.439815640E-01 2.611247730E-02 -2.052002580E-01
 8.320316076E-01 2.768940013E-02 -2.211302134E-01
 8.192587495E-01 2.932588570E-02 -2.305674198E-01
 8.058581054E-01 3.099705279E-02 -2.455030738E-01
 7.929375172E-01 3.256793879E-02 -2.475154262E-01
 7.805168033E-01 3.406400234E-02 -2.737852489E-01
 7.681411803E-01 3.552754037E-02 -2.839642965E-01
 7.554291785E-01 3.698916733E-02 -3.068503606E-01
 7.418274581E-01 3.850694932E-02 -3.123744997E-01
 7.292459011E-01 3.987947479E-02 -3.338718265E-01
 7.181217074E-01 4.107297584E-02 -3.513934749E-01
 7.065144777E-01 4.227269255E-02 -3.594595164E-01
 6.936212182E-01 4.357566498E-02 -3.829392308E-01
 6.799278855E-01 4.491336644E-02 -3.968123043E-01
 6.572287679E-01 4.701488838E-02 -4.298825051E-01
 6.455286145E-01 4.803463444E-02 -4.568744937E-01
 6.338389814E-01 4.901035316E-02 -4.680480078E-01
 6.222807169E-01 4.992381111E-02 -4.909812665E-01
 6.110810637E-01 5.076139979E-02 -4.947505807E-01
 5.991525352E-01 5.160559528E-02 -5.195987327E-01
 5.868574083E-01 5.242682062E-02 -5.397020838E-01
 5.741862655E-01 5.319601670E-02 -5.502495809E-01
 5.612618029E-01 5.391770229E-02 -5.702972602E-01
 5.489827096E-01 5.453583784E-02 -5.876253094E-01
 5.374250710E-01 5.504959635E-02 -5.882161126E-01
 5.261580944E-01 5.549036525E-02 -5.905404209E-01
 5.140542984E-01 5.590875074E-02 -5.997621074E-01
 5.022127032E-01 5.625946634E-02 -6.082973354E-01
 4.902433157E-01 5.654562265E-02 -6.130176833E-01
 4.772502333E-01 5.677791499E-02 -5.972106736E-01
 4.636288285E-01 5.694174021E-02 -5.939235496E-01
 4.498771280E-01 5.703991465E-02 -5.987926504E-01
 4.367666245E-01 5.704811402E-02 -5.826441715E-01
 4.239595383E-01 5.698163807E-02 -5.727744219E-01
 4.114698023E-01 5.685574189E-02 -5.622295928E-01
 3.992853910E-01 5.667141825E-02 -5.535255830E-01
 3.871578574E-01 5.642728508E-02 -5.369390805E-01
 3.757161498E-01 5.615001917E-02 -5.385193004E-01
 3.639435321E-01 5.580382608E-02 -5.206179576E-01
 3.516349941E-01 5.537895486E-02 -5.005341424E-01
 3.395226300E-01 5.491614528E-02 -4.997906354E-01
 3.279655725E-01 5.442315154E-02 -4.861854235E-01
 3.165157586E-01 5.387617834E-02 -4.767189195E-01
 3.038691431E-01 5.321647413E-02 -4.633785748E-01
 2.903570682E-01 5.243878998E-02 -4.471313836E-01
 2.770345360E-01 5.160738528E-02 -4.329822253E-01
 2.646375597E-01 5.077500455E-02 -4.250950000E-01
 2.522928342E-01 4.988187924E-02 -4.088253013E-01
 2.394822240E-01 4.889060743E-02 -3.959214503E-01
 2.268726081E-01 4.785508476E-02 -3.849911712E-01
 2.148603052E-01 4.680340178E-02 -3.722543890E-01
 2.033833191E-01 4.573867656E-02 -3.604098074E-01
 1.914738342E-01 4.456853867E-02 -3.434821635E-01
 1.790731549E-01 4.328818060E-02 -3.334623082E-01
 1.671591848E-01 4.198830761E-02 -3.208817380E-01
 1.552033797E-01 4.060598835E-02 -3.049781142E-01
 1.436914876E-01 3.920736909E-02 -2.951708023E-01
 1.324657947E-01 3.776480630E-02 -2.826110972E-01
 1.207154281E-01 3.616452962E-02 -2.651097077E-01
 1.094243154E-01 3.453782201E-02 -2.540947835E-01
 8.843346313E-02 3.123282455E-02 -2.246909326E-01
 7.671947405E-02 2.919732127E-02 -2.075102538E-01
 7.080772147E-02 -3.087645583E-02 -2.034504444E-01
 8.091505989E-02 -3.276800364E-02 -2.207141600E-01
 9.115007892E-02 -3.454427607E-02 -2.366097631E-01
 1.018104069E-01 -3.627177514E-02 -2.495023809E-01
 1.130387112E-01 -3.797700815E-02 -2.661075169E-01
 1.246148609E-01 -3.962782584E-02 -2.814901916E-01
 1.357988119E-01 -4.113018699E-02 -2.982867132E-01
 1.466729715E-01 -4.250660911E-02 -3.106428408E-01
 1.581709832E-01 -4.388299584E-02 -3.241708221E-01
 1.700495631E-01 -4.523101822E-02 -3.433737185E-01
 1.819485724E-01 -4.649885930E-02 -3.597446192E-01
 1.933682710E-01 -4.764761217E-02 -3.760389266E-01
 2.044106871E-01 -4.869157262E-02 -3.938125669E-01
 2.163028792E-01 -4.974083044E-02 -4.085685361E-01
 2.289955840E-01 -5.078586750E-02 -4.285030957E-01
 2.417814285E-01 -5.175329931E-02 -4.527348181E-01
 2.546464652E-01 -5.263710022E-02 -4.684582137E-01
 2.668811679E-01 -5.340058543E-02 -4.948622250E-01
 2.791974097E-01 -5.407711677E-02 -5.106787120E-01
 2.923408747E-01 -5.470751412E-02 -5.355626403E-01
 3.053714931E-01 -5.522974394E-02 -5.566357735E-01
 3.179088980E-01 -5.563229509E-02 -5.812429562E-01
 3.301641196E-01 -5.592402071E-02 -5.972361935E-01
 3.418917805E-01 -5.611237139E-02 -6.246500188E-01
 3.530085832E-01 -5.618631840E-02 -6.376206847E-01
 3.641857207E-01 -5.616981350E-02 -6.353970419E-01
 3.751046807E-01 -5.606372282E-02 -6.480337611E-01
 3.862448782E-01 -5.585694499E-02 -6.459275194E-01
 3.983115703E-01 -5.551034585E-02 -6.448440075E-01
 4.107215703E-01 -5.501792207E-02 -6.086393434E-01
 4.233888686E-01 -5.438687839E-02 -5.772946195E-01
 4.362955689E-01 -5.361118168E-02 -5.536068680E-01
 4.488760978E-01 -5.271960236E-02 -5.152971591E-01
 4.612204432E-01 -5.172483623E-02 -4.806582830E-01
 4.735061377E-01 -5.060902052E-02 -4.412677412E-01
 4.853500575E-01 -4.942818172E-02 -3.929162583E-01
 4.970479757E-01 -4.818033054E-02 -3.542071998E-01
 5.098930001E-01 -4.672840796E-02 -3.157100978E-01
 5.235580206E-01 -4.509490915E-02 -2.765628568E-01
 5.370635688E-01 -4.339158535E-02 -2.342533517E-01
 5.503062904E-01 -4.165940359E-02 -1.941859241E-01
 5.631645620E-01 -3.992992453E-02 -1.617557479E-01
 5.758758485E-01 -3.817514144E-02 -1.253925195E-01
 5.882443488E-01 -3.644578345E-02 -9.447671121E-02
 6.001662016E-01 -3.476388752E-02 -6.807946605E-02
 6.128233075E-01 -3.296741098E-02 -4.080773897E-02
 6.265087128E-01 -3.101660684E-02 -1.396803099E-02
 6.403154135E-01 -2.904357295E-02 1.319284998E-02
 6.536150277E-01 -2.713624947E-02 3.955163835E-02
 6.668485105E-01 -2.526025474E-02 6.562663857E-02
 6.797578931E-01 -2.345350012E-02 8.139947178E-02
 6.921272278E-01 -2.172692120E-02 1.045488228E-01
 7.055452168E-01 -1.989145111E-02 1.227049983E-01
 7.189396322E-01 -1.806086209E-02 1.428451448E-01
 7.310865521E-01 -1.643520035E-02 1.692111416E-01
 7.431268990E-01 -1.487966580E-02 1.747746275E-01
 7.552440763E-01 -1.331437752E-02 1.964244962E-01
 7.678079009E-01 -1.174758328E-02 2.157625242E-01
 7.799411714E-01 -1.027689734E-02 2.259256537E-01
 7.918120027E-01 -8.856704924E-03 2.489385677E-01
 8.036467433E-01 -7.509432035E-03 2.676333928E-01
 8.151520193E-01 -6.281329319E-03 2.760591672E-01
 8.272221386E-01 -5.038930802E-03 2.906562570E-01
 8.397448957E-01 -3.836352611E-03 3.088990214E-01
 8.520161211E-01 -2.749187755E-03 3.185396787E-01
 8.640978038E-01 -1.771141251E-03 3.347745006E-01
 8.764971495E-01 -8.937781968E-04 3.432473654E-01
 8.895405829E-01 -1.089584548E-04 3.511297228E-01
 9.014637768E-01 4.910034768E-04 3.599129326E-01
 9.414879084E-01 1.518034609E-03 3.604757354E-01
 9.544915557E-01 1.542233920E-03 3.582528581E-01
 9.687258303E-01 1.407601754E-03 3.555902299E-01
 9.826023579E-01 1.123355323E-03 3.591519177E-01
 9.945350885E-01 7.378727896E-04 4.047304202E-01
 -5.000000000E-01 9.500000000E-01 1.957278613E-02
 -5.000000000E-01 9.000000000E-01 2.966906934E-02
 -5.000000000E-01 8.500000000E-01 3.735927293E-02
 -5.000000000E-01 8.000000000E-01 4.420531865E-02
 -5.000000000E-01 7.500000000E-01 5.061993418E-02
 -5.000000000E-01 7.000000000E-01 5.730837941E-02
 -5.000000000E-01 6.500000000E-01 6.383355544E-02
 -5.000000000E-01 6.000000000E-01 7.069367877E-02
 -5.000000000E-01 5.500000000E-01 7.775245269E-02
 -5.000000000E-01 5.000000000E-01 8.484754175E-02
 -5.000000000E-01 4.500000000E-01 9.238040736E-02
 -5.000000000E-01 4.000000000E-01 9.968603531E-02
 -5.000000000E-01 3.500000000E-01 1.070206974E-01
 -5.000000000E-01 3.000000000E-01 1.140157802E-01
 -5.000000000E-01 2.500000000E-01 1.207647071E-01
 -5.000000000E-01 2.000000000E-01 1.265203888E-01
 -5.000000000E-01 1.500000000E-01 1.316107349E-01
 -5.000000000E-01 1.000000000E-01 1.353874566E-01
 -5.000000000E-01 5.000000000E-02 1.379270266E-01
 -5.000000000E-01 2.752242878E-12 1.389748842E-01
 -5.000000000E-01 -5.000000000E-02 1.385138098E-01
 -5.000000000E-01 -1.000000000E-01 1.366312557E-01
 -5.000000000E-01 -1.500000000E-01 1.334958178E-01
 -5.000000000E-01 -2.000000000E-01 1.289646426E-01
 -5.000000000E-01 -2.500000000E-01 1.235423767E-01
 -5.000000000E-01 -3.000000000E-01 1.174344490E-01
 -5.000000000E-01 -3.500000000E-01 1.106764112E-01
 -5.000000000E-01 -4.000000000E-01 1.036450912E-01
 -5.000000000E-01 -4.500000000E-01 9.656627928E-02
 -5.000000000E-01 -5.000000000E-01 8.934825604E-02
 -5.000000000E-01 -5.500000000E-01 8.222095217E-02
 -5.000000000E-01 -6.000000000E-01 7.516567221E-02
 -5.000000000E-01 -6.500000000E-01 6.829804140E-02
 -5.000000000E-01 -7.000000000E-01 6.157838888E-02
 -5.000000000E-01 -7.500000000E-01 5.478795273E-02
 -5.000000000E-01 -8.000000000E-01 4.791051824E-02
 -5.000000000E-01 -8.500000000E-01 4.063301004E-02
 -5.000000000E-01 -9.000000000E-01 3.231561382E-02
 -5.000000000E-01 -9.500000000E-01 2.140045073E-02
 -4.500000000E-01 -1.000000000E+00 1.771294408E-02
 -4.000000000E-01 -1.000000000E+00 2.630474011E-02
 -3.500000000E-01 -1.000000000E+00 3.175479239E-02
 -3.000000000E-01 -1.000000000E+00 3.520046582E-02
 -2.500000000E-01 -1.000000000E+00 3.731612742E-02
 -2.000000000E-01 -1.000000000E+00 3.810439058E-02
 -1.500000000E-01 -1.000000000E+00 3.755418907E-02
 -1.000000000E-01 -1.000000000E+00 3.561451807E-02
 -5.000000000E-02 -1.000000000E+00 3.237654145E-02
 -9.424683256E-13 -1.000000000E+00 2.789132642E-02
 5.000000000E-02 -1.000000000E+00 2.222345898E-02
 1.000000000E-01 -1.000000000E+00 1.552365676E-02
 1.500000000E-01 -1.000000000E+00 8.062616731E-03
 2.000000000E-01 -1.000000000E+00 2.867060519E-04
 2.500000000E-01 -1.000000000E+00 -7.498713570E-03
 3.000000000E-01 -1.000000000E+00 -1.493682706E-02
 3.500000000E-01 -1.000000000E+00 -2.179819559E-02
 4.000000000E-01 -1.000000000E+00 -2.748102228E-02
 4.500000000E-01 -1.000000000E+00 -3.174505948E-02
 5.000000000E-01 -1.000000000E+00 -3.442664869E-02
 5.500000000E-01 -1.000000000E+00 -3.546942137E-02
 6.000000000E-01 -1.000000000E+00 -3.466449753E-02
 6.500000000E-01 -1.000000000E+00 -3.231353987E-02
 7.000000000E-01 -1.000000000E+00 -2.860751560E-02
 7.500000000E-01 -1.000000000E+00 -2.382662202E-02
 8.000000000E-01 -1.000000000E+00 -1.827174735E-02
 8.500000000E-01 -1.000000000E+00 -1.222305210E-02
 9.000000000E-01 -1.000000000E+00 -6.048753878E-03
 9.500000000E-01 -1.000000000E+00 8.575572069E-05
 1.000000000E+00 -1.000000000E+00 5.925325234E-03
 1.050000000E+00 -1.000000000E+00 1.113581193E-02
 1.100000000E+00 -1.000000000E+00 1.586022105E-02
 1.150000000E+00 -1.000000000E+00 1.992974286E-02
 1.200000000E+00 -1.000000000E+00 2.333614545E-02
 1.250000000E+00 -1.000000000E+00 2.615861020E-02
 1.300000000E+00 -1.000000000E+00 2.832202803E-02
 1.350000000E+00 -1.000000000E+00 2.997847475E-02
 1.400000000E+00 -1.000000000E+00 3.111918914E-02
 1.450000000E+00 -1.000000000E+00 3.189122745E-02
 1.500000000E+00 -1.000000000E+00 3.225392788E-02
 1.550000000E+00 -1.000000000E+00 3.233765585E-02
 1.600000000E+00 -1.000000000E+00 3.220126072E-02
 1.650000000E+00 -1.000000000E+00 3.181910109E-02
 1.700000000E+00 -1.000000000E+00 3.131481006E-02
 1.750000000E+00 -1.000000000E+00 3.067294389E-02
 1.800000000E+00 -1.000000000E+00 2.993995607E-02
 1.850000000E+00 -1.000000000E+00 2.914707192E-02
 1.900000000E+00 -1.000000000E+00 2.828718934E-02
 1.950000000E+00 -1.000000000E+00 2.748219281E-02
 2.000000000E+00 -1.000000000E+00 2.653480266E-02
 2.050000000E+00 -1.000000000E+00 2.571616207E-02
 2.100000000E+00 -1.000000000E+00 2.479507140E-02
 2.150000000E+00 -1.000000000E+00 2.395155366E-02
 2.200000000E+00 -1.000000000E+00 2.312835366E-02
 2.250000000E+00 -1.000000000E+00 2.232440410E-02
 2.300000000E+00 -1.000000000E+00 2.157148704E-02
 2.350000000E+00 -1.000000000E+00 2.081555908E-02
 2.400000000E+00 -1.000000000E+00 2.012613670E-02
 2.450000000E+00 -1.000000000E+00 1.956589557E-02
 2.500000000E+00 -1.000000000E+00 1.878737739E-02
 2.550000000E+00 -1.000000000E+00 1.836011874E-02
 2.600000000E+00 -1.000000000E+00 1.770244026E-02
 2.650000000E+00 -1.000000000E+00 1.725430203E-02
 2.700000000E+00 -1.000000000E+00 1.678681471E-02
 2.750000000E+00 -1.000000000E+00 1.639161012E-02
 2.800000000E+00 -1.000000000E+00 1.600551944E-02
 2.850000000E+00 -1.000000000E+00 1.567205780E-02
 2.900000000E+00 -1.000000000E+00 1.536773543E-02
 2.950000000E+00 -1.000000000E+00 1.508754996E-02
 3.000000000E+00 -1.000000000E+00 1.484063824E-02
 3.050000000E+00 -1.000000000E+00 1.459934847E-02
 3.100000000E+00 -1.000000000E+00 1.436194201E-02
 3.150000000E+00 -1.000000000E+00 1.413175903E-02
 3.200000000E+00 -1.000000000E+00 1.385422880E-02
 3.250000000E+00 -1.000000000E+00 1.353055366E-02
 3.300000000E+00 -1.000000000E+00 1.309624309E-02
 3.350000000E+00 -1.000000000E+00 1.247745744E-02
 3.400000000E+00 -1.000000000E+00 1.134802945E-02
 3.450000000E+00 -1.000000000E+00 9.003069834E-03
 3.500000000E+00 -9.500000000E-01 4.259112507E-03
 3.500000000E+00 -9.000000000E-01 5.663636578E-03
 3.500000000E+00 -8.500000000E-01 6.912011971E-03
 3.500000000E+00 -8.000000000E-01 8.202954375E-03
 3.500000000E+00 -7.500000000E-01 9.385906406E-03
 3.500000000E+00 -7.000000000E-01 1.043622197E-02
 3.500000000E+00 -6.500000000E-01 1.156867597E-02
 3.500000000E+00 -6.000000000E-01 1.274631953E-02
 3.500000000E+00 -5.500000000E-01 1.394878615E-02
 3.500000000E+00 -5.000000000E-01 1.516279844E-02
 3.500000000E+00 -4.500000000E-01 1.636332267E-02
 3.500000000E+00 -4.000000000E-01 1.758244276E-02
 3.500000000E+00 -3.500000000E-01 1.872002581E-02
 3.500000000E+00 -3.000000000E-01 1.980523685E-02
 3.500000000E+00 -2.500000000E-01 2.081918970E-02
 3.500000000E+00 -2.000000000E-01 2.121761136E-02
 3.500000000E+00 -1.500000000E-01 2.125617027E-02
 3.500000000E+00 -1.000000000E-01 2.092134247E-02
 3.500000000E+00 -5.000000000E-02 2.061574535E-02
 3.500000000E+00 -2.752242878E-12 2.064149630E-02
 3.500000000E+00 5.000000000E-02 2.096615902E-02
 3.500000000E+00 1.000000000E-01 2.126692192E-02
 3.500000000E+00 1.500000000E-01 2.100029318E-02
 3.500000000E+00 2.000000000E-01 2.007354417E-02
 3.500000000E+00 2.500000000E-01 1.887528678E-02
 3.500000000E+00 3.000000000E-01 1.759537754E-02
 3.500000000E+00 3.500000000E-01 1.630739251E-02
 3.500000000E+00 4.000000000E-01 1.505269119E-02
 3.500000000E+00 4.500000000E-01 1.393452667E-02
 3.500000000E+00 5.000000000E-01 1.255155849E-02
 3.500000000E+00 5.500000000E-01 1.123943573E-02
 3.500000000E+00 6.000000000E-01 1.034311343E-02
 3.500000000E+00 6.500000000E-01 9.949272682E-03
 3.500000000E+00 7.000000000E-01 9.717824695E-03
 3.500000000E+00 7.500000000E-01 8.428802313E-03
 3.500000000E+00 8.000000000E-01 4.701350720E-03
 3.500000000E+00 8.500000000E-01 -2.963869396E-03
 3.500000000E+00 9.000000000E-01 -1.305010111E-02
 3.500000000E+00 9.500000000E-01 -2.300758753E-02
 3.450000000E+00 1.000000000E+00 -9.309888602E-03
 3.400000000E+00 1.000000000E+00 -2.470924175E-03
 3.350000000E+00 1.000000000E+00 -4.517048834E-04
 3.300000000E+00 1.000000000E+00 -2.425408949E-04
 3.250000000E+00 1.000000000E+00 -4.780441075E-04
 3.200000000E+00 1.000000000E+00 -9.819568488E-04
 3.150000000E+00 1.000000000E+00 -1.604065236E-03
 3.100000000E+00 1.000000000E+00 -2.242400995E-03
 3.050000000E+00 1.000000000E+00 -3.065622606E-03
 3.000000000E+00 1.000000000E+00 -3.845408468E-03
 2.950000000E+00 1.000000000E+00 -4.683232898E-03
 2.900000000E+00 1.000000000E+00 -5.606771140E-03
 2.850000000E+00 1.000000000E+00 -6.452757699E-03
 2.800000000E+00 1.000000000E+00 -7.517703625E-03
 2.750000000E+00 1.000000000E+00 -8.484662167E-03
 2.700000000E+00 1.000000000E+00 -9.411985247E-03
 2.650000000E+00 1.000000000E+00 -1.053241406E-02
 2.600000000E+00 1.000000000E+00 -1.151176386E-02
 2.550000000E+00 1.000000000E+00 -1.266750277E-02
 2.500000000E+00 1.000000000E+00 -1.381052019E-02
 2.450000000E+00 1.000000000E+00 -1.503328446E-02
 2.400000000E+00 1.000000000E+00 -1.627929795E-02
 2.350000000E+00 1.000000000E+00 -1.753462483E-02
 2.300000000E+00 1.000000000E+00 -1.903609321E-02
 2.250000000E+00 1.000000000E+00 -2.050261118E-02
 2.200000000E+00 1.000000000E+00 -2.218502434E-02
 2.150000000E+00 1.000000000E+00 -2.381018331E-02
 2.100000000E+00 1.000000000E+00 -2.575847319E-02
 2.050000000E+00 1.000000000E+00 -2.751806424E-02
 2.000000000E+00 1.000000000E+00 -2.966074590E-02
 1.950000000E+00 1.000000000E+00 -3.178316639E-02
 1.900000000E+00 1.000000000E+00 -3.419471100E-02
 1.850000000E+00 1.000000000E+00 -3.680880857E-02
 1.800000000E+00 1.000000000E+00 -3.952343385E-02
 1.750000000E+00 1.000000000E+00 -4.265150955E-02
 1.700000000E+00 1.000000000E+00 -4.574630931E-02
 1.650000000E+00 1.000000000E+00 -4.953071874E-02
 1.600000000E+00 1.000000000E+00 -5.325470741E-02
 1.550000000E+00 1.000000000E+00 -5.754573513E-02
 1.500000000E+00 1.000000000E+00 -6.208425141E-02
 1.450000000E+00 1.000000000E+00 -6.699420933E-02
 1.400000000E+00 1.000000000E+00 -7.234109925E-02
 1.350000000E+00 1.000000000E+00 -7.797429783E-02
 1.300000000E+00 1.000000000E+00 -8.391724315E-02
 1.250000000E+00 1.000000000E+00 -9.028353567E-02
 1.200000000E+00 1.000000000E+00 -9.641864943E-02
 1.150000000E+00 1.000000000E+00 -1.031530756E-01
 1.100000000E+00 1.000000000E+00 -1.091020738E-01
 1.050000000E+00 1.000000000E+00 -1.152929734E-01
 1.000000000E+00 1.000000000E+00 -1.202466846E-01
 9.500000000E-01 1.000000000E+00 -1.248464671E-01
 9.000000000E-01 1.000000000E+00 -1.277605696E-01
 8.500000000E-01 1.000000000E+00 -1.293995423E-01
 8.000000000E-01 1.000000000E+00 -1.299575642E-01
 7.500000000E-01 1.000000000E+00 -1.281333179E-01
 7.000000000E-01 1.000000000E+00 -1.238312431E-01
 6.500000000E-01 1.000000000E+00 -1.192175365E-01
 6.000000000E-01 1.000000000E+00 -1.112965683E-01
 5.500000000E-01 1.000000000E+00 -1.025666064E-01
 5.000000000E-01 1.000000000E+00 -9.252434698E-02
 4.500000000E-01 1.000000000E+00 -8.097287197E-02
 4.000000000E-01 1.000000000E+00 -6.875750422E-02
 3.500000000E-01 1.000000000E+00 -5.622545026E-02
 3.000000000E-01 1.000000000E+00 -4.362124026E-02
 2.500000000E-01 1.000000000E+00 -3.130887660E-02
 2.000000000E-01 1.000000000E+00 -1.931643682E-02
 1.500000000E-01 1.000000000E+00 -7.953984295E-03
 1.000000000E-01 1.000000000E+00 2.067402548E-03
 5.000000000E-02 1.000000000E+00 1.101650552E-02
 1.733724275E-12 1.000000000E+00 1.842667548E-02
 -5.000000000E-02 1.000000000E+00 2.436930008E-02
 -1.000000000E-01 1.000000000E+00 2.875052762E-02
 -1.500000000E-01 1.000000000E+00 3.167695949E-02
 -2.000000000E-01 1.000000000E+00 3.310728138E-02
 -2.500000000E-01 1.000000000E+00 3.307264949E-02
 -3.000000000E-01 1.000000000E+00 3.158601564E-02
 -3.500000000E-01 1.000000000E+00 2.867661426E-02
 -4.000000000E-01 1.000000000E+00 2.393139245E-02
 -4.500000000E-01 1.000000000E+00 1.608655330E-02
 1.970168117E+00 -9.571610348E-01 2.653665811E-02
 1.975420355E+00 9.540930539E-01 -2.917120291E-02
 9.041368694E-01 -4.447573926E-03 3.530265213E-01
 8.247621697E-01 -1.075010406E-02 2.830578107E-01
 9.866819928E-01 -3.636197804E-03 3.600422853E-01
 7.520193186E-01 -1.891999841E-02 1.879784421E-01
 6.834152042E-01 -2.893988900E-02 8.671260582E-02
 6.166739000E-01 -3.807196643E-02 -3.432059610E-02
 5.477351447E-01 -4.651879357E-02 -1.993302992E-01
 4.831817026E-01 -5.481613461E-02 -3.946660899E-01
 4.269791670E-01 -5.961255790E-02 -5.600868433E-01
 3.668171188E-01 -6.096928161E-02 -6.276373662E-01
 3.143990860E-01 -6.100276774E-02 -5.650732242E-01
 2.576178031E-01 -5.743076790E-02 -4.684619547E-01