TITLE     = "Visualization of the solution"
VARIABLES = "x"
"y"
"Pressure_Coefficient"
ZONE T="Zone"
 STRANDID=0, SOLUTIONTIME=0
 Nodes=11730, Elements=22882, ZONETYPE=FEQuadrilateral
 DATAPACKING=POINT
 DT=(DOUBLE DOUBLE DOUBLE )
 1.000187993E+00 5.202794564E-04 3.283567785E-01
 9.850997925E-01 3.273211885E-03 3.151084390E-01
 9.730321765E-01 5.586211104E-03 2.130224158E-01
 9.582760334E-01 8.234160952E-03 1.654132704E-01
 9.451408386E-01 1.068289671E-02 1.047092097E-01
 9.334704280E-01 1.283159386E-02 5.147795027E-02
 9.221320748E-01 1.481524855E-02 2.699767193E-02
 9.099063277E-01 1.693782583E-02 2.150650896E-04
 8.987258673E-01 1.893306337E-02 -6.390287847E-02
 8.863679171E-01 2.095373347E-02 -8.342444831E-02
 8.742510080E-01 2.288824879E-02 -1.128029088E-01
 8.620885611E-01 2.474942803E-02 -1.368434940E-01
 8.492708206E-01 2.660131641E-02 -1.417932833E-01
 8.374521732E-01 2.829507180E-02 -1.603295894E-01
 8.255091310E-01 2.996468171E-02 -1.760043336E-01
 8.125864267E-01 3.173410147E-02 -1.943905093E-01
 7.996759415E-01 3.347371891E-02 -2.202996287E-01
 7.875533104E-01 3.501882404E-02 -2.216545072E-01
 7.749426365E-01 3.663679212E-02 -2.459551149E-01
 7.627654672E-01 3.814674541E-02 -2.603688867E-01
 7.497673035E-01 3.972064704E-02 -2.756516047E-01
 7.359473109E-01 4.135938734E-02 -2.973057987E-01
 7.247923613E-01 4.263827577E-02 -3.087524384E-01
 7.133776546E-01 4.392762855E-02 -3.266824526E-01
 7.015168667E-01 4.523367435E-02 -3.435392137E-01
 6.881296039E-01 4.666614905E-02 -3.667490844E-01
 6.752142310E-01 4.800941795E-02 -3.953095684E-01
 6.641724706E-01 4.908509925E-02 -3.991452448E-01
 6.525050998E-01 5.020777509E-02 -4.243222963E-01
 6.415854096E-01 5.121666566E-02 -4.426133325E-01
 6.293944716E-01 5.227795988E-02 -4.567267336E-01
 6.179842949E-01 5.324745923E-02 -4.837499774E-01
 6.071492434E-01 5.409608409E-02 -4.946185332E-01
 5.949175358E-01 5.502291024E-02 -5.220389824E-01
 5.829078555E-01 5.584318191E-02 -5.203709898E-01
 5.691947937E-01 5.672475696E-02 -5.420239388E-01
 5.562757850E-01 5.751433223E-02 -5.796856300E-01
 5.432172418E-01 5.820017308E-02 -5.878165071E-01
 5.317559838E-01 5.873578414E-02 -5.909420302E-01
 5.197323561E-01 5.924330652E-02 -6.066992396E-01
 5.068981051E-01 5.971530825E-02 -6.242694389E-01
 4.960022271E-01 6.004386023E-02 -6.188696702E-01
 4.829405546E-01 6.036763266E-02 -6.146372893E-01
 4.700718224E-01 6.061102450E-02 -6.165162628E-01
 4.562008977E-01 6.080863997E-02 -6.211813337E-01
 4.421080649E-01 6.089673936E-02 -6.124999417E-01
 4.292064309E-01 6.091597304E-02 -6.079467427E-01
 4.160059988E-01 6.084472314E-02 -5.980908123E-01
 4.036612511E-01 6.072149053E-02 -5.895300502E-01
 3.907006383E-01 6.050671265E-02 -5.748527958E-01
 3.788066208E-01 6.025859714E-02 -5.714001057E-01
 3.676379621E-01 5.997026712E-02 -5.593359459E-01
 3.543995917E-01 5.955191702E-02 -5.469534159E-01
 3.423591554E-01 5.911424756E-02 -5.355858695E-01
 3.301599026E-01 5.860175937E-02 -5.251074495E-01
 3.201721311E-01 5.814917013E-02 -5.187144653E-01
 3.082371652E-01 5.752947927E-02 -4.999803673E-01
 2.959135473E-01 5.685165524E-02 -4.953752258E-01
 2.823140919E-01 5.601012334E-02 -4.804628439E-01
 2.698233426E-01 5.516082421E-02 -4.635317122E-01
 2.579421699E-01 5.429438129E-02 -4.492131047E-01
 2.453529388E-01 5.331400037E-02 -4.373130682E-01
 2.323755324E-01 5.223115534E-02 -4.264874123E-01
 2.201306969E-01 5.113217235E-02 -4.120787924E-01
 2.082122713E-01 4.999163002E-02 -3.981771783E-01
 1.965706348E-01 4.881331325E-02 -3.841884923E-01
 1.839957088E-01 4.745731875E-02 -3.665406145E-01
 1.720535904E-01 4.610086232E-02 -3.538754120E-01
 1.602309346E-01 4.468938336E-02 -3.450364483E-01
 1.484215409E-01 4.317985475E-02 -3.276278142E-01
 1.373300105E-01 4.168632627E-02 -3.133185563E-01
 1.261356026E-01 4.009561613E-02 -2.981806068E-01
 1.148023829E-01 3.838758543E-02 -2.831717188E-01
 1.040455475E-01 3.667934611E-02 -2.669989739E-01
 9.412545711E-02 3.500122204E-02 -2.542406632E-01
 8.313556761E-02 3.303124011E-02 -2.387876285E-01
 7.161780447E-02 3.080722876E-02 -2.177853036E-01
 6.184272096E-02 2.876946330E-02 -2.001066253E-01
 5.243499950E-02 2.665325068E-02 -1.808022282E-01
 4.354897141E-02 2.447227947E-02 -1.591704256E-01
 3.574698418E-02 2.237131447E-02 -1.382404987E-01
 2.905584499E-02 2.039123699E-02 -1.159074463E-01
 2.340777032E-02 1.853850484E-02 -9.585368419E-02
 1.931981370E-02 1.706307568E-02 -6.502383024E-02
 1.545818336E-02 1.552606467E-02 -3.728818558E-02
 1.265350357E-02 1.429124083E-02 -2.259239219E-03
 1.025060099E-02 1.313838549E-02 2.373274818E-02
 8.479685523E-03 1.220976468E-02 5.616963634E-02
 6.813028827E-03 1.125261839E-02 9.186526994E-02
 5.279419478E-03 1.027802005E-02 1.706110659E-01
 3.291759407E-03 8.841671050E-03 2.570754517E-01
 1.649013022E-03 7.418925408E-03 3.633843496E-01
 2.656078723E-04 5.916161928E-03 5.823300610E-01
 -1.072754152E-03 3.870813176E-03 8.198409940E-01
 -1.728905831E-03 2.212135121E-03 9.858952270E-01
 -1.994906692E-03 8.749080007E-04 1.116927517E+00
 -2.024814021E-03 -7.953288150E-04 1.197067230E+00
 -1.643643482E-03 -2.819722053E-03 1.180808118E+00
 -6.939487066E-04 -5.139459856E-03 1.073136495E+00
 8.697370649E-04 -7.603822742E-03 9.133515288E-01
 3.085306613E-03 -1.019180752E-02 7.508534075E-01
 5.094723310E-03 -1.211336162E-02 6.051030220E-01
 7.473241538E-03 -1.408247277E-02 5.119645304E-01
 9.211978875E-03 -1.537042018E-02 4.217696130E-01
 1.134591084E-02 -1.682986133E-02 3.638670490E-01
 1.385126356E-02 -1.840159111E-02 2.895343262E-01
 1.716855541E-02 -2.029534802E-02 2.180583777E-01
 2.044731751E-02 -2.200937085E-02 1.436107879E-01
 2.462616749E-02 -2.400862426E-02 8.132619515E-02
 3.013304248E-02 -2.638400905E-02 1.905703440E-02
 3.584694862E-02 -2.862298302E-02 -4.637474203E-02
 4.296831042E-02 -3.114623390E-02 -9.996664496E-02
 5.054051429E-02 -3.357539326E-02 -1.464377579E-01
 5.922281742E-02 -3.611827642E-02 -1.904966544E-01
 6.793079525E-02 -3.844117001E-02 -2.312062349E-01
 7.836207747E-02 -4.098334163E-02 -2.625463825E-01
 8.814299852E-02 -4.319062829E-02 -2.870184259E-01
 9.884748608E-02 -4.541693628E-02 -3.243589422E-01
 1.100307480E-01 -4.756636918E-02 -3.430102908E-01
 1.217460111E-01 -4.966050759E-02 -3.681755798E-01
 1.333077252E-01 -5.158522353E-02 -3.922454489E-01
 1.437411010E-01 -5.320828035E-02 -4.146261728E-01
 1.549343765E-01 -5.484547839E-02 -4.352283302E-01
 1.666525155E-01 -5.644358695E-02 -4.567382958E-01
 1.781820208E-01 -5.791087449E-02 -4.777136803E-01
 1.897962391E-01 -5.928849056E-02 -4.970562753E-01
 2.001153231E-01 -6.043898314E-02 -5.244749427E-01
 2.111704946E-01 -6.157930195E-02 -5.431458207E-01
 2.231909484E-01 -6.273009628E-02 -5.686551638E-01
 2.350603044E-01 -6.375586241E-02 -5.876646831E-01
 2.468019873E-01 -6.468882412E-02 -6.121395844E-01
 2.590023279E-01 -6.555638462E-02 -6.442447798E-01
 2.700173855E-01 -6.624799967E-02 -6.735263434E-01
 2.822557092E-01 -6.691185385E-02 -6.954173351E-01
 2.943919897E-01 -6.746674329E-02 -7.295496654E-01
 3.069567978E-01 -6.791400164E-02 -7.492878911E-01
 3.184103072E-01 -6.822951883E-02 -7.682333159E-01
 3.306682408E-01 -6.846495718E-02 -8.032004750E-01
 3.407258391E-01 -6.854876876E-02 -8.289259452E-01
 3.519826829E-01 -6.854208559E-02 -8.622308607E-01
 3.630308807E-01 -6.843434274E-02 -8.846800125E-01
 3.736976683E-01 -6.823448837E-02 -9.118137105E-01
 3.852456808E-01 -6.790716201E-02 -9.390455303E-01
 3.977773190E-01 -6.742084026E-02 -9.576283197E-01
 4.097523093E-01 -6.682369858E-02 -9.820819985E-01
 4.226481616E-01 -6.605169922E-02 -1.038830370E+00
 4.349549115E-01 -6.515952200E-02 -7.475973073E-01
 4.479289055E-01 -6.411123276E-02 -4.325851703E-01
 4.604393542E-01 -6.296299398E-02 -4.889017226E-01
 4.729173779E-01 -6.169070676E-02 -4.781035377E-01
 4.849663079E-01 -6.039715558E-02 -4.493375942E-01
 4.972354174E-01 -5.896217376E-02 -4.105690147E-01
 5.106642842E-01 -5.731412768E-02 -3.725761276E-01
 5.240425467E-01 -5.556699634E-02 -3.285931235E-01
 5.369019508E-01 -5.383855850E-02 -2.964626610E-01
 5.507541895E-01 -5.188581347E-02 -2.525920499E-01
 5.638216138E-01 -5.000766367E-02 -2.204360880E-01
 5.772024393E-01 -4.802370444E-02 -1.814541304E-01
 5.904422998E-01 -4.607975855E-02 -1.676106160E-01
 6.031429172E-01 -4.409300536E-02 -1.159336049E-01
 6.164552569E-01 -4.207231477E-02 -1.002405958E-01
 6.304869652E-01 -3.989581019E-02 -7.057276728E-02
 6.439422369E-01 -3.777962923E-02 -3.907853694E-02
 6.573772430E-01 -3.568246961E-02 -1.641706696E-02
 6.711984277E-01 -3.352312744E-02 6.794354598E-03
 6.837892532E-01 -3.153724968E-02 3.522158654E-02
 6.964358687E-01 -2.959496714E-02 4.770604700E-02
 7.114720345E-01 -2.725691721E-02 7.441825081E-02
 7.246219516E-01 -2.521773614E-02 9.790925386E-02
 7.360592484E-01 -2.346077561E-02 1.186828052E-01
 7.492387295E-01 -2.148378640E-02 1.328945491E-01
 7.620961070E-01 -1.954173297E-02 1.580387468E-01
 7.755868435E-01 -1.757061109E-02 1.715340738E-01
 7.876093984E-01 -1.579025574E-02 2.008731298E-01
 8.003313541E-01 -1.398245059E-02 2.190099660E-01
 8.114955425E-01 -1.244047377E-02 2.384108893E-01
 8.231648207E-01 -1.093085948E-02 2.415782601E-01
 8.350437284E-01 -9.352605790E-03 2.720308149E-01
 8.474748731E-01 -7.830539718E-03 2.832247522E-01
 8.595034480E-01 -6.411842071E-03 3.024354923E-01
 8.704876304E-01 -5.180065520E-03 3.228835830E-01
 8.822733760E-01 -4.004679155E-03 3.302798057E-01
 8.948606253E-01 -2.835744992E-03 3.483764445E-01
 9.054559469E-01 -2.015252365E-03 3.491000928E-01
 9.155812263E-01 -1.282449113E-03 3.630790695E-01
 9.256766438E-01 -6.913983962E-04 3.624344547E-01
 9.355313182E-01 -2.136744297E-04 3.641457505E-01
 9.481551051E-01 2.552231308E-04 3.639479377E-01
 9.625028372E-01 5.811415613E-04 3.579184604E-01
 9.772151709E-01 7.088496350E-04 3.505291807E-01
 9.901169538E-01 6.512385444E-04 3.717653171E-01
 -5.000000000E-01 -1.000000000E+00 1.507717513E-02
 3.500000000E+00 -1.000000000E+00 2.083267537E-03
 3.500000000E+00 1.000000000E+00 -1.503357827E-02
 -5.000000000E-01 1.000000000E+00 1.476793124E-02
 9.926438928E-01 1.896745671E-03 4.011125204E-01
 9.790659845E-01 4.429711495E-03 2.513882104E-01
 9.656541049E-01 6.910186028E-03 1.894653643E-01
 9.517084360E-01 9.458528832E-03 1.333112678E-01
 9.393056333E-01 1.175724529E-02 7.378992541E-02
 9.278012514E-01 1.382342121E-02 3.981710097E-02
 9.160192013E-01 1.587653719E-02 1.883960234E-02
 9.043160975E-01 1.793544460E-02 -4.021128590E-02
 8.925468922E-01 1.994339842E-02 -7.212798689E-02
 8.803094625E-01 2.192099113E-02 -9.826985339E-02
 8.681697845E-01 2.381883841E-02 -1.281124949E-01
 8.556796908E-01 2.567537222E-02 -1.365396096E-01
 8.433614969E-01 2.744819410E-02 -1.512860042E-01
 8.314806521E-01 2.912987676E-02 -1.683472795E-01
 8.190477788E-01 3.084939159E-02 -1.833381128E-01
 8.061311841E-01 3.260391019E-02 -2.114051647E-01
 7.936146259E-01 3.424627148E-02 -2.171582622E-01
 7.812479734E-01 3.582780808E-02 -2.349468596E-01
 7.688540518E-01 3.739176877E-02 -2.535878949E-01
 7.562663853E-01 3.893369623E-02 -2.670191291E-01
 7.428573072E-01 4.054001719E-02 -2.873397344E-01
 7.303698361E-01 4.199883156E-02 -3.022503565E-01
 7.190850079E-01 4.328295216E-02 -3.178009046E-01
 7.074472606E-01 4.458065145E-02 -3.355635405E-01
 6.948232353E-01 4.594991170E-02 -3.530972813E-01
 6.816719174E-01 4.733778350E-02 -3.847100986E-01
 6.696933508E-01 4.854725860E-02 -3.946064836E-01
 6.583387852E-01 4.964643717E-02 -4.110358043E-01
 6.470452547E-01 5.071222037E-02 -4.368636175E-01
 6.354899406E-01 5.174731277E-02 -4.456226875E-01
 6.236893833E-01 5.276270956E-02 -4.744954542E-01
 6.125667691E-01 5.367177166E-02 -4.851841896E-01
 6.010333896E-01 5.455949716E-02 -5.127361505E-01
 5.889126956E-01 5.543304607E-02 -5.213193584E-01
 5.760513246E-01 5.628396943E-02 -5.251751467E-01
 5.627352893E-01 5.711954460E-02 -5.661653811E-01
 5.497465134E-01 5.785725266E-02 -5.844358223E-01
 5.374866128E-01 5.846797861E-02 -5.879983490E-01
 5.257441700E-01 5.898954533E-02 -5.978293891E-01
 5.133152306E-01 5.947930738E-02 -6.174634105E-01
 5.014501661E-01 5.987958424E-02 -6.228752970E-01
 4.894713908E-01 6.020574644E-02 -6.170423847E-01
 4.765061885E-01 6.048932858E-02 -6.128003095E-01
 4.631363600E-01 6.070983224E-02 -6.233286884E-01
 4.491544813E-01 6.085268967E-02 -6.138922279E-01
 4.356572479E-01 6.090635620E-02 -6.129608233E-01
 4.226062149E-01 6.088034809E-02 -6.006196522E-01
 4.098336250E-01 6.078310683E-02 -5.967045230E-01
 3.971809447E-01 6.061410159E-02 -5.797116285E-01
 3.847536296E-01 6.038265489E-02 -5.728884374E-01
 3.732222915E-01 6.011443213E-02 -5.678536896E-01
 3.610187769E-01 5.976109207E-02 -5.513087286E-01
 3.483793736E-01 5.933308229E-02 -5.428900523E-01
 3.362595290E-01 5.885800347E-02 -5.278537922E-01
 3.142046481E-01 5.783932470E-02 -5.059098072E-01
 3.020753562E-01 5.719056726E-02 -5.004028912E-01
 2.891138196E-01 5.643088929E-02 -4.880963428E-01
 2.760687172E-01 5.558547378E-02 -4.710843011E-01
 2.638827562E-01 5.472760275E-02 -4.562965487E-01
 2.516475543E-01 5.380419083E-02 -4.432981505E-01
 2.388642356E-01 5.277257785E-02 -4.321646171E-01
 2.262531146E-01 5.168166384E-02 -4.195887936E-01
 2.141714841E-01 5.056190118E-02 -4.043538193E-01
 2.023914531E-01 4.940247163E-02 -3.926599671E-01
 1.902831718E-01 4.813531600E-02 -3.747173587E-01
 1.780246496E-01 4.677909054E-02 -3.591548500E-01
 1.661422625E-01 4.539512284E-02 -3.514748998E-01
 1.543262377E-01 4.393461905E-02 -3.354509421E-01
 1.428757757E-01 4.243309051E-02 -3.204937470E-01
 1.317328066E-01 4.089097120E-02 -3.066939871E-01
 1.204689927E-01 3.924160078E-02 -2.891909164E-01
 1.094239652E-01 3.753346577E-02 -2.797433862E-01
 8.863051236E-02 3.401623107E-02 -2.481771393E-01
 7.737668604E-02 3.191923443E-02 -2.311546514E-01
 7.314643636E-02 -3.971225582E-02 -2.528960897E-01
 9.349524230E-02 -4.430378228E-02 -3.130407273E-01
 1.044391170E-01 -4.649165273E-02 -3.330637042E-01
 1.158883795E-01 -4.861343838E-02 -3.554911593E-01
 1.275268681E-01 -5.062286556E-02 -3.807443086E-01
 1.385244131E-01 -5.239675194E-02 -4.055073099E-01
 1.493377388E-01 -5.402687937E-02 -4.236143586E-01
 1.607934460E-01 -5.564453267E-02 -4.459450666E-01
 1.724172682E-01 -5.717723072E-02 -4.678737106E-01
 1.839891300E-01 -5.859968252E-02 -4.872351339E-01
 1.949557811E-01 -5.986373685E-02 -5.108883452E-01
 2.056429088E-01 -6.100914255E-02 -5.342970349E-01
 2.171807215E-01 -6.215469912E-02 -5.538647013E-01
 2.291256264E-01 -6.324297935E-02 -5.807383399E-01
 2.409311458E-01 -6.422234327E-02 -5.973778066E-01
 2.529021576E-01 -6.512260437E-02 -6.279005930E-01
 2.645098567E-01 -6.590219215E-02 -6.602733341E-01
 2.761365473E-01 -6.657992676E-02 -6.835125478E-01
 2.883238494E-01 -6.718929857E-02 -7.115400615E-01
 3.006743938E-01 -6.769037247E-02 -7.424084066E-01
 3.126835525E-01 -6.807176024E-02 -7.575671456E-01
 3.245392740E-01 -6.834723800E-02 -7.815924517E-01
 3.463542610E-01 -6.854542717E-02 -8.487650341E-01
 3.575067818E-01 -6.848821416E-02 -8.740241956E-01
 3.683642745E-01 -6.833441556E-02 -8.968791098E-01
 3.794716746E-01 -6.807082519E-02 -9.254632611E-01
 3.915114999E-01 -6.766400114E-02 -9.491868940E-01
 4.037648141E-01 -6.712226942E-02 -9.665880776E-01
 4.162002355E-01 -6.643769890E-02 -1.011233433E+00
 4.288015366E-01 -6.560561061E-02 -9.793874963E-01
 4.414419085E-01 -6.463537738E-02 -5.041501424E-01
 4.541841298E-01 -6.353711337E-02 -4.541972751E-01
 4.666783661E-01 -6.232685037E-02 -4.963378976E-01
 4.789418429E-01 -6.104393117E-02 -4.597482761E-01
 4.911008626E-01 -5.967966467E-02 -4.337650778E-01
 5.039498508E-01 -5.813815072E-02 -3.896399416E-01
 5.173534155E-01 -5.644056201E-02 -3.525051060E-01
 5.304722488E-01 -5.470277742E-02 -3.108321687E-01
 5.438280702E-01 -5.286218598E-02 -2.763757914E-01
 5.572879016E-01 -5.094673857E-02 -2.350858075E-01
 5.705120265E-01 -4.901568405E-02 -2.018456034E-01
 5.838223696E-01 -4.705173150E-02 -1.705970606E-01
 5.967926085E-01 -4.508638196E-02 -1.486565060E-01
 6.097990870E-01 -4.308266006E-02 -1.032469612E-01
 6.234711111E-01 -4.098406248E-02 -8.752209509E-02
 6.372146010E-01 -3.883771971E-02 -5.551967555E-02
 6.506597400E-01 -3.673104942E-02 -2.658286711E-02
 6.642878354E-01 -3.460279852E-02 -4.973982242E-03
 6.774938405E-01 -3.253018856E-02 2.006867191E-02
 6.901125610E-01 -3.056610841E-02 4.373609178E-02
 7.039539516E-01 -2.842594218E-02 5.925610776E-02
 7.180469930E-01 -2.623732667E-02 8.642425210E-02
 7.303406000E-01 -2.433925588E-02 1.084296988E-01
 7.426489890E-01 -2.247228101E-02 1.262486654E-01
 7.556674182E-01 -2.051275969E-02 1.438801018E-01
 7.688414752E-01 -1.855617203E-02 1.664813151E-01
 7.815981209E-01 -1.668043341E-02 1.842264003E-01
 7.939703763E-01 -1.488635316E-02 2.107541547E-01
 8.059134483E-01 -1.321146218E-02 2.287080001E-01
 8.173301816E-01 -1.168566663E-02 2.421335220E-01
 8.291042745E-01 -1.014173264E-02 2.529260842E-01
 8.412593007E-01 -8.591572754E-03 2.799564683E-01
 8.534891605E-01 -7.121190894E-03 2.919201799E-01
 8.649955392E-01 -5.795953795E-03 3.121269837E-01
 8.763805032E-01 -4.592372337E-03 3.276447062E-01
 8.885670006E-01 -3.420212073E-03 3.375850979E-01
 9.001582861E-01 -2.425498678E-03 3.529288016E-01
 9.105185866E-01 -1.648850739E-03 3.544048703E-01
 9.206289351E-01 -9.869237547E-04 3.652607737E-01
 9.418432117E-01 2.077435056E-05 3.639791500E-01
 9.553289711E-01 4.181823460E-04 3.607017921E-01
 9.698590040E-01 6.449955981E-04 3.549162480E-01
 9.836660624E-01 6.800440897E-04 3.443088770E-01
 -5.000000000E-01 9.500000000E-01 2.411735411E-02
 -5.000000000E-01 9.000000000E-01 3.646691475E-02
 -5.000000000E-01 8.500000000E-01 4.586163404E-02
 -5.000000000E-01 8.000000000E-01 5.414132851E-02
 -5.000000000E-01 7.500000000E-01 6.216500726E-02
 -5.000000000E-01 7.000000000E-01 6.971805147E-02
 -5.000000000E-01 6.500000000E-01 7.773006596E-02
 -5.000000000E-01 6.000000000E-01 8.576771891E-02
 -5.000000000E-01 5.500000000E-01 9.413818587E-02
 -5.000000000E-01 5.000000000E-01 1.027137861E-01
 -5.000000000E-01 4.500000000E-01 1.112972839E-01
 -5.000000000E-01 4.000000000E-01 1.199895260E-01
 -5.000000000E-01 3.500000000E-01 1.286364621E-01
 -5.000000000E-01 3.000000000E-01 1.368944774E-01
 -5.000000000E-01 2.500000000E-01 1.447473383E-01
 -5.000000000E-01 2.000000000E-01 1.516589513E-01
 -5.000000000E-01 1.500000000E-01 1.575239450E-01
 -5.000000000E-01 1.000000000E-01 1.619595612E-01
 -5.000000000E-01 5.000000000E-02 1.649698729E-01
 -5.000000000E-01 2.752242878E-12 1.661732139E-01
 -5.000000000E-01 -5.000000000E-02 1.654856991E-01
 -5.000000000E-01 -1.000000000E-01 1.630654979E-01
 -5.000000000E-01 -1.500000000E-01 1.590022635E-01
 -5.000000000E-01 -2.000000000E-01 1.535164090E-01
 -5.000000000E-01 -2.500000000E-01 1.468124190E-01
 -5.000000000E-01 -3.000000000E-01 1.391146048E-01
 -5.000000000E-01 -3.500000000E-01 1.309625909E-01
 -5.000000000E-01 -4.000000000E-01 1.222771802E-01
 -5.000000000E-01 -4.500000000E-01 1.134763375E-01
 -5.000000000E-01 -5.000000000E-01 1.046803855E-01
 -5.000000000E-01 -5.500000000E-01 9.605931141E-02
 -5.000000000E-01 -6.000000000E-01 8.748279140E-02
 -5.000000000E-01 -6.500000000E-01 7.932982437E-02
 -5.000000000E-01 -7.000000000E-01 7.119188516E-02
 -5.000000000E-01 -7.500000000E-01 6.320343591E-02
 -5.000000000E-01 -8.000000000E-01 5.516817859E-02
 -5.000000000E-01 -8.500000000E-01 4.672160231E-02
 -5.000000000E-01 -9.000000000E-01 3.710174478E-02
 -5.000000000E-01 -9.500000000E-01 2.454929561E-02
 -4.500000000E-01 -1.000000000E+00 2.028764270E-02
 -4.000000000E-01 -1.000000000E+00 3.007688937E-02
 -3.500000000E-01 -1.000000000E+00 3.615475661E-02
 -3.000000000E-01 -1.000000000E+00 3.979985218E-02
 -2.500000000E-01 -1.000000000E+00 4.184928170E-02
 -2.000000000E-01 -1.000000000E+00 4.217926694E-02
 -1.500000000E-01 -1.000000000E+00 4.072240752E-02
 -1.000000000E-01 -1.000000000E+00 3.759919615E-02
 -5.000000000E-02 -1.000000000E+00 3.269987892E-02
 -9.424683256E-13 -1.000000000E+00 2.613892548E-02
 5.000000000E-02 -1.000000000E+00 1.790653543E-02
 1.000000000E-01 -1.000000000E+00 8.448234171E-03
 1.500000000E-01 -1.000000000E+00 -2.418072550E-03
 2.000000000E-01 -1.000000000E+00 -1.388968090E-02
 2.500000000E-01 -1.000000000E+00 -2.554075441E-02
 3.000000000E-01 -1.000000000E+00 -3.700350147E-02
 3.500000000E-01 -1.000000000E+00 -4.748081685E-02
 4.000000000E-01 -1.000000000E+00 -5.678240429E-02
 4.500000000E-01 -1.000000000E+00 -6.426530108E-02
 5.000000000E-01 -1.000000000E+00 -6.989763516E-02
 5.500000000E-01 -1.000000000E+00 -7.292787043E-02
 6.000000000E-01 -1.000000000E+00 -7.381425010E-02
 6.500000000E-01 -1.000000000E+00 -7.235679263E-02
 7.000000000E-01 -1.000000000E+00 -6.886525743E-02
 7.500000000E-01 -1.000000000E+00 -6.399626796E-02
 8.000000000E-01 -1.000000000E+00 -5.776898148E-02
 8.500000000E-01 -1.000000000E+00 -5.057185634E-02
 9.000000000E-01 -1.000000000E+00 -4.285788976E-02
 9.500000000E-01 -1.000000000E+00 -3.536283447E-02
 1.000000000E+00 -1.000000000E+00 -2.773767670E-02
 1.050000000E+00 -1.000000000E+00 -2.067226866E-02
 1.100000000E+00 -1.000000000E+00 -1.402603245E-02
 1.150000000E+00 -1.000000000E+00 -8.014448515E-03
 1.200000000E+00 -1.000000000E+00 -2.814082214E-03
 1.250000000E+00 -1.000000000E+00 1.608664958E-03
 1.300000000E+00 -1.000000000E+00 5.411285639E-03
 1.350000000E+00 -1.000000000E+00 8.465039813E-03
 1.400000000E+00 -1.000000000E+00 1.105125987E-02
 1.450000000E+00 -1.000000000E+00 1.304262901E-02
 1.500000000E+00 -1.000000000E+00 1.469944234E-02
 1.550000000E+00 -1.000000000E+00 1.588458638E-02
 1.600000000E+00 -1.000000000E+00 1.679338483E-02
 1.650000000E+00 -1.000000000E+00 1.740132593E-02
 1.700000000E+00 -1.000000000E+00 1.779635280E-02
 1.750000000E+00 -1.000000000E+00 1.795885230E-02
 1.800000000E+00 -1.000000000E+00 1.814239281E-02
 1.850000000E+00 -1.000000000E+00 1.790566593E-02
 1.900000000E+00 -1.000000000E+00 1.784815206E-02
 1.950000000E+00 -1.000000000E+00 1.752570084E-02
 2.000000000E+00 -1.000000000E+00 1.727340520E-02
 2.050000000E+00 -1.000000000E+00 1.688547264E-02
 2.100000000E+00 -1.000000000E+00 1.667426979E-02
 2.150000000E+00 -1.000000000E+00 1.620085472E-02
 2.200000000E+00 -1.000000000E+00 1.597950062E-02
 2.250000000E+00 -1.000000000E+00 1.553605917E-02
 2.300000000E+00 -1.000000000E+00 1.523655022E-02
 2.350000000E+00 -1.000000000E+00 1.486410699E-02
 2.400000000E+00 -1.000000000E+00 1.455022194E-02
 2.450000000E+00 -1.000000000E+00 1.428592046E-02
 2.500000000E+00 -1.000000000E+00 1.394724247E-02
 2.550000000E+00 -1.000000000E+00 1.376285654E-02
 2.600000000E+00 -1.000000000E+00 1.352378125E-02
 2.650000000E+00 -1.000000000E+00 1.335067834E-02
 2.700000000E+00 -1.000000000E+00 1.318349083E-02
 2.750000000E+00 -1.000000000E+00 1.308305986E-02
 2.800000000E+00 -1.000000000E+00 1.297041775E-02
 2.850000000E+00 -1.000000000E+00 1.288236285E-02
 2.900000000E+00 -1.000000000E+00 1.284281853E-02
 2.950000000E+00 -1.000000000E+00 1.285451569E-02
 3.000000000E+00 -1.000000000E+00 1.280640878E-02
 3.050000000E+00 -1.000000000E+00 1.288027788E-02
 3.100000000E+00 -1.000000000E+00 1.280282670E-02
 3.150000000E+00 -1.000000000E+00 1.282242860E-02
 3.200000000E+00 -1.000000000E+00 1.274934039E-02
 3.250000000E+00 -1.000000000E+00 1.259520430E-02
 3.300000000E+00 -1.000000000E+00 1.234425051E-02
 3.350000000E+00 -1.000000000E+00 1.183301132E-02
 3.400000000E+00 -1.000000000E+00 1.051628979E-02
 3.450000000E+00 -1.000000000E+00 7.083398529E-03
 3.500000000E+00 -9.500000000E-01 4.631954084E-04
 3.500000000E+00 -9.000000000E-01 4.174594706E-03
 3.500000000E+00 -8.500000000E-01 7.042213438E-03
 3.500000000E+00 -8.000000000E-01 9.274730405E-03
 3.500000000E+00 -7.500000000E-01 1.085489557E-02
 3.500000000E+00 -7.000000000E-01 1.193323479E-02
 3.500000000E+00 -6.500000000E-01 1.306171663E-02
 3.500000000E+00 -6.000000000E-01 1.436943773E-02
 3.500000000E+00 -5.500000000E-01 1.578930061E-02
 3.500000000E+00 -5.000000000E-01 1.732010107E-02
 3.500000000E+00 -4.500000000E-01 1.885390503E-02
 3.500000000E+00 -4.000000000E-01 2.044111845E-02
 3.500000000E+00 -3.500000000E-01 2.201877928E-02
 3.500000000E+00 -3.000000000E-01 2.354224440E-02
 3.500000000E+00 -2.500000000E-01 2.468498857E-02
 3.500000000E+00 -2.000000000E-01 2.521391965E-02
 3.500000000E+00 -1.500000000E-01 2.497299494E-02
 3.500000000E+00 -1.000000000E-01 2.432935600E-02
 3.500000000E+00 -5.000000000E-02 2.384228044E-02
 3.500000000E+00 -2.752242878E-12 2.392503931E-02
 3.500000000E+00 5.000000000E-02 2.458444898E-02
 3.500000000E+00 1.000000000E-01 2.523120766E-02
 3.500000000E+00 1.500000000E-01 2.529274992E-02
 3.500000000E+00 2.000000000E-01 2.457688151E-02
 3.500000000E+00 2.500000000E-01 2.330834482E-02
 3.500000000E+00 3.000000000E-01 2.177948819E-02
 3.500000000E+00 3.500000000E-01 2.019503232E-02
 3.500000000E+00 4.000000000E-01 1.864235978E-02
 3.500000000E+00 4.500000000E-01 1.715547682E-02
 3.500000000E+00 5.000000000E-01 1.562526909E-02
 3.500000000E+00 5.500000000E-01 1.414269261E-02
 3.500000000E+00 6.000000000E-01 1.294904571E-02
 3.500000000E+00 6.500000000E-01 1.218745466E-02
 3.500000000E+00 7.000000000E-01 1.153542246E-02
 3.500000000E+00 7.500000000E-01 1.022203120E-02
 3.500000000E+00 8.000000000E-01 6.952033279E-03
 3.500000000E+00 8.500000000E-01 1.029649200E-03
 3.500000000E+00 9.000000000E-01 -7.103243358E-03
 3.500000000E+00 9.500000000E-01 -1.706652128E-02
 3.450000000E+00 1.000000000E+00 -5.128619904E-03
 3.400000000E+00 1.000000000E+00 1.326159374E-03
 3.350000000E+00 1.000000000E+00 3.232145701E-03
 3.300000000E+00 1.000000000E+00 3.371148473E-03
 3.250000000E+00 1.000000000E+00 3.261178571E-03
 3.200000000E+00 1.000000000E+00 2.767194075E-03
 3.150000000E+00 1.000000000E+00 2.279391868E-03
 3.100000000E+00 1.000000000E+00 1.613867918E-03
 3.050000000E+00 1.000000000E+00 9.332698229E-04
 3.000000000E+00 1.000000000E+00 2.912794393E-04
 2.950000000E+00 1.000000000E+00 -4.196162636E-04
 2.900000000E+00 1.000000000E+00 -1.155377253E-03
 2.850000000E+00 1.000000000E+00 -2.001737023E-03
 2.800000000E+00 1.000000000E+00 -2.627481019E-03
 2.750000000E+00 1.000000000E+00 -3.658025186E-03
 2.700000000E+00 1.000000000E+00 -4.129790549E-03
 2.650000000E+00 1.000000000E+00 -5.331941929E-03
 2.600000000E+00 1.000000000E+00 -6.000608739E-03
 2.550000000E+00 1.000000000E+00 -6.925115483E-03
 2.500000000E+00 1.000000000E+00 -7.918972679E-03
 2.450000000E+00 1.000000000E+00 -8.662499357E-03
 2.400000000E+00 1.000000000E+00 -9.813944463E-03
 2.350000000E+00 1.000000000E+00 -1.085813225E-02
 2.300000000E+00 1.000000000E+00 -1.194363084E-02
 2.250000000E+00 1.000000000E+00 -1.308012456E-02
 2.200000000E+00 1.000000000E+00 -1.423608431E-02
 2.150000000E+00 1.000000000E+00 -1.564365174E-02
 2.100000000E+00 1.000000000E+00 -1.686158479E-02
 2.050000000E+00 1.000000000E+00 -1.864285948E-02
 2.000000000E+00 1.000000000E+00 -2.006605809E-02
 1.950000000E+00 1.000000000E+00 -2.194105922E-02
 1.900000000E+00 1.000000000E+00 -2.403373023E-02
 1.850000000E+00 1.000000000E+00 -2.584885234E-02
 1.800000000E+00 1.000000000E+00 -2.836678813E-02
 1.750000000E+00 1.000000000E+00 -3.082936850E-02
 1.700000000E+00 1.000000000E+00 -3.382190664E-02
 1.650000000E+00 1.000000000E+00 -3.669021427E-02
 1.600000000E+00 1.000000000E+00 -4.033415944E-02
 1.550000000E+00 1.000000000E+00 -4.389186960E-02
 1.500000000E+00 1.000000000E+00 -4.819094806E-02
 1.450000000E+00 1.000000000E+00 -5.283257695E-02
 1.400000000E+00 1.000000000E+00 -5.782884622E-02
 1.350000000E+00 1.000000000E+00 -6.309129237E-02
 1.300000000E+00 1.000000000E+00 -6.914063706E-02
 1.250000000E+00 1.000000000E+00 -7.482023175E-02
 1.200000000E+00 1.000000000E+00 -8.179236856E-02
 1.150000000E+00 1.000000000E+00 -8.782418317E-02
 1.100000000E+00 1.000000000E+00 -9.505897132E-02
 1.050000000E+00 1.000000000E+00 -1.014034930E-01
 1.000000000E+00 1.000000000E+00 -1.074350274E-01
 9.500000000E-01 1.000000000E+00 -1.123565257E-01
 9.000000000E-01 1.000000000E+00 -1.164970209E-01
 8.500000000E-01 1.000000000E+00 -1.199693446E-01
 8.000000000E-01 1.000000000E+00 -1.207945597E-01
 7.500000000E-01 1.000000000E+00 -1.202464931E-01
 7.000000000E-01 1.000000000E+00 -1.174276623E-01
 6.500000000E-01 1.000000000E+00 -1.127066243E-01
 6.000000000E-01 1.000000000E+00 -1.054144719E-01
 5.500000000E-01 1.000000000E+00 -9.789991443E-02
 5.000000000E-01 1.000000000E+00 -8.751276873E-02
 4.500000000E-01 1.000000000E+00 -7.638876641E-02
 4.000000000E-01 1.000000000E+00 -6.430212621E-02
 3.500000000E-01 1.000000000E+00 -5.090301419E-02
 3.000000000E-01 1.000000000E+00 -3.805180203E-02
 2.500000000E-01 1.000000000E+00 -2.502315771E-02
 2.000000000E-01 1.000000000E+00 -1.258393289E-02
 1.500000000E-01 1.000000000E+00 -9.701398603E-04
 1.000000000E-01 1.000000000E+00 9.641331569E-03
 5.000000000E-02 1.000000000E+00 1.915028683E-02
 1.733724275E-12 1.000000000E+00 2.691531633E-02
 -5.000000000E-02 1.000000000E+00 3.311305575E-02
 -1.000000000E-01 1.000000000E+00 3.761006971E-02
 -1.500000000E-01 1.000000000E+00 4.054247714E-02
 -2.000000000E-01 1.000000000E+00 4.167376068E-02
 -2.500000000E-01 1.000000000E+00 4.122508958E-02
 -3.000000000E-01 1.000000000E+00 3.914916031E-02
 -3.500000000E-01 1.000000000E+00 3.553503946E-02
 -4.000000000E-01 1.000000000E+00 2.959800896E-02
 -4.500000000E-01 1.000000000E+00 1.988730903E-02
 8.741011673E-01 -1.000878595E-02 3.180966454E-01
 7.981861762E-01 -1.951207197E-02 2.121189793E-01
 7.286297238E-01 -2.970553148E-02 1.026996635E-01
 6.618620695E-01 -4.136554679E-02 -1.025580111E-02
 9.666112179E-01 -5.477310984E-03 3.476575645E-01
 5.945507765E-01 -5.037606430E-02 -1.535490893E-01
 5.282140327E-01 -6.061007024E-02 -3.140505476E-01
 4.636157939E-01 -6.787720172E-02 -4.861779037E-01
 4.082694307E-01 -7.180047700E-02 -9.626892427E-01
 3.501324148E-01 -7.320213608E-02 -8.463035286E-01
 2.971678552E-01 -7.263426739E-02 -7.245648232E-01
 2.375894384E-01 -6.889889572E-02 -5.838216638E-01
 1.813933673E-01 -6.325427695E-02 -4.749945130E-01
 1.238030132E-01 -5.514805564E-02 -3.625395106E-01
 1.977833015E+00 -9.568993654E-01 1.722216440E-02