TITLE     = "Visualization of the solution"
VARIABLES = "x"
"y"
"Pressure_Coefficient"
ZONE T="Zone"
 STRANDID=0, SOLUTIONTIME=0
 Nodes=12002, Elements=23422, ZONETYPE=FEQuadrilateral
 DATAPACKING=POINT
 DT=(DOUBLE DOUBLE DOUBLE )
 1.000322700E+00 5.134797539E-04 3.390042213E-01
 9.880658984E-01 2.825506497E-03 2.348523367E-01
 9.753223658E-01 5.157809705E-03 1.765382401E-01
 9.597402811E-01 8.101943880E-03 1.140928954E-01
 9.451940060E-01 1.087557711E-02 4.820834479E-02
 9.303540587E-01 1.354167331E-02 2.994227760E-02
 9.183673859E-01 1.576941088E-02 -1.455260031E-02
 9.060625434E-01 1.802179404E-02 -5.739843533E-02
 8.937674761E-01 2.017811872E-02 -7.353613394E-02
 8.818510175E-01 2.230555378E-02 -1.226260974E-01
 8.696663976E-01 2.437300794E-02 -1.486642079E-01
 8.573169708E-01 2.637794986E-02 -1.580837669E-01
 8.450295925E-01 2.838652208E-02 -1.989543945E-01
 8.335531354E-01 3.013654426E-02 -1.977582421E-01
 8.221213818E-01 3.189770505E-02 -2.240073921E-01
 8.095567226E-01 3.376673907E-02 -2.394684547E-01
 7.966924906E-01 3.563760966E-02 -2.541017971E-01
 7.843419909E-01 3.741092235E-02 -2.751913120E-01
 7.718850374E-01 3.916671872E-02 -2.998570763E-01
 7.600784898E-01 4.078134522E-02 -3.165502583E-01
 7.467617989E-01 4.254266247E-02 -3.261270741E-01
 7.331588268E-01 4.433218017E-02 -3.553917701E-01
 7.224465013E-01 4.570661858E-02 -3.786496273E-01
 7.114197612E-01 4.707770050E-02 -3.993112968E-01
 6.998668313E-01 4.846790433E-02 -4.142745570E-01
 6.866226792E-01 4.999485239E-02 -4.234326825E-01
 6.738306880E-01 5.147494376E-02 -4.729162128E-01
 6.634805202E-01 5.259151012E-02 -4.808785015E-01
 6.520119309E-01 5.377779528E-02 -4.901000664E-01
 6.405994296E-01 5.494406447E-02 -5.207659081E-01
 6.287482381E-01 5.608544499E-02 -5.502049006E-01
 6.175530553E-01 5.712113902E-02 -5.759473992E-01
 6.069039702E-01 5.802306160E-02 -5.793893158E-01
 5.945545435E-01 5.903795734E-02 -6.100332397E-01
 5.828790665E-01 5.992269889E-02 -6.233422164E-01
 5.695910454E-01 6.086211652E-02 -6.374415088E-01
 5.570604205E-01 6.165840104E-02 -6.656261201E-01
 5.446770787E-01 6.239017472E-02 -7.174023033E-01
 5.334573388E-01 6.295082718E-02 -7.430315502E-01
 5.216919780E-01 6.350715458E-02 -7.610593094E-01
 5.091603398E-01 6.400135905E-02 -7.520899317E-01
 4.980843067E-01 6.439594179E-02 -7.387844655E-01
 4.847854078E-01 6.477032602E-02 -7.135342790E-01
 4.715824723E-01 6.505255401E-02 -6.979341552E-01
 4.576676190E-01 6.526775658E-02 -7.054730320E-01
 4.443621039E-01 6.541550905E-02 -7.069507595E-01
 4.316118658E-01 6.545638293E-02 -6.796257090E-01
 4.187457860E-01 6.542745233E-02 -6.711350704E-01
 4.064506888E-01 6.534153223E-02 -6.592111876E-01
 3.940796852E-01 6.516817212E-02 -6.396649555E-01
 3.821127117E-01 6.495527178E-02 -6.301866849E-01
 3.704626262E-01 6.467256695E-02 -6.109075909E-01
 3.574353158E-01 6.430631876E-02 -6.060129796E-01
 3.450065255E-01 6.388143450E-02 -5.925590780E-01
 3.323424459E-01 6.337994337E-02 -5.827724395E-01
 3.213660419E-01 6.288676709E-02 -5.684228568E-01
 3.087001145E-01 6.224933267E-02 -5.524044977E-01
 2.957951725E-01 6.152796000E-02 -5.381152372E-01
 2.819568217E-01 6.067549065E-02 -5.269657415E-01
 2.696130872E-01 5.983344465E-02 -5.102691606E-01
 2.577758133E-01 5.896336585E-02 -4.956152831E-01
 2.452558577E-01 5.797193572E-02 -4.830347699E-01
 2.329119891E-01 5.692423135E-02 -4.729058214E-01
 2.206897885E-01 5.580154061E-02 -4.569606269E-01
 2.089450210E-01 5.464402214E-02 -4.396627779E-01
 1.973612309E-01 5.343784019E-02 -4.272453041E-01
 1.851714104E-01 5.208117142E-02 -4.115403512E-01
 1.733130664E-01 5.067345500E-02 -3.963640483E-01
 1.620210409E-01 4.925255105E-02 -3.807708380E-01
 1.501030326E-01 4.764689505E-02 -3.603057891E-01
 1.393843144E-01 4.612229392E-02 -3.428335618E-01
 1.278613061E-01 4.439087957E-02 -3.280995509E-01
 1.163990349E-01 4.254316539E-02 -3.088745502E-01
 1.058514938E-01 4.073794931E-02 -2.850016478E-01
 9.602314234E-02 3.894262388E-02 -2.673869271E-01
 8.490313590E-02 3.677406907E-02 -2.384882554E-01
 7.329954952E-02 3.433245048E-02 -2.128351913E-01
 6.326006353E-02 3.204393387E-02 -1.859176905E-01
 5.341390520E-02 2.959593013E-02 -1.448928918E-01
 4.461480305E-02 2.721373178E-02 -1.119037359E-01
 3.705693781E-02 2.496616356E-02 -7.264019246E-02
 3.033964150E-02 2.277767658E-02 -3.204291159E-02
 2.470756695E-02 2.076255158E-02 6.540221895E-03
 2.064365335E-02 1.916482113E-02 5.194144265E-02
 1.679491065E-02 1.752569899E-02 9.229815126E-02
 1.385897212E-02 1.615466364E-02 1.430323455E-01
 1.115895063E-02 1.477927901E-02 1.906147738E-01
 9.162331931E-03 1.366803888E-02 2.364283233E-01
 7.385141216E-03 1.259719301E-02 2.813745244E-01
 5.775642581E-03 1.152969059E-02 3.620732891E-01
 3.648316721E-03 9.929833002E-03 4.595937008E-01
 1.840338926E-03 8.306412026E-03 5.902358724E-01
 3.272923059E-04 6.598498672E-03 7.901552027E-01
 -1.090060221E-03 4.278782755E-03 9.968845239E-01
 -1.695110230E-03 2.481032629E-03 1.129216159E+00
 -1.870751730E-03 1.054411754E-03 1.181362684E+00
 -1.767044188E-03 -5.139444838E-04 1.147012946E+00
 -1.317374525E-03 -2.176953014E-03 1.077442100E+00
 -3.602822835E-04 -4.135275260E-03 8.982213964E-01
 1.097763889E-03 -6.147364154E-03 7.223013111E-01
 3.089184174E-03 -8.207479492E-03 5.568139068E-01
 4.917739425E-03 -9.759977460E-03 4.159401211E-01
 7.051643450E-03 -1.132333651E-02 3.315470162E-01
 8.713307790E-03 -1.241259277E-02 2.470322852E-01
 1.078343671E-02 -1.364878565E-02 1.963148496E-01
 1.316026598E-02 -1.494533196E-02 1.375935816E-01
 1.643371023E-02 -1.656251587E-02 7.758076950E-02
 1.942650788E-02 -1.790421084E-02 1.605416506E-02
 2.333912998E-02 -1.951176487E-02 -2.481717571E-02
 2.862849832E-02 -2.146829851E-02 -6.583615806E-02
 3.437457606E-02 -2.338975109E-02 -1.120279460E-01
 4.138150439E-02 -2.549902722E-02 -1.459342811E-01
 4.888800159E-02 -2.754609659E-02 -1.761993973E-01
 5.777725205E-02 -2.975194529E-02 -1.991791220E-01
 6.653738022E-02 -3.173793107E-02 -2.251400298E-01
 7.675547153E-02 -3.387004510E-02 -2.478353377E-01
 8.664022386E-02 -3.577072546E-02 -2.593988440E-01
 9.687059373E-02 -3.760743886E-02 -2.823467131E-01
 1.078825295E-01 -3.945314139E-02 -2.987008776E-01
 1.190573573E-01 -4.119547457E-02 -3.130135767E-01
 1.307486892E-01 -4.290872440E-02 -3.296878518E-01
 1.414916068E-01 -4.438516498E-02 -3.457334167E-01
 1.527628899E-01 -4.584930837E-02 -3.627219584E-01
 1.648955047E-01 -4.732433707E-02 -3.782903961E-01
 1.766327322E-01 -4.866773635E-02 -3.982087621E-01
 1.884905845E-01 -4.993406311E-02 -4.150973192E-01
 1.991887391E-01 -5.100647733E-02 -4.333135078E-01
 2.105932385E-01 -5.207700655E-02 -4.525618866E-01
 2.227402925E-01 -5.312702060E-02 -4.686220937E-01
 2.351589948E-01 -5.411689356E-02 -4.876155997E-01
 2.476389408E-01 -5.503257364E-02 -5.177374525E-01
 2.601116896E-01 -5.583316833E-02 -5.343816367E-01
 2.712180018E-01 -5.647017062E-02 -5.503089718E-01
 2.838951051E-01 -5.711977184E-02 -5.787732439E-01
 2.961944640E-01 -5.763109773E-02 -5.994784081E-01
 3.089524806E-01 -5.806844309E-02 -6.225201883E-01
 3.207049370E-01 -5.835628137E-02 -6.382478146E-01
 3.332970738E-01 -5.857191980E-02 -6.581377219E-01
 3.440859318E-01 -5.865544453E-02 -6.876429237E-01
 3.553366363E-01 -5.862655491E-02 -6.730999045E-01
 3.663550615E-01 -5.853310227E-02 -6.763303320E-01
 3.771364093E-01 -5.833006278E-02 -6.787681781E-01
 3.887309134E-01 -5.800983682E-02 -6.612189244E-01
 4.016033411E-01 -5.750621855E-02 -6.181390222E-01
 4.140484631E-01 -5.692040920E-02 -6.018189173E-01
 4.268916249E-01 -5.615300313E-02 -5.699344322E-01
 4.392963648E-01 -5.528065190E-02 -5.188488707E-01
 4.514455199E-01 -5.433315039E-02 -4.888465910E-01
 4.633665979E-01 -5.328874290E-02 -4.527936518E-01
 4.758174121E-01 -5.209549516E-02 -4.125850422E-01
 4.872775972E-01 -5.090055242E-02 -3.718368833E-01
 4.997548759E-01 -4.952459782E-02 -3.326084689E-01
 5.134470463E-01 -4.791987687E-02 -2.894070147E-01
 5.268219709E-01 -4.628178477E-02 -2.529910940E-01
 5.400525928E-01 -4.458021745E-02 -2.108201483E-01
 5.529648662E-01 -4.289146513E-02 -1.831629940E-01
 5.663071871E-01 -4.107288271E-02 -1.448466463E-01
 5.791633725E-01 -3.928375244E-02 -1.089585612E-01
 5.914143920E-01 -3.756989911E-02 -8.140487368E-02
 6.041740775E-01 -3.577402979E-02 -5.522328305E-02
 6.181835532E-01 -3.379052505E-02 -2.752752099E-02
 6.326110363E-01 -3.173761070E-02 3.488193104E-04
 6.471819282E-01 -2.967304736E-02 2.301006550E-02
 6.601412892E-01 -2.781837247E-02 4.926073391E-02
 6.734479070E-01 -2.591437846E-02 7.608313673E-02
 6.862079501E-01 -2.412839420E-02 9.385747453E-02
 6.985158324E-01 -2.242473513E-02 1.114637081E-01
 7.131172419E-01 -2.041566744E-02 1.327953598E-01
 7.262753248E-01 -1.863616705E-02 1.490548997E-01
 7.379005551E-01 -1.704002172E-02 1.772856258E-01
 7.513403893E-01 -1.529906504E-02 1.856545462E-01
 7.634965777E-01 -1.369978953E-02 2.135187052E-01
 7.770749927E-01 -1.202468574E-02 2.221781598E-01
 7.891168594E-01 -1.055785082E-02 2.384067220E-01
 8.015708923E-01 -9.045945480E-03 2.631984499E-01
 8.126109242E-01 -7.771519944E-03 2.801013515E-01
 8.242736459E-01 -6.508820690E-03 2.921156055E-01
 8.371433616E-01 -5.193827674E-03 3.051055748E-01
 8.496340513E-01 -3.985672258E-03 3.207224333E-01
 8.616806269E-01 -2.894626930E-03 3.378477004E-01
 8.730549216E-01 -1.968157245E-03 3.508267598E-01
 8.849515319E-01 -1.122455345E-03 3.586413020E-01
 8.980794549E-01 -3.157186438E-04 3.678323679E-01
 9.082895517E-01 2.082235733E-04 3.758597953E-01
 9.188846946E-01 6.411274662E-04 3.786211738E-01
 9.288468361E-01 9.457342676E-04 3.794860226E-01
 9.378368258E-01 1.144936541E-03 3.823158819E-01
 9.499257207E-01 1.292434754E-03 3.808113947E-01
 9.629153013E-01 1.305332989E-03 3.802877569E-01
 9.767709970E-01 1.160477637E-03 3.833160537E-01
 9.891629815E-01 8.864747942E-04 3.952562193E-01
 -5.000000000E-01 -1.000000000E+00 1.478418435E-02
 3.500000000E+00 -1.000000000E+00 6.812594421E-03
 3.500000000E+00 1.000000000E+00 -2.638959783E-02
 -5.000000000E-01 1.000000000E+00 1.376494639E-02
 9.941942990E-01 1.669493126E-03 3.147896295E-01
 9.816941321E-01 3.991658101E-03 2.061568284E-01
 9.675313234E-01 6.629876792E-03 1.445598189E-01
 9.524671435E-01 9.488760494E-03 7.447191278E-02
 9.377740324E-01 1.220862521E-02 4.238625547E-02
 9.243607223E-01 1.465554209E-02 7.176209295E-03
 9.122149646E-01 1.689560246E-02 -4.034962312E-02
 8.999150097E-01 1.909995638E-02 -6.060220624E-02
 8.878092468E-01 2.124183625E-02 -1.013179001E-01
 8.757587075E-01 2.333928086E-02 -1.390925709E-01
 8.634916842E-01 2.537547890E-02 -1.475954253E-01
 8.511732817E-01 2.738223597E-02 -1.855081009E-01
 8.392913640E-01 2.926153317E-02 -1.937567324E-01
 8.278372586E-01 3.101712465E-02 -2.127538562E-01
 8.158390522E-01 3.283222206E-02 -2.320295603E-01
 8.031246066E-01 3.470217437E-02 -2.457719965E-01
 7.905172408E-01 3.652426600E-02 -2.642189187E-01
 7.781135142E-01 3.828882053E-02 -2.878829726E-01
 7.659817636E-01 3.997403197E-02 -3.104920876E-01
 7.534201443E-01 4.166200384E-02 -3.185422107E-01
 7.399603128E-01 4.343742132E-02 -3.403462185E-01
 7.278026640E-01 4.501939937E-02 -3.682888017E-01
 7.169331312E-01 4.639215954E-02 -3.886815168E-01
 7.056432962E-01 4.777280241E-02 -4.102779758E-01
 6.932447553E-01 4.923137836E-02 -4.115824743E-01
 6.802266836E-01 5.073489808E-02 -4.520811999E-01
 6.686556041E-01 5.203322694E-02 -4.798351604E-01
 6.577462256E-01 5.318465270E-02 -4.802484591E-01
 6.463056803E-01 5.436092988E-02 -5.082610398E-01
 6.346738338E-01 5.551475473E-02 -5.318943763E-01
 6.231506467E-01 5.660329200E-02 -5.696794645E-01
 6.122285128E-01 5.757210031E-02 -5.727953300E-01
 6.007292569E-01 5.853050947E-02 -5.967399382E-01
 5.887168050E-01 5.948032811E-02 -6.171223775E-01
 5.762350559E-01 6.039240770E-02 -6.318805926E-01
 5.633257329E-01 6.126025878E-02 -6.443024090E-01
 5.508687496E-01 6.202428788E-02 -6.969103096E-01
 5.390672088E-01 6.267050095E-02 -7.259566499E-01
 5.275746584E-01 6.322899088E-02 -7.605008503E-01
 5.154261589E-01 6.375425681E-02 -7.534509673E-01
 5.036223233E-01 6.419865042E-02 -7.505893072E-01
 4.914348572E-01 6.458313391E-02 -7.256949036E-01
 4.781839401E-01 6.491144001E-02 -7.034323232E-01
 4.646250457E-01 6.516015530E-02 -6.980869560E-01
 4.510148615E-01 6.534163281E-02 -7.131876895E-01
 4.379869848E-01 6.543594599E-02 -6.916882124E-01
 4.251788259E-01 6.544191763E-02 -6.724256699E-01
 4.125982374E-01 6.538449228E-02 -6.694164428E-01
 4.002651870E-01 6.525485218E-02 -6.453524924E-01
 3.880961984E-01 6.506172195E-02 -6.377848965E-01
 3.762876689E-01 6.481391937E-02 -6.181135864E-01
 3.639489710E-01 6.448944286E-02 -6.094647000E-01
 3.512209207E-01 6.409387663E-02 -5.994665959E-01
 3.386744857E-01 6.363068894E-02 -5.866567976E-01
 3.268542439E-01 6.313335523E-02 -5.769289079E-01
 3.150330782E-01 6.256804988E-02 -5.603845056E-01
 3.022476435E-01 6.188864633E-02 -5.451237687E-01
 2.888759971E-01 6.110172532E-02 -5.328262807E-01
 2.757849544E-01 6.025446765E-02 -5.180355658E-01
 2.636944503E-01 5.939840525E-02 -5.032887229E-01
 2.515158355E-01 5.846765079E-02 -4.885557200E-01
 2.390839234E-01 5.744808353E-02 -4.788691917E-01
 2.268008888E-01 5.636288598E-02 -4.653879094E-01
 2.148174047E-01 5.522278138E-02 -4.468553638E-01
 2.031531259E-01 5.404093117E-02 -4.346073052E-01
 1.912663206E-01 5.275950581E-02 -4.197594344E-01
 1.792422384E-01 5.137731321E-02 -4.030245973E-01
 1.676670536E-01 4.996300302E-02 -3.905693764E-01
 1.560620368E-01 4.844972305E-02 -3.693358051E-01
 1.447436735E-01 4.688459449E-02 -3.515525886E-01
 1.336228102E-01 4.525658675E-02 -3.374103763E-01
 1.221301705E-01 4.346702248E-02 -3.164350067E-01
 1.111252643E-01 4.164055735E-02 -3.020344556E-01
 9.046313912E-02 3.785834648E-02 -2.549147874E-01
 7.910134271E-02 3.555325978E-02 -2.248367565E-01
 6.827980652E-02 3.318819217E-02 -2.005129616E-01
 5.833698437E-02 3.081993200E-02 -1.704660699E-01
 7.164642587E-02 -3.280398808E-02 -2.409333200E-01
 9.175540879E-02 -3.668908216E-02 -2.744796171E-01
 1.023765616E-01 -3.853029013E-02 -2.896139777E-01
 1.134699434E-01 -4.032430798E-02 -3.072756443E-01
 1.249030232E-01 -4.205209948E-02 -3.201980787E-01
 1.361201480E-01 -4.364694469E-02 -3.393164792E-01
 1.471272483E-01 -4.511723667E-02 -3.534375390E-01
 1.588291973E-01 -4.658682272E-02 -3.704646885E-01
 1.707641184E-01 -4.799603671E-02 -3.880120072E-01
 1.825616583E-01 -4.930089973E-02 -4.071712700E-01
 1.938396618E-01 -5.047027022E-02 -4.245677068E-01
 2.048909888E-01 -5.154174194E-02 -4.420125052E-01
 2.166667655E-01 -5.260201357E-02 -4.610492163E-01
 2.289496437E-01 -5.362195708E-02 -4.770702776E-01
 2.413989678E-01 -5.457473360E-02 -5.011285572E-01
 2.538753152E-01 -5.543287098E-02 -5.293614588E-01
 2.656648457E-01 -5.615166947E-02 -5.416477537E-01
 2.775565535E-01 -5.679497123E-02 -5.610270496E-01
 2.900447845E-01 -5.737543479E-02 -5.925347113E-01
 3.025734723E-01 -5.784977041E-02 -6.082268376E-01
 3.148287088E-01 -5.821236223E-02 -6.342557370E-01
 3.270010054E-01 -5.846410058E-02 -6.437959648E-01
 3.386915028E-01 -5.861368217E-02 -6.764254589E-01
 3.497112840E-01 -5.864099972E-02 -6.855140233E-01
 3.608458489E-01 -5.857982859E-02 -6.681765706E-01
 3.717457354E-01 -5.843158253E-02 -6.822040844E-01
 3.829336613E-01 -5.816994980E-02 -6.701675795E-01
 3.951671273E-01 -5.775802769E-02 -6.423421680E-01
 4.078259021E-01 -5.721331388E-02 -6.042401961E-01
 4.204700440E-01 -5.653670616E-02 -5.913729103E-01
 4.330939949E-01 -5.571682751E-02 -5.446526703E-01
 4.453709424E-01 -5.480690114E-02 -5.010081336E-01
 4.574060589E-01 -5.381094664E-02 -4.734497053E-01
 4.695920050E-01 -5.269211903E-02 -4.318310834E-01
 4.815475047E-01 -5.149802379E-02 -3.938792143E-01
 4.935162365E-01 -5.021257512E-02 -3.512942995E-01
 5.066009611E-01 -4.872223735E-02 -3.112484154E-01
 5.201345086E-01 -4.710083082E-02 -2.707362165E-01
 5.334372818E-01 -4.543100111E-02 -2.331456401E-01
 5.465087295E-01 -4.373584129E-02 -1.949946367E-01
 5.596360266E-01 -4.198217392E-02 -1.659195027E-01
 5.727352798E-01 -4.017831758E-02 -1.265502839E-01
 5.852888823E-01 -3.842682578E-02 -9.446278387E-02
 5.977942348E-01 -3.667196445E-02 -6.848129895E-02
 6.111788154E-01 -3.478227742E-02 -4.137766194E-02
 6.253972948E-01 -3.276406787E-02 -1.371010482E-02
 6.398964822E-01 -3.070532903E-02 1.242205018E-02
 6.536616087E-01 -2.874570992E-02 3.529446168E-02
 6.667945981E-01 -2.686637547E-02 6.227446517E-02
 6.798279285E-01 -2.502138633E-02 8.627788923E-02
 6.923618913E-01 -2.327656467E-02 1.027570937E-01
 7.058165371E-01 -2.142020129E-02 1.215379304E-01
 7.196962833E-01 -1.952591725E-02 1.418902747E-01
 7.320879400E-01 -1.783809438E-02 1.610297935E-01
 7.446204722E-01 -1.616954338E-02 1.836086194E-01
 7.574184835E-01 -1.449942729E-02 1.971206669E-01
 7.702857852E-01 -1.286223764E-02 2.198963609E-01
 7.830959260E-01 -1.129126828E-02 2.300327336E-01
 7.953438759E-01 -9.801898152E-03 2.487680538E-01
 8.070909083E-01 -8.408732712E-03 2.725015531E-01
 8.184422851E-01 -7.140170317E-03 2.865746328E-01
 8.307085037E-01 -5.851324182E-03 2.984013817E-01
 8.433887064E-01 -4.589749966E-03 3.125153290E-01
 8.556573391E-01 -3.440149594E-03 3.289359423E-01
 8.673677742E-01 -2.431392088E-03 3.448752828E-01
 8.790032268E-01 -1.545306295E-03 3.548577748E-01
 8.915154934E-01 -7.190869946E-04 3.623352499E-01
 9.031845033E-01 -5.374753528E-05 3.735982128E-01
 9.135871232E-01 4.246755198E-04 3.775982906E-01
 9.438812733E-01 1.218685647E-03 3.808591763E-01
 9.564205110E-01 1.298883872E-03 3.800913444E-01
 9.698431492E-01 1.232905313E-03 3.803359912E-01
 9.829669893E-01 1.023476216E-03 3.877497321E-01
 9.947428405E-01 6.999772741E-04 4.401943347E-01
 -5.000000000E-01 9.500000000E-01 2.254832881E-02
 -5.000000000E-01 9.000000000E-01 3.418472013E-02
 -5.000000000E-01 8.500000000E-01 4.306371211E-02
 -5.000000000E-01 8.000000000E-01 5.073402474E-02
 -5.000000000E-01 7.500000000E-01 5.839633687E-02
 -5.000000000E-01 7.000000000E-01 6.579330978E-02
 -5.000000000E-01 6.500000000E-01 7.348061923E-02
 -5.000000000E-01 6.000000000E-01 8.123159910E-02
 -5.000000000E-01 5.500000000E-01 8.935815022E-02
 -5.000000000E-01 5.000000000E-01 9.762867858E-02
 -5.000000000E-01 4.500000000E-01 1.058916989E-01
 -5.000000000E-01 4.000000000E-01 1.144359609E-01
 -5.000000000E-01 3.500000000E-01 1.227312629E-01
 -5.000000000E-01 3.000000000E-01 1.308478524E-01
 -5.000000000E-01 2.500000000E-01 1.382779716E-01
 -5.000000000E-01 2.000000000E-01 1.448521894E-01
 -5.000000000E-01 1.500000000E-01 1.504875028E-01
 -5.000000000E-01 1.000000000E-01 1.547324307E-01
 -5.000000000E-01 5.000000000E-02 1.574374759E-01
 -5.000000000E-01 2.752242878E-12 1.584682612E-01
 -5.000000000E-01 -5.000000000E-02 1.578849628E-01
 -5.000000000E-01 -1.000000000E-01 1.555311021E-01
 -5.000000000E-01 -1.500000000E-01 1.516554071E-01
 -5.000000000E-01 -2.000000000E-01 1.465054670E-01
 -5.000000000E-01 -2.500000000E-01 1.402161949E-01
 -5.000000000E-01 -3.000000000E-01 1.331423194E-01
 -5.000000000E-01 -3.500000000E-01 1.255481285E-01
 -5.000000000E-01 -4.000000000E-01 1.173915369E-01
 -5.000000000E-01 -4.500000000E-01 1.092803966E-01
 -5.000000000E-01 -5.000000000E-01 1.010832212E-01
 -5.000000000E-01 -5.500000000E-01 9.306190411E-02
 -5.000000000E-01 -6.000000000E-01 8.505370982E-02
 -5.000000000E-01 -6.500000000E-01 7.731870944E-02
 -5.000000000E-01 -7.000000000E-01 6.964812027E-02
 -5.000000000E-01 -7.500000000E-01 6.211902668E-02
 -5.000000000E-01 -8.000000000E-01 5.415218803E-02
 -5.000000000E-01 -8.500000000E-01 4.624271827E-02
 -5.000000000E-01 -9.000000000E-01 3.657177245E-02
 -5.000000000E-01 -9.500000000E-01 2.439649474E-02
 -4.500000000E-01 -1.000000000E+00 2.006199009E-02
 -4.000000000E-01 -1.000000000E+00 2.990177231E-02
 -3.500000000E-01 -1.000000000E+00 3.610973700E-02
 -3.000000000E-01 -1.000000000E+00 4.001966514E-02
 -2.500000000E-01 -1.000000000E+00 4.238245655E-02
 -2.000000000E-01 -1.000000000E+00 4.329317392E-02
 -1.500000000E-01 -1.000000000E+00 4.271503340E-02
 -1.000000000E-01 -1.000000000E+00 4.064600784E-02
 -5.000000000E-02 -1.000000000E+00 3.712979043E-02
 -9.424683256E-13 -1.000000000E+00 3.223855053E-02
 5.000000000E-02 -1.000000000E+00 2.614533984E-02
 1.000000000E-01 -1.000000000E+00 1.889497843E-02
 1.500000000E-01 -1.000000000E+00 1.094833112E-02
 2.000000000E-01 -1.000000000E+00 2.445084304E-03
 2.500000000E-01 -1.000000000E+00 -5.916804271E-03
 3.000000000E-01 -1.000000000E+00 -1.402060396E-02
 3.500000000E-01 -1.000000000E+00 -2.114963007E-02
 4.000000000E-01 -1.000000000E+00 -2.720089767E-02
 4.500000000E-01 -1.000000000E+00 -3.173019577E-02
 5.000000000E-01 -1.000000000E+00 -3.448524814E-02
 5.500000000E-01 -1.000000000E+00 -3.534443671E-02
 6.000000000E-01 -1.000000000E+00 -3.449673906E-02
 6.500000000E-01 -1.000000000E+00 -3.197827095E-02
 7.000000000E-01 -1.000000000E+00 -2.800953818E-02
 7.500000000E-01 -1.000000000E+00 -2.284717240E-02
 8.000000000E-01 -1.000000000E+00 -1.695575659E-02
 8.500000000E-01 -1.000000000E+00 -1.060587602E-02
 9.000000000E-01 -1.000000000E+00 -3.931480566E-03
 9.500000000E-01 -1.000000000E+00 2.452690161E-03
 1.000000000E+00 -1.000000000E+00 8.649320480E-03
 1.050000000E+00 -1.000000000E+00 1.419102235E-02
 1.100000000E+00 -1.000000000E+00 1.921180257E-02
 1.150000000E+00 -1.000000000E+00 2.353084830E-02
 1.200000000E+00 -1.000000000E+00 2.717903324E-02
 1.250000000E+00 -1.000000000E+00 3.011512235E-02
 1.300000000E+00 -1.000000000E+00 3.240238247E-02
 1.350000000E+00 -1.000000000E+00 3.411805052E-02
 1.400000000E+00 -1.000000000E+00 3.535412548E-02
 1.450000000E+00 -1.000000000E+00 3.610237231E-02
 1.500000000E+00 -1.000000000E+00 3.648794168E-02
 1.550000000E+00 -1.000000000E+00 3.654248727E-02
 1.600000000E+00 -1.000000000E+00 3.632072580E-02
 1.650000000E+00 -1.000000000E+00 3.591882619E-02
 1.700000000E+00 -1.000000000E+00 3.531623904E-02
 1.750000000E+00 -1.000000000E+00 3.460107735E-02
 1.800000000E+00 -1.000000000E+00 3.376792298E-02
 1.850000000E+00 -1.000000000E+00 3.286659257E-02
 1.900000000E+00 -1.000000000E+00 3.192003558E-02
 1.950000000E+00 -1.000000000E+00 3.094203695E-02
 2.000000000E+00 -1.000000000E+00 2.995202476E-02
 2.050000000E+00 -1.000000000E+00 2.897119586E-02
 2.100000000E+00 -1.000000000E+00 2.799392023E-02
 2.150000000E+00 -1.000000000E+00 2.706813402E-02
 2.200000000E+00 -1.000000000E+00 2.610022363E-02
 2.250000000E+00 -1.000000000E+00 2.522045478E-02
 2.300000000E+00 -1.000000000E+00 2.433208204E-02
 2.350000000E+00 -1.000000000E+00 2.350861770E-02
 2.400000000E+00 -1.000000000E+00 2.274583917E-02
 2.450000000E+00 -1.000000000E+00 2.201124539E-02
 2.500000000E+00 -1.000000000E+00 2.131485159E-02
 2.550000000E+00 -1.000000000E+00 2.067491588E-02
 2.600000000E+00 -1.000000000E+00 2.006677118E-02
 2.650000000E+00 -1.000000000E+00 1.950583742E-02
 2.700000000E+00 -1.000000000E+00 1.900927233E-02
 2.750000000E+00 -1.000000000E+00 1.854507325E-02
 2.800000000E+00 -1.000000000E+00 1.812977875E-02
 2.850000000E+00 -1.000000000E+00 1.775703214E-02
 2.900000000E+00 -1.000000000E+00 1.740965303E-02
 2.950000000E+00 -1.000000000E+00 1.711590467E-02
 3.000000000E+00 -1.000000000E+00 1.681663711E-02
 3.050000000E+00 -1.000000000E+00 1.656787019E-02
 3.100000000E+00 -1.000000000E+00 1.630285461E-02
 3.150000000E+00 -1.000000000E+00 1.603364661E-02
 3.200000000E+00 -1.000000000E+00 1.575484298E-02
 3.250000000E+00 -1.000000000E+00 1.539142813E-02
 3.300000000E+00 -1.000000000E+00 1.491073944E-02
 3.350000000E+00 -1.000000000E+00 1.422514560E-02
 3.400000000E+00 -1.000000000E+00 1.296835071E-02
 3.450000000E+00 -1.000000000E+00 1.037510391E-02
 3.500000000E+00 -9.500000000E-01 5.095973330E-03
 3.500000000E+00 -9.000000000E-01 6.594051585E-03
 3.500000000E+00 -8.500000000E-01 7.974355873E-03
 3.500000000E+00 -8.000000000E-01 9.390539999E-03
 3.500000000E+00 -7.500000000E-01 1.070765520E-02
 3.500000000E+00 -7.000000000E-01 1.200184689E-02
 3.500000000E+00 -6.500000000E-01 1.328023770E-02
 3.500000000E+00 -6.000000000E-01 1.458887498E-02
 3.500000000E+00 -5.500000000E-01 1.592358913E-02
 3.500000000E+00 -5.000000000E-01 1.732162806E-02
 3.500000000E+00 -4.500000000E-01 1.871492149E-02
 3.500000000E+00 -4.000000000E-01 2.016695389E-02
 3.500000000E+00 -3.500000000E-01 2.159520547E-02
 3.500000000E+00 -3.000000000E-01 2.297410566E-02
 3.500000000E+00 -2.500000000E-01 2.395815097E-02
 3.500000000E+00 -2.000000000E-01 2.443277566E-02
 3.500000000E+00 -1.500000000E-01 2.440907965E-02
 3.500000000E+00 -1.000000000E-01 2.410925344E-02
 3.500000000E+00 -5.000000000E-02 2.383636907E-02
 3.500000000E+00 -2.752242878E-12 2.393257832E-02
 3.500000000E+00 5.000000000E-02 2.422386015E-02
 3.500000000E+00 1.000000000E-01 2.430108768E-02
 3.500000000E+00 1.500000000E-01 2.384768890E-02
 3.500000000E+00 2.000000000E-01 2.284529728E-02
 3.500000000E+00 2.500000000E-01 2.141408357E-02
 3.500000000E+00 3.000000000E-01 1.999948197E-02
 3.500000000E+00 3.500000000E-01 1.858555689E-02
 3.500000000E+00 4.000000000E-01 1.712620203E-02
 3.500000000E+00 4.500000000E-01 1.563149870E-02
 3.500000000E+00 5.000000000E-01 1.408165712E-02
 3.500000000E+00 5.500000000E-01 1.275968075E-02
 3.500000000E+00 6.000000000E-01 1.194452073E-02
 3.500000000E+00 6.500000000E-01 1.167296906E-02
 3.500000000E+00 7.000000000E-01 1.152221728E-02
 3.500000000E+00 7.500000000E-01 9.108401422E-03
 3.500000000E+00 8.000000000E-01 3.118164151E-03
 3.500000000E+00 8.500000000E-01 -5.820661912E-03
 3.500000000E+00 9.000000000E-01 -1.717746418E-02
 3.500000000E+00 9.500000000E-01 -2.977224456E-02
 3.450000000E+00 1.000000000E+00 -1.310977412E-02
 3.400000000E+00 1.000000000E+00 -4.330404011E-03
 3.350000000E+00 1.000000000E+00 -1.445683236E-03
 3.300000000E+00 1.000000000E+00 -9.291991267E-04
 3.250000000E+00 1.000000000E+00 -1.000698398E-03
 3.200000000E+00 1.000000000E+00 -1.444721014E-03
 3.150000000E+00 1.000000000E+00 -1.820740189E-03
 3.100000000E+00 1.000000000E+00 -2.795986216E-03
 3.050000000E+00 1.000000000E+00 -3.354986611E-03
 3.000000000E+00 1.000000000E+00 -4.518892151E-03
 2.950000000E+00 1.000000000E+00 -5.496845612E-03
 2.900000000E+00 1.000000000E+00 -6.536502538E-03
 2.850000000E+00 1.000000000E+00 -7.436639236E-03
 2.800000000E+00 1.000000000E+00 -8.515900313E-03
 2.750000000E+00 1.000000000E+00 -9.543134153E-03
 2.700000000E+00 1.000000000E+00 -1.070485242E-02
 2.650000000E+00 1.000000000E+00 -1.177477539E-02
 2.600000000E+00 1.000000000E+00 -1.319693339E-02
 2.550000000E+00 1.000000000E+00 -1.415787680E-02
 2.500000000E+00 1.000000000E+00 -1.585756506E-02
 2.450000000E+00 1.000000000E+00 -1.670199757E-02
 2.400000000E+00 1.000000000E+00 -1.845584681E-02
 2.350000000E+00 1.000000000E+00 -1.988633748E-02
 2.300000000E+00 1.000000000E+00 -2.161799266E-02
 2.250000000E+00 1.000000000E+00 -2.311640422E-02
 2.200000000E+00 1.000000000E+00 -2.515151516E-02
 2.150000000E+00 1.000000000E+00 -2.674245161E-02
 2.100000000E+00 1.000000000E+00 -2.893582716E-02
 2.050000000E+00 1.000000000E+00 -3.120196573E-02
 2.000000000E+00 1.000000000E+00 -3.352398705E-02
 1.950000000E+00 1.000000000E+00 -3.592256832E-02
 1.900000000E+00 1.000000000E+00 -3.866340158E-02
 1.850000000E+00 1.000000000E+00 -4.158122588E-02
 1.800000000E+00 1.000000000E+00 -4.475370274E-02
 1.750000000E+00 1.000000000E+00 -4.814223103E-02
 1.700000000E+00 1.000000000E+00 -5.196701595E-02
 1.650000000E+00 1.000000000E+00 -5.608536282E-02
 1.600000000E+00 1.000000000E+00 -6.050286876E-02
 1.550000000E+00 1.000000000E+00 -6.509081882E-02
 1.500000000E+00 1.000000000E+00 -7.054866019E-02
 1.450000000E+00 1.000000000E+00 -7.614830373E-02
 1.400000000E+00 1.000000000E+00 -8.257596289E-02
 1.350000000E+00 1.000000000E+00 -8.915614630E-02
 1.300000000E+00 1.000000000E+00 -9.592267316E-02
 1.250000000E+00 1.000000000E+00 -1.041822351E-01
 1.200000000E+00 1.000000000E+00 -1.108737741E-01
 1.150000000E+00 1.000000000E+00 -1.181621909E-01
 1.100000000E+00 1.000000000E+00 -1.263985353E-01
 1.050000000E+00 1.000000000E+00 -1.329931593E-01
 1.000000000E+00 1.000000000E+00 -1.392282398E-01
 9.500000000E-01 1.000000000E+00 -1.449742889E-01
 9.000000000E-01 1.000000000E+00 -1.493389418E-01
 8.500000000E-01 1.000000000E+00 -1.516710878E-01
 8.000000000E-01 1.000000000E+00 -1.523324928E-01
 7.500000000E-01 1.000000000E+00 -1.503845893E-01
 7.000000000E-01 1.000000000E+00 -1.466522301E-01
 6.500000000E-01 1.000000000E+00 -1.400750701E-01
 6.000000000E-01 1.000000000E+00 -1.314921817E-01
 5.500000000E-01 1.000000000E+00 -1.210688552E-01
 5.000000000E-01 1.000000000E+00 -1.089246292E-01
 4.500000000E-01 1.000000000E+00 -9.518870374E-02
 4.000000000E-01 1.000000000E+00 -8.115059792E-02
 3.500000000E-01 1.000000000E+00 -6.611473667E-02
 3.000000000E-01 1.000000000E+00 -5.115920508E-02
 2.500000000E-01 1.000000000E+00 -3.672596694E-02
 2.000000000E-01 1.000000000E+00 -2.282696413E-02
 1.500000000E-01 1.000000000E+00 -9.807555860E-03
 1.000000000E-01 1.000000000E+00 1.905404332E-03
 5.000000000E-02 1.000000000E+00 1.223187833E-02
 1.733724275E-12 1.000000000E+00 2.099924741E-02
 -5.000000000E-02 1.000000000E+00 2.797116412E-02
 -1.000000000E-01 1.000000000E+00 3.311683105E-02
 -1.500000000E-01 1.000000000E+00 3.652286823E-02
 -2.000000000E-01 1.000000000E+00 3.809082924E-02
 -2.500000000E-01 1.000000000E+00 3.809351119E-02
 -3.000000000E-01 1.000000000E+00 3.639725149E-02
 -3.500000000E-01 1.000000000E+00 3.308435569E-02
 -4.000000000E-01 1.000000000E+00 2.748690214E-02
 -4.500000000E-01 1.000000000E+00 1.859326086E-02
 9.059095113E-01 -4.336896904E-03 3.680823964E-01
 9.853958691E-01 -4.892890332E-03 3.851444100E-01
 8.335124849E-01 -1.135107971E-02 2.963683856E-01
 7.550719430E-01 -2.016303018E-02 1.909180759E-01
 6.849363165E-01 -2.937152602E-02 9.076327894E-02
 6.154167011E-01 -4.132587341E-02 -3.399203700E-02
 5.441229389E-01 -4.955198549E-02 -1.993574004E-01
 4.792895452E-01 -5.610843055E-02 -3.956531050E-01
 4.232192147E-01 -6.084785887E-02 -5.731569945E-01
 3.692711352E-01 -6.320438217E-02 -6.669028751E-01
 3.113372849E-01 -6.296109877E-02 -6.175312137E-01