TITLE     = "Visualization of the solution"
VARIABLES = "x"
"y"
"Pressure_Coefficient"
ZONE T="Zone"
 STRANDID=0, SOLUTIONTIME=0
 Nodes=11880, Elements=23180, ZONETYPE=FEQuadrilateral
 DATAPACKING=POINT
 DT=(DOUBLE DOUBLE DOUBLE )
 9.999316931E-01 5.060533877E-04 3.670704322E-01
 9.853776097E-01 3.373435466E-03 2.410113424E-01
 9.712828398E-01 6.133120507E-03 1.751637077E-01
 9.539882541E-01 9.510931559E-03 1.274138606E-01
 9.392254949E-01 1.248940825E-02 6.611952687E-02
 9.251266122E-01 1.525316574E-02 2.659491803E-02
 9.130197167E-01 1.756919362E-02 5.598633289E-03
 9.010736346E-01 1.985428110E-02 -1.452237723E-02
 8.894003034E-01 2.215530351E-02 -6.630209887E-02
 8.773599267E-01 2.443938144E-02 -9.488698090E-02
 8.652769327E-01 2.669356205E-02 -1.260889449E-01
 8.531145453E-01 2.890865691E-02 -1.571480047E-01
 8.405634761E-01 3.107662126E-02 -1.533076566E-01
 8.297801018E-01 3.301029652E-02 -1.978925994E-01
 8.182981014E-01 3.497620672E-02 -2.146632180E-01
 8.060722947E-01 3.704631701E-02 -2.424572479E-01
 7.936439514E-01 3.908485174E-02 -2.613384696E-01
 7.816888690E-01 4.100912437E-02 -2.813726543E-01
 7.696259618E-01 4.290793091E-02 -2.981284436E-01
 7.585642934E-01 4.463567957E-02 -3.262290519E-01
 7.461028695E-01 4.654141888E-02 -3.575136116E-01
 7.329170108E-01 4.846957698E-02 -3.761540275E-01
 7.224800587E-01 4.996525496E-02 -3.965679373E-01
 7.115007639E-01 5.148529634E-02 -4.080242128E-01
 7.000833750E-01 5.304452032E-02 -4.317011531E-01
 6.874051690E-01 5.472520739E-02 -4.589357389E-01
 6.749281287E-01 5.632222071E-02 -4.940224747E-01
 6.645828485E-01 5.759192631E-02 -5.086353553E-01
 6.530281901E-01 5.892034620E-02 -5.064380522E-01
 6.419203281E-01 6.018476561E-02 -5.210013906E-01
 6.302915215E-01 6.142595038E-02 -4.722016060E-01
 6.190690994E-01 6.258467585E-02 -4.515776063E-01
 6.086988449E-01 6.359157711E-02 -8.132828820E-01
 5.968847871E-01 6.466659904E-02 -9.890258964E-01
 5.856582522E-01 6.564745307E-02 -9.344071757E-01
 5.724791288E-01 6.667277217E-02 -9.122665698E-01
 5.599376559E-01 6.754201651E-02 -9.075158058E-01
 5.476283431E-01 6.834154576E-02 -9.033873532E-01
 5.366539359E-01 6.897946447E-02 -8.810930012E-01
 5.248945355E-01 6.958119571E-02 -8.630532380E-01
 5.126168132E-01 7.012932748E-02 -8.552382662E-01
 5.018115044E-01 7.056432962E-02 -8.367885662E-01
 4.887631536E-01 7.098715752E-02 -8.195636803E-01
 4.757918417E-01 7.134445012E-02 -8.020249526E-01
 4.620921612E-01 7.159864157E-02 -7.761812783E-01
 4.487012625E-01 7.176984847E-02 -7.627956747E-01
 4.358591735E-01 7.184867561E-02 -7.469744277E-01
 4.228068590E-01 7.185650617E-02 -7.313793149E-01
 4.102337658E-01 7.177717239E-02 -7.152963756E-01
 3.973926008E-01 7.163971663E-02 -7.067354801E-01
 3.850927949E-01 7.142148912E-02 -6.902314773E-01
 3.731149733E-01 7.115609944E-02 -6.791756552E-01
 3.597239554E-01 7.077048719E-02 -6.642392060E-01
 3.470315933E-01 7.033381611E-02 -6.503161483E-01
 3.338252902E-01 6.979681551E-02 -6.345256265E-01
 3.229384720E-01 6.928583235E-02 -6.104641493E-01
 3.103255630E-01 6.863608211E-02 -6.020886544E-01
 2.973904014E-01 6.790392101E-02 -5.938832247E-01
 2.835594416E-01 6.701367348E-02 -5.807216421E-01
 2.715267837E-01 6.617262214E-02 -5.722002218E-01
 2.596253753E-01 6.524897367E-02 -5.488667723E-01
 2.470658422E-01 6.419877708E-02 -5.321308037E-01
 2.347221076E-01 6.309149414E-02 -5.219122719E-01
 2.226585299E-01 6.192388386E-02 -5.080144129E-01
 2.107593566E-01 6.067984179E-02 -4.904599678E-01
 1.988977343E-01 5.935993791E-02 -4.755887059E-01
 1.866178811E-01 5.788548663E-02 -4.546219312E-01
 1.748256683E-01 5.637925863E-02 -4.364953345E-01
 1.632947177E-01 5.480791628E-02 -4.168869054E-01
 1.515855491E-01 5.312188715E-02 -4.071719665E-01
 1.407784522E-01 5.144427717E-02 -3.804583260E-01
 1.291532516E-01 4.952975735E-02 -3.593259698E-01
 1.180628762E-01 4.758461192E-02 -3.417300562E-01
 1.073728800E-01 4.557465017E-02 -3.099646095E-01
 9.747549146E-02 4.359108210E-02 -2.906627999E-01
 8.660643548E-02 4.126137123E-02 -2.563246864E-01
 7.512246072E-02 3.860610723E-02 -2.282813557E-01
 6.523333490E-02 3.613258153E-02 -1.890707932E-01
 5.552856624E-02 3.348987922E-02 -1.491730714E-01
 4.675278068E-02 3.088599257E-02 -1.082111086E-01
 3.905414790E-02 2.839948237E-02 -6.440479971E-02
 3.223556653E-02 2.598878555E-02 -1.655837577E-02
 2.638930641E-02 2.372684143E-02 2.413359512E-02
 2.210680023E-02 2.192574553E-02 7.473375050E-02
 1.802426577E-02 2.005361021E-02 1.187900976E-01
 1.481324155E-02 1.845184527E-02 1.708787873E-01
 1.189176831E-02 1.685750298E-02 2.203409787E-01
 9.759918787E-03 1.558474731E-02 2.691328945E-01
 7.840622216E-03 1.434265636E-02 3.154882167E-01
 6.086183246E-03 1.309352368E-02 4.026681125E-01
 3.799747443E-03 1.123979222E-02 5.078749368E-01
 1.897972194E-03 9.384016506E-03 5.983325760E-01
 3.933637054E-04 7.534056902E-03 8.199380904E-01
 -1.063381205E-03 4.933873657E-03 1.026148662E+00
 -1.665544813E-03 2.939289901E-03 1.151957024E+00
 -1.839130069E-03 1.312501961E-03 1.192934422E+00
 -1.704410999E-03 -4.900950007E-04 1.187822929E+00
 -1.216214732E-03 -2.379593207E-03 1.105872013E+00
 -1.777868165E-04 -4.647827707E-03 9.692544589E-01
 1.394191640E-03 -6.995850243E-03 8.079548154E-01
 3.521804232E-03 -9.416310117E-03 6.444141992E-01
 5.425859708E-03 -1.120896544E-02 5.078321369E-01
 7.625392172E-03 -1.301004644E-02 4.149978726E-01
 9.385376237E-03 -1.430054009E-02 3.300814004E-01
 1.156997960E-02 -1.577422023E-02 2.683381933E-01
 1.402439550E-02 -1.728700846E-02 1.988592794E-01
 1.736790128E-02 -1.915439218E-02 1.331135311E-01
 2.045074292E-02 -2.073237486E-02 6.215372770E-02
 2.442356199E-02 -2.258891985E-02 1.126939542E-02
 2.981106006E-02 -2.486926503E-02 -4.623792185E-02
 3.545612842E-02 -2.702261321E-02 -1.028410604E-01
 4.228773341E-02 -2.939160354E-02 -1.482146605E-01
 4.973175004E-02 -3.171771765E-02 -1.893138509E-01
 5.850724876E-02 -3.421156481E-02 -2.219476901E-01
 6.710714847E-02 -3.644256666E-02 -2.572287522E-01
 7.718520612E-02 -3.883138299E-02 -2.853667931E-01
 8.703958988E-02 -4.098039493E-02 -3.019969461E-01
 9.729920328E-02 -4.305902869E-02 -3.326504093E-01
 1.084465310E-01 -4.514911771E-02 -3.510624726E-01
 1.195754036E-01 -4.708129168E-02 -3.688817513E-01
 1.312259287E-01 -4.897452891E-02 -3.909129943E-01
 1.416061968E-01 -5.054197088E-02 -4.071470453E-01
 1.528983861E-01 -5.215214565E-02 -4.260161121E-01
 1.648329049E-01 -5.373945832E-02 -4.476561807E-01
 1.763146967E-01 -5.515650287E-02 -4.645161322E-01
 1.880677640E-01 -5.651506782E-02 -4.841785872E-01
 1.987500936E-01 -5.766635761E-02 -5.069471350E-01
 2.100460231E-01 -5.879549682E-02 -5.256790722E-01
 2.221961617E-01 -5.991593376E-02 -5.469743551E-01
 2.343042195E-01 -6.093355268E-02 -5.735216048E-01
 2.462231964E-01 -6.182938814E-02 -5.902649254E-01
 2.583042383E-01 -6.265144050E-02 -6.147600061E-01
 2.692950368E-01 -6.330316514E-02 -6.394475844E-01
 2.816762328E-01 -6.394109130E-02 -6.544797316E-01
 2.938505411E-01 -6.447679549E-02 -6.929895573E-01
 3.065049648E-01 -6.489418447E-02 -7.257820547E-01
 3.180758059E-01 -6.516799331E-02 -7.395479332E-01
 3.308072984E-01 -6.537177414E-02 -7.558787858E-01
 3.414302468E-01 -6.542900950E-02 -7.806760022E-01
 3.529472649E-01 -6.539567560E-02 -7.997356125E-01
 3.639569283E-01 -6.524785608E-02 -8.145413112E-01
 3.749972284E-01 -6.501811743E-02 -8.404907871E-01
 3.867523670E-01 -6.464315206E-02 -8.323229562E-01
 3.999651670E-01 -6.407912821E-02 -6.741230918E-01
 4.123450816E-01 -6.343198568E-02 -5.931724952E-01
 4.252113700E-01 -6.261955947E-02 -6.020847138E-01
 4.378606677E-01 -6.166268140E-02 -5.643856743E-01
 4.503540695E-01 -6.061798707E-02 -5.162150012E-01
 4.624147713E-01 -5.949076265E-02 -4.746009414E-01
 4.748747647E-01 -5.824033171E-02 -4.398390718E-01
 4.868804216E-01 -5.692598224E-02 -3.985687764E-01
 4.995245039E-01 -5.544463918E-02 -3.477007235E-01
 5.134413242E-01 -5.375128984E-02 -3.113940100E-01
 5.268943906E-01 -5.202792212E-02 -2.747197760E-01
 5.396983624E-01 -5.031278357E-02 -2.371247006E-01
 5.527196527E-01 -4.850157723E-02 -1.961991738E-01
 5.662581921E-01 -4.657727107E-02 -1.590488553E-01
 5.796074271E-01 -4.466899484E-02 -1.360097613E-01
 5.923143625E-01 -4.278609157E-02 -9.974629339E-02
 6.052324176E-01 -4.085787386E-02 -7.105708010E-02
 6.191658378E-01 -3.875088319E-02 -3.655836452E-02
 6.333146691E-01 -3.663146496E-02 -1.409482333E-02
 6.476542950E-01 -3.446604311E-02 1.168817027E-02
 6.606149673E-01 -3.249035403E-02 3.868589749E-02
 6.740994453E-01 -3.043938242E-02 6.472261263E-02
 6.866360903E-01 -2.856430784E-02 8.048097055E-02
 6.989121437E-01 -2.671808191E-02 1.017096993E-01
 7.133284211E-01 -2.454893291E-02 1.279223443E-01
 7.263197303E-01 -2.261057869E-02 1.538698847E-01
 7.383246422E-01 -2.087523788E-02 1.678671570E-01
 7.520915270E-01 -1.890843362E-02 1.860299869E-01
 7.647106647E-01 -1.713355072E-02 2.023476946E-01
 7.779216170E-01 -1.525160577E-02 2.340886294E-01
 7.902587056E-01 -1.359923370E-02 2.450200963E-01
 8.031540513E-01 -1.191227883E-02 2.606729524E-01
 8.140247464E-01 -1.050801482E-02 2.790908057E-01
 8.250714540E-01 -9.101397358E-03 3.038283135E-01
 8.378841281E-01 -7.601399440E-03 3.137291347E-01
 8.502219319E-01 -6.205688231E-03 3.332204647E-01
 8.624956012E-01 -4.914192483E-03 3.486304775E-01
 8.735095263E-01 -3.832578659E-03 3.641939793E-01
 8.846892118E-01 -2.835449297E-03 3.765395893E-01
 8.973091841E-01 -1.831563190E-03 3.885255529E-01
 9.071349502E-01 -1.141026965E-03 3.996672507E-01
 9.179939032E-01 -5.222999607E-04 4.036186134E-01
 9.280666709E-01 -5.222820255E-05 4.063933854E-01
 9.373885393E-01 3.029135696E-04 4.117032644E-01
 9.492207766E-01 6.273812614E-04 4.145001657E-01
 9.624720812E-01 8.257374284E-04 4.170036144E-01
 9.762659669E-01 8.567608311E-04 4.239966793E-01
 9.889432788E-01 7.265870227E-04 4.448105719E-01
 -5.000000000E-01 -1.000000000E+00 1.693444900E-02
 3.500000000E+00 -1.000000000E+00 7.332680067E-03
 3.500000000E+00 1.000000000E+00 -3.160609328E-02
 -5.000000000E-01 1.000000000E+00 1.617246058E-02
 9.926546514E-01 1.939744427E-03 3.200688281E-01
 9.783302248E-01 4.753277986E-03 2.058142135E-01
 9.626355469E-01 7.822026033E-03 1.521266907E-01
 9.466068745E-01 1.100016991E-02 9.305726740E-02
 9.321760535E-01 1.387128700E-02 4.393671787E-02
 9.190731645E-01 1.641117968E-02 1.619783600E-02
 9.070466757E-01 1.871173736E-02 -4.293937758E-05
 8.952369690E-01 2.100479230E-02 -4.412538229E-02
 8.833801150E-01 2.329734247E-02 -8.048092329E-02
 8.713184297E-01 2.556647174E-02 -1.097159912E-01
 8.591957390E-01 2.780110948E-02 -1.476191694E-01
 8.468390107E-01 2.999263909E-02 -1.470844401E-01
 8.351717889E-01 3.204345889E-02 -1.805664168E-01
 8.240391016E-01 3.399325162E-02 -2.049482385E-01
 8.121851981E-01 3.601126187E-02 -2.301003009E-01
 7.998581231E-01 3.806558438E-02 -2.511896761E-01
 7.876664102E-01 4.004698806E-02 -2.720650381E-01
 7.756574154E-01 4.195852764E-02 -2.883179316E-01
 7.640951276E-01 4.377180524E-02 -3.112839935E-01
 7.523335814E-01 4.558854923E-02 -3.452767557E-01
 7.395099401E-01 4.750549793E-02 -3.646082538E-01
 7.276985347E-01 4.921741597E-02 -3.887651254E-01
 7.169904113E-01 5.072527565E-02 -4.001946461E-01
 7.057920694E-01 5.226490833E-02 -4.201240924E-01
 6.937442720E-01 5.388486385E-02 -4.451276035E-01
 6.811666489E-01 5.552371405E-02 -4.749753705E-01
 6.697554886E-01 5.695707351E-02 -5.087362911E-01
 6.588055193E-01 5.825613625E-02 -5.007574965E-01
 6.474742591E-01 5.955255590E-02 -5.209535514E-01
 6.361059248E-01 6.080535799E-02 -5.027950108E-01
 6.246803105E-01 6.200531311E-02 -4.399930243E-01
 6.138839722E-01 6.308812648E-02 -5.827997103E-01
 6.027918160E-01 6.412908807E-02 -9.587949889E-01
 5.912715197E-01 6.515702605E-02 -9.657986214E-01
 5.790686905E-01 6.616011262E-02 -9.189908842E-01
 5.662083924E-01 6.710739434E-02 -9.064810918E-01
 5.537829995E-01 6.794178113E-02 -9.087857399E-01
 5.421411395E-01 6.866050512E-02 -8.925868731E-01
 5.307742357E-01 6.928033009E-02 -8.715887665E-01
 5.187556744E-01 6.985526159E-02 -8.563959942E-01
 5.072141588E-01 7.034682855E-02 -8.511632097E-01
 4.952873290E-01 7.077574357E-02 -8.239213015E-01
 4.822774976E-01 7.116580382E-02 -8.163155838E-01
 4.689420015E-01 7.147154585E-02 -7.854874094E-01
 4.553967118E-01 7.168424502E-02 -7.701317007E-01
 4.422802180E-01 7.180926204E-02 -7.535399550E-01
 4.293330163E-01 7.185259089E-02 -7.410576233E-01
 4.165203124E-01 7.181683928E-02 -7.198745020E-01
 4.038131833E-01 7.170844451E-02 -7.140739190E-01
 3.912426978E-01 7.153060287E-02 -6.957602357E-01
 3.791038841E-01 7.128879428E-02 -6.871783613E-01
 3.664194643E-01 7.096329331E-02 -6.705292738E-01
 3.533777744E-01 7.055215165E-02 -6.580238741E-01
 3.404284418E-01 7.006531581E-02 -6.425675654E-01
 3.283818811E-01 6.954132393E-02 -6.217630322E-01
 3.166320175E-01 6.896095723E-02 -6.043892143E-01
 3.038579822E-01 6.827000156E-02 -6.015912751E-01
 2.904749215E-01 6.745879725E-02 -5.841954822E-01
 2.775431126E-01 6.659314781E-02 -5.790182530E-01
 2.655760795E-01 6.571079791E-02 -5.606570597E-01
 2.533456087E-01 6.472387537E-02 -5.392472459E-01
 2.408939749E-01 6.364513561E-02 -5.267352609E-01
 2.286903188E-01 6.250768900E-02 -5.164729975E-01
 2.167089432E-01 6.130186282E-02 -4.978932007E-01
 2.048285455E-01 6.001988985E-02 -4.849983792E-01
 1.927578077E-01 5.862271227E-02 -4.642668062E-01
 1.807217747E-01 5.713237263E-02 -4.462086417E-01
 1.690601930E-01 5.559358746E-02 -4.250693479E-01
 1.574401334E-01 5.396490172E-02 -4.137575623E-01
 1.461820006E-01 5.228308216E-02 -3.945232520E-01
 1.349658519E-01 5.048701726E-02 -3.692781224E-01
 1.236080639E-01 4.855718464E-02 -3.505373769E-01
 1.127178781E-01 4.657963105E-02 -3.306994236E-01
 9.204096347E-02 4.242622666E-02 -2.766670852E-01
 8.086444810E-02 3.993373923E-02 -2.391496906E-01
 7.017789781E-02 3.736934438E-02 -2.181841891E-01
 7.214617729E-02 -3.763697483E-02 -2.767215935E-01
 9.216939658E-02 -4.201971181E-02 -3.217620553E-01
 1.028728671E-01 -4.410407320E-02 -3.403328070E-01
 1.140109673E-01 -4.611520469E-02 -3.617699798E-01
 1.254006661E-01 -4.802791029E-02 -3.785905791E-01
 1.364160627E-01 -4.975824989E-02 -4.024390671E-01
 1.472522914E-01 -5.134705827E-02 -4.140984438E-01
 1.588656455E-01 -5.294580199E-02 -4.370991831E-01
 1.705738008E-01 -5.444798060E-02 -4.575912479E-01
 1.821912304E-01 -5.583578534E-02 -4.728325729E-01
 1.934089288E-01 -5.709071271E-02 -4.966343917E-01
 2.043980584E-01 -5.823092721E-02 -5.160212440E-01
 2.161210924E-01 -5.935571529E-02 -5.353321343E-01
 2.282501906E-01 -6.042474322E-02 -5.602379312E-01
 2.402637079E-01 -6.138147041E-02 -5.835940577E-01
 2.522637174E-01 -6.224041432E-02 -5.997686488E-01
 2.637996376E-01 -6.297730282E-02 -6.300772605E-01
 2.754856348E-01 -6.362212822E-02 -6.454046669E-01
 2.877633870E-01 -6.420894340E-02 -6.698948710E-01
 3.001777530E-01 -6.468548998E-02 -7.124199253E-01
 3.122903854E-01 -6.503108889E-02 -7.360032622E-01
 3.244415522E-01 -6.526988372E-02 -7.429893941E-01
 3.361187726E-01 -6.540039182E-02 -7.724092301E-01
 3.471887559E-01 -6.541234255E-02 -7.874978781E-01
 3.584520966E-01 -6.532176584E-02 -8.106387349E-01
 3.694770783E-01 -6.513298675E-02 -8.225561086E-01
 3.808747977E-01 -6.483063474E-02 -8.501965512E-01
 3.933587670E-01 -6.436114013E-02 -7.664822753E-01
 4.061551243E-01 -6.375555694E-02 -6.105357749E-01
 4.187782258E-01 -6.302577257E-02 -5.969800930E-01
 4.315360188E-01 -6.214112043E-02 -5.923464216E-01
 4.441073686E-01 -6.114033423E-02 -5.361694905E-01
 4.563844204E-01 -6.005437486E-02 -4.975357701E-01
 4.686447680E-01 -5.886554718E-02 -4.549273241E-01
 4.808775932E-01 -5.758315697E-02 -4.220651308E-01
 4.932024628E-01 -5.618531071E-02 -3.733461771E-01
 5.064829141E-01 -5.459796451E-02 -3.272048795E-01
 5.201678574E-01 -5.288960598E-02 -2.940267696E-01
 5.332963765E-01 -5.117035285E-02 -2.563343576E-01
 5.462090075E-01 -4.940718040E-02 -2.175284733E-01
 5.594889224E-01 -4.753942415E-02 -1.770288630E-01
 5.729328096E-01 -4.562313296E-02 -1.456447712E-01
 5.859608948E-01 -4.372754321E-02 -1.203015157E-01
 5.987733901E-01 -4.182198271E-02 -8.444763506E-02
 6.121991277E-01 -3.980437852E-02 -5.459973500E-02
 6.262402534E-01 -3.769117408E-02 -2.378154358E-02
 6.404844820E-01 -3.554875404E-02 -1.516129065E-03
 6.541346312E-01 -3.347819857E-02 2.463625162E-02
 6.673572063E-01 -3.146486823E-02 5.172406145E-02
 6.803677678E-01 -2.950184513E-02 7.419429415E-02
 6.927741170E-01 -2.764119487E-02 9.037301875E-02
 7.061202824E-01 -2.563350741E-02 1.140530566E-01
 7.198240757E-01 -2.357975580E-02 1.408225398E-01
 7.323221862E-01 -2.174290828E-02 1.622407671E-01
 7.452080846E-01 -1.989183575E-02 1.764774939E-01
 7.584010959E-01 -1.802099217E-02 1.945722347E-01
 7.713161409E-01 -1.619257824E-02 2.150131771E-01
 7.840901613E-01 -1.442541974E-02 2.426182511E-01
 7.967063785E-01 -1.275575627E-02 2.526970210E-01
 8.085893989E-01 -1.121014683E-02 2.694519232E-01
 8.195481002E-01 -9.804706089E-03 2.893331066E-01
 8.314777911E-01 -8.351398399E-03 3.097422362E-01
 8.440530300E-01 -6.903543836E-03 3.226146249E-01
 8.563587666E-01 -5.559940357E-03 3.410863378E-01
 8.680025637E-01 -4.373385571E-03 3.568886918E-01
 8.790993690E-01 -3.334013978E-03 3.699691893E-01
 8.909991980E-01 -2.333506243E-03 3.820836398E-01
 9.125644267E-01 -8.316634630E-04 4.048413409E-01
 9.433046579E-01 4.651474155E-04 4.130586813E-01
 9.558464289E-01 7.265593449E-04 4.147277931E-01
 9.693690240E-01 8.412491297E-04 4.192231673E-01
 9.826046228E-01 7.916739269E-04 4.321769721E-01
 9.944374859E-01 6.163202052E-04 4.921849002E-01
 -5.000000000E-01 9.500000000E-01 2.655771909E-02
 -5.000000000E-01 9.000000000E-01 3.997412746E-02
 -5.000000000E-01 8.500000000E-01 5.034194186E-02
 -5.000000000E-01 8.000000000E-01 5.945216600E-02
 -5.000000000E-01 7.500000000E-01 6.817257122E-02
 -5.000000000E-01 7.000000000E-01 7.676558047E-02
 -5.000000000E-01 6.500000000E-01 8.559376792E-02
 -5.000000000E-01 6.000000000E-01 9.456541022E-02
 -5.000000000E-01 5.500000000E-01 1.037478526E-01
 -5.000000000E-01 5.000000000E-01 1.131167001E-01
 -5.000000000E-01 4.500000000E-01 1.228272862E-01
 -5.000000000E-01 4.000000000E-01 1.323296631E-01
 -5.000000000E-01 3.500000000E-01 1.419112922E-01
 -5.000000000E-01 3.000000000E-01 1.508968167E-01
 -5.000000000E-01 2.500000000E-01 1.595053433E-01
 -5.000000000E-01 2.000000000E-01 1.670628776E-01
 -5.000000000E-01 1.500000000E-01 1.732974395E-01
 -5.000000000E-01 1.000000000E-01 1.780752201E-01
 -5.000000000E-01 5.000000000E-02 1.811164509E-01
 -5.000000000E-01 2.752242878E-12 1.821759460E-01
 -5.000000000E-01 -5.000000000E-02 1.813356718E-01
 -5.000000000E-01 -1.000000000E-01 1.785510332E-01
 -5.000000000E-01 -1.500000000E-01 1.740754220E-01
 -5.000000000E-01 -2.000000000E-01 1.677241565E-01
 -5.000000000E-01 -2.500000000E-01 1.606273728E-01
 -5.000000000E-01 -3.000000000E-01 1.524463061E-01
 -5.000000000E-01 -3.500000000E-01 1.435223357E-01
 -5.000000000E-01 -4.000000000E-01 1.342483652E-01
 -5.000000000E-01 -4.500000000E-01 1.248304537E-01
 -5.000000000E-01 -5.000000000E-01 1.154311817E-01
 -5.000000000E-01 -5.500000000E-01 1.061046624E-01
 -5.000000000E-01 -6.000000000E-01 9.699404318E-02
 -5.000000000E-01 -6.500000000E-01 8.809057541E-02
 -5.000000000E-01 -7.000000000E-01 7.942353290E-02
 -5.000000000E-01 -7.500000000E-01 7.062833982E-02
 -5.000000000E-01 -8.000000000E-01 6.182229274E-02
 -5.000000000E-01 -8.500000000E-01 5.250771797E-02
 -5.000000000E-01 -9.000000000E-01 4.159534038E-02
 -5.000000000E-01 -9.500000000E-01 2.771369283E-02
 -4.500000000E-01 -1.000000000E+00 2.293432561E-02
 -4.000000000E-01 -1.000000000E+00 3.392390682E-02
 -3.500000000E-01 -1.000000000E+00 4.084983740E-02
 -3.000000000E-01 -1.000000000E+00 4.525504388E-02
 -2.500000000E-01 -1.000000000E+00 4.795084321E-02
 -2.000000000E-01 -1.000000000E+00 4.885996308E-02
 -1.500000000E-01 -1.000000000E+00 4.806447488E-02
 -1.000000000E-01 -1.000000000E+00 4.551211740E-02
 -5.000000000E-02 -1.000000000E+00 4.138219976E-02
 -9.424683256E-13 -1.000000000E+00 3.566585376E-02
 5.000000000E-02 -1.000000000E+00 2.840867770E-02
 1.000000000E-01 -1.000000000E+00 1.986375320E-02
 1.500000000E-01 -1.000000000E+00 1.041707470E-02
 2.000000000E-01 -1.000000000E+00 3.631875122E-04
 2.500000000E-01 -1.000000000E+00 -9.672461050E-03
 3.000000000E-01 -1.000000000E+00 -1.915714132E-02
 3.500000000E-01 -1.000000000E+00 -2.774849817E-02
 4.000000000E-01 -1.000000000E+00 -3.472373986E-02
 4.500000000E-01 -1.000000000E+00 -4.035128640E-02
 5.000000000E-01 -1.000000000E+00 -4.400605786E-02
 5.500000000E-01 -1.000000000E+00 -4.532078772E-02
 6.000000000E-01 -1.000000000E+00 -4.460062166E-02
 6.500000000E-01 -1.000000000E+00 -4.191996701E-02
 7.000000000E-01 -1.000000000E+00 -3.754128064E-02
 7.500000000E-01 -1.000000000E+00 -3.200884213E-02
 8.000000000E-01 -1.000000000E+00 -2.533793574E-02
 8.500000000E-01 -1.000000000E+00 -1.820434838E-02
 9.000000000E-01 -1.000000000E+00 -1.060681131E-02
 9.500000000E-01 -1.000000000E+00 -3.160181132E-03
 1.000000000E+00 -1.000000000E+00 3.795796036E-03
 1.050000000E+00 -1.000000000E+00 1.045775378E-02
 1.100000000E+00 -1.000000000E+00 1.639872655E-02
 1.150000000E+00 -1.000000000E+00 2.138530343E-02
 1.200000000E+00 -1.000000000E+00 2.555442229E-02
 1.250000000E+00 -1.000000000E+00 2.908786690E-02
 1.300000000E+00 -1.000000000E+00 3.188652449E-02
 1.350000000E+00 -1.000000000E+00 3.409967657E-02
 1.400000000E+00 -1.000000000E+00 3.566318709E-02
 1.450000000E+00 -1.000000000E+00 3.677563199E-02
 1.500000000E+00 -1.000000000E+00 3.737960947E-02
 1.550000000E+00 -1.000000000E+00 3.776985031E-02
 1.600000000E+00 -1.000000000E+00 3.759071399E-02
 1.650000000E+00 -1.000000000E+00 3.735169137E-02
 1.700000000E+00 -1.000000000E+00 3.689603482E-02
 1.750000000E+00 -1.000000000E+00 3.614594458E-02
 1.800000000E+00 -1.000000000E+00 3.555084881E-02
 1.850000000E+00 -1.000000000E+00 3.457210943E-02
 1.900000000E+00 -1.000000000E+00 3.366892510E-02
 1.950000000E+00 -1.000000000E+00 3.273346126E-02
 2.000000000E+00 -1.000000000E+00 3.163595455E-02
 2.050000000E+00 -1.000000000E+00 3.071811822E-02
 2.100000000E+00 -1.000000000E+00 2.974865872E-02
 2.150000000E+00 -1.000000000E+00 2.870593912E-02
 2.200000000E+00 -1.000000000E+00 2.782639153E-02
 2.250000000E+00 -1.000000000E+00 2.686640334E-02
 2.300000000E+00 -1.000000000E+00 2.598342015E-02
 2.350000000E+00 -1.000000000E+00 2.514865075E-02
 2.400000000E+00 -1.000000000E+00 2.435369362E-02
 2.450000000E+00 -1.000000000E+00 2.361492026E-02
 2.500000000E+00 -1.000000000E+00 2.291154532E-02
 2.550000000E+00 -1.000000000E+00 2.224533500E-02
 2.600000000E+00 -1.000000000E+00 2.167949267E-02
 2.650000000E+00 -1.000000000E+00 2.105441055E-02
 2.700000000E+00 -1.000000000E+00 2.057250024E-02
 2.750000000E+00 -1.000000000E+00 2.009562941E-02
 2.800000000E+00 -1.000000000E+00 1.969988612E-02
 2.850000000E+00 -1.000000000E+00 1.928938323E-02
 2.900000000E+00 -1.000000000E+00 1.897394080E-02
 2.950000000E+00 -1.000000000E+00 1.868522565E-02
 3.000000000E+00 -1.000000000E+00 1.842358787E-02
 3.050000000E+00 -1.000000000E+00 1.822743195E-02
 3.100000000E+00 -1.000000000E+00 1.796063087E-02
 3.150000000E+00 -1.000000000E+00 1.773281464E-02
 3.200000000E+00 -1.000000000E+00 1.745682204E-02
 3.250000000E+00 -1.000000000E+00 1.706295236E-02
 3.300000000E+00 -1.000000000E+00 1.660549397E-02
 3.350000000E+00 -1.000000000E+00 1.583981908E-02
 3.400000000E+00 -1.000000000E+00 1.444899156E-02
 3.450000000E+00 -1.000000000E+00 1.146537071E-02
 3.500000000E+00 -9.500000000E-01 5.413677078E-03
 3.500000000E+00 -9.000000000E-01 7.323675003E-03
 3.500000000E+00 -8.500000000E-01 9.068834618E-03
 3.500000000E+00 -8.000000000E-01 1.077705401E-02
 3.500000000E+00 -7.500000000E-01 1.233259565E-02
 3.500000000E+00 -7.000000000E-01 1.377772779E-02
 3.500000000E+00 -6.500000000E-01 1.520064851E-02
 3.500000000E+00 -6.000000000E-01 1.671185741E-02
 3.500000000E+00 -5.500000000E-01 1.830845973E-02
 3.500000000E+00 -5.000000000E-01 1.993661819E-02
 3.500000000E+00 -4.500000000E-01 2.159765754E-02
 3.500000000E+00 -4.000000000E-01 2.326925445E-02
 3.500000000E+00 -3.500000000E-01 2.497231587E-02
 3.500000000E+00 -3.000000000E-01 2.647012295E-02
 3.500000000E+00 -2.500000000E-01 2.762367746E-02
 3.500000000E+00 -2.000000000E-01 2.828309076E-02
 3.500000000E+00 -1.500000000E-01 2.831757519E-02
 3.500000000E+00 -1.000000000E-01 2.789242053E-02
 3.500000000E+00 -5.000000000E-02 2.748298037E-02
 3.500000000E+00 -2.752242878E-12 2.748110167E-02
 3.500000000E+00 5.000000000E-02 2.773249232E-02
 3.500000000E+00 1.000000000E-01 2.787987965E-02
 3.500000000E+00 1.500000000E-01 2.749869364E-02
 3.500000000E+00 2.000000000E-01 2.642801844E-02
 3.500000000E+00 2.500000000E-01 2.487226729E-02
 3.500000000E+00 3.000000000E-01 2.320009568E-02
 3.500000000E+00 3.500000000E-01 2.153752553E-02
 3.500000000E+00 4.000000000E-01 1.991485227E-02
 3.500000000E+00 4.500000000E-01 1.811202800E-02
 3.500000000E+00 5.000000000E-01 1.634995929E-02
 3.500000000E+00 5.500000000E-01 1.484283260E-02
 3.500000000E+00 6.000000000E-01 1.401546039E-02
 3.500000000E+00 6.500000000E-01 1.370196218E-02
 3.500000000E+00 7.000000000E-01 1.301879269E-02
 3.500000000E+00 7.500000000E-01 1.092061238E-02
 3.500000000E+00 8.000000000E-01 3.489342191E-03
 3.500000000E+00 8.500000000E-01 -8.005530324E-03
 3.500000000E+00 9.000000000E-01 -2.079858321E-02
 3.500000000E+00 9.500000000E-01 -3.546740134E-02
 3.450000000E+00 1.000000000E+00 -1.601667895E-02
 3.400000000E+00 1.000000000E+00 -5.618640834E-03
 3.350000000E+00 1.000000000E+00 -1.870740499E-03
 3.300000000E+00 1.000000000E+00 -8.438088032E-04
 3.250000000E+00 1.000000000E+00 -1.192285442E-03
 3.200000000E+00 1.000000000E+00 -9.869973704E-04
 3.150000000E+00 1.000000000E+00 -1.867038643E-03
 3.100000000E+00 1.000000000E+00 -2.527449525E-03
 3.050000000E+00 1.000000000E+00 -3.422151943E-03
 3.000000000E+00 1.000000000E+00 -4.369464369E-03
 2.950000000E+00 1.000000000E+00 -5.389111204E-03
 2.900000000E+00 1.000000000E+00 -6.449016177E-03
 2.850000000E+00 1.000000000E+00 -7.528541870E-03
 2.800000000E+00 1.000000000E+00 -8.671377105E-03
 2.750000000E+00 1.000000000E+00 -9.870282632E-03
 2.700000000E+00 1.000000000E+00 -1.108819358E-02
 2.650000000E+00 1.000000000E+00 -1.230791085E-02
 2.600000000E+00 1.000000000E+00 -1.356555198E-02
 2.550000000E+00 1.000000000E+00 -1.493835789E-02
 2.500000000E+00 1.000000000E+00 -1.627884993E-02
 2.450000000E+00 1.000000000E+00 -1.791460594E-02
 2.400000000E+00 1.000000000E+00 -1.952242445E-02
 2.350000000E+00 1.000000000E+00 -2.107737633E-02
 2.300000000E+00 1.000000000E+00 -2.281599767E-02
 2.250000000E+00 1.000000000E+00 -2.462716686E-02
 2.200000000E+00 1.000000000E+00 -2.636776795E-02
 2.150000000E+00 1.000000000E+00 -2.892655014E-02
 2.100000000E+00 1.000000000E+00 -3.063478730E-02
 2.050000000E+00 1.000000000E+00 -3.323668867E-02
 2.000000000E+00 1.000000000E+00 -3.554029827E-02
 1.950000000E+00 1.000000000E+00 -3.846252369E-02
 1.900000000E+00 1.000000000E+00 -4.152344003E-02
 1.850000000E+00 1.000000000E+00 -4.461612977E-02
 1.800000000E+00 1.000000000E+00 -4.794185302E-02
 1.750000000E+00 1.000000000E+00 -5.211088542E-02
 1.700000000E+00 1.000000000E+00 -5.579782631E-02
 1.650000000E+00 1.000000000E+00 -6.031438313E-02
 1.600000000E+00 1.000000000E+00 -6.576653913E-02
 1.550000000E+00 1.000000000E+00 -7.036109742E-02
 1.500000000E+00 1.000000000E+00 -7.646043073E-02
 1.450000000E+00 1.000000000E+00 -8.300265132E-02
 1.400000000E+00 1.000000000E+00 -8.963082975E-02
 1.350000000E+00 1.000000000E+00 -9.723916407E-02
 1.300000000E+00 1.000000000E+00 -1.051097532E-01
 1.250000000E+00 1.000000000E+00 -1.135523741E-01
 1.200000000E+00 1.000000000E+00 -1.221706399E-01
 1.150000000E+00 1.000000000E+00 -1.310476764E-01
 1.100000000E+00 1.000000000E+00 -1.399036295E-01
 1.050000000E+00 1.000000000E+00 -1.483723194E-01
 1.000000000E+00 1.000000000E+00 -1.558145393E-01
 9.500000000E-01 1.000000000E+00 -1.629856266E-01
 9.000000000E-01 1.000000000E+00 -1.672662982E-01
 8.500000000E-01 1.000000000E+00 -1.706026178E-01
 8.000000000E-01 1.000000000E+00 -1.713392592E-01
 7.500000000E-01 1.000000000E+00 -1.698984425E-01
 7.000000000E-01 1.000000000E+00 -1.651255956E-01
 6.500000000E-01 1.000000000E+00 -1.579270037E-01
 6.000000000E-01 1.000000000E+00 -1.472281995E-01
 5.500000000E-01 1.000000000E+00 -1.353847455E-01
 5.000000000E-01 1.000000000E+00 -1.199550472E-01
 4.500000000E-01 1.000000000E+00 -1.047902803E-01
 4.000000000E-01 1.000000000E+00 -8.763052139E-02
 3.500000000E-01 1.000000000E+00 -7.085760792E-02
 3.000000000E-01 1.000000000E+00 -5.379119439E-02
 2.500000000E-01 1.000000000E+00 -3.732481924E-02
 2.000000000E-01 1.000000000E+00 -2.192269680E-02
 1.500000000E-01 1.000000000E+00 -7.290874126E-03
 1.000000000E-01 1.000000000E+00 5.871108332E-03
 5.000000000E-02 1.000000000E+00 1.728928299E-02
 1.733724275E-12 1.000000000E+00 2.689939560E-02
 -5.000000000E-02 1.000000000E+00 3.437078100E-02
 -1.000000000E-01 1.000000000E+00 3.991604430E-02
 -1.500000000E-01 1.000000000E+00 4.349530913E-02
 -2.000000000E-01 1.000000000E+00 4.515017872E-02
 -2.500000000E-01 1.000000000E+00 4.492305747E-02
 -3.000000000E-01 1.000000000E+00 4.284531933E-02
 -3.500000000E-01 1.000000000E+00 3.897485771E-02
 -4.000000000E-01 1.000000000E+00 3.251434875E-02
 -4.500000000E-01 1.000000000E+00 2.187046898E-02
 1.974657359E+00 -9.557363286E-01 3.169160883E-02
 1.975508646E+00 9.566902598E-01 -3.545239516E-02
 9.155470816E-01 -5.379046290E-03 3.970076414E-01
 8.350181998E-01 -1.340476314E-02 3.069015301E-01
 7.622494658E-01 -2.286647317E-02 1.974118865E-01
 6.904307639E-01 -3.339741088E-02 8.559095418E-02
 6.236138892E-01 -4.430164668E-02 -3.069406483E-02
 9.858401573E-01 -3.841864202E-03 4.336404519E-01
 5.567175972E-01 -5.378854778E-02 -1.843145123E-01
 4.908078788E-01 -6.207387118E-02 -3.777101599E-01
 4.276151347E-01 -6.723436707E-02 -5.884674014E-01
 3.727737733E-01 -6.966669772E-02 -8.202636394E-01
 3.213661469E-01 -7.053757161E-02 -7.308949925E-01