TITLE     = "Visualization of the solution"
VARIABLES = "x"
"y"
"Pressure_Coefficient"
ZONE T="Zone"
 STRANDID=0, SOLUTIONTIME=0
 Nodes=11992, Elements=23401, ZONETYPE=FEQuadrilateral
 DATAPACKING=POINT
 DT=(DOUBLE DOUBLE DOUBLE )
 1.000078797E+00 5.114787491E-04 3.821467041E-01
 9.887377620E-01 2.892738441E-03 2.928462843E-01
 9.756017327E-01 5.533767398E-03 2.218631776E-01
 9.584010839E-01 9.108629078E-03 1.450001330E-01
 9.427888393E-01 1.231265534E-02 9.467740682E-02
 9.277358651E-01 1.540592685E-02 4.754372489E-02
 9.157223105E-01 1.784992591E-02 2.002531156E-02
 9.048587084E-01 2.012608573E-02 -3.598695255E-02
 8.930942416E-01 2.248731628E-02 -6.999766672E-02
 8.816977143E-01 2.472187206E-02 -1.025055429E-01
 8.698310852E-01 2.696206793E-02 -1.187049260E-01
 8.574689031E-01 2.927412093E-02 -1.418649936E-01
 8.458170295E-01 3.147609159E-02 -1.980857703E-01
 8.350476027E-01 3.336749971E-02 -2.018590126E-01
 8.234326839E-01 3.539716452E-02 -2.253848761E-01
 8.109694719E-01 3.750329092E-02 -2.375306162E-01
 7.986270785E-01 3.958957270E-02 -2.714251402E-01
 7.858295441E-01 4.167860746E-02 -2.933938053E-01
 7.732352018E-01 4.367964342E-02 -3.133832222E-01
 7.616933584E-01 4.548870027E-02 -3.410365204E-01
 7.483087778E-01 4.750318080E-02 -3.567079518E-01
 7.347589731E-01 4.950921237E-02 -3.897236326E-01
 7.236956954E-01 5.108412728E-02 -4.025229228E-01
 7.124268413E-01 5.264066160E-02 -4.133806649E-01
 7.007229328E-01 5.426316336E-02 -4.574838511E-01
 6.876702309E-01 5.597356334E-02 -4.758174698E-01
 6.746933460E-01 5.758879706E-02 -4.883037471E-01
 6.641393900E-01 5.888574198E-02 -5.192557951E-01
 6.523360610E-01 6.024899334E-02 -5.246245992E-01
 6.402110457E-01 6.158294156E-02 -5.168275092E-01
 6.283925772E-01 6.283822656E-02 -4.447252797E-01
 6.165137291E-01 6.402358413E-02 -5.766674243E-01
 6.060604453E-01 6.503331661E-02 -9.637270197E-01
 5.939293504E-01 6.610529870E-02 -9.440510501E-01
 5.824837685E-01 6.703504175E-02 -9.144466232E-01
 5.693551898E-01 6.803029031E-02 -9.188092035E-01
 5.572864413E-01 6.887491792E-02 -8.996063774E-01
 5.453758836E-01 6.959787756E-02 -8.858569609E-01
 5.346413851E-01 7.021856308E-02 -8.795369532E-01
 5.232722163E-01 7.078520954E-02 -8.577725012E-01
 5.115199685E-01 7.130655646E-02 -8.440648629E-01
 5.004428625E-01 7.171820849E-02 -8.270655388E-01
 4.875251055E-01 7.213779539E-02 -8.092693943E-01
 4.743421972E-01 7.244662195E-02 -7.888702782E-01
 4.613305628E-01 7.269388437E-02 -7.836480416E-01
 4.487821758E-01 7.285200804E-02 -7.661184279E-01
 4.366858006E-01 7.293421030E-02 -7.458532256E-01
 4.245962203E-01 7.293311507E-02 -7.316770653E-01
 4.126812220E-01 7.288905233E-02 -7.246844585E-01
 4.005255997E-01 7.276009023E-02 -7.032437214E-01
 3.885666132E-01 7.257462293E-02 -6.891618637E-01
 3.765535355E-01 7.232084125E-02 -6.687033034E-01
 3.638360500E-01 7.197703421E-02 -6.553692417E-01
 3.510194421E-01 7.157261670E-02 -6.528522160E-01
 3.380377889E-01 7.107972354E-02 -6.484271752E-01
 3.267806172E-01 7.059328258E-02 -6.317600927E-01
 3.139076829E-01 6.994321942E-02 -6.087072679E-01
 3.009865582E-01 6.922665238E-02 -5.978625142E-01
 2.873684466E-01 6.837919354E-02 -5.816812707E-01
 2.753887773E-01 6.755068898E-02 -5.662020604E-01
 2.635528743E-01 6.668034941E-02 -5.612752066E-01
 2.510146797E-01 6.565835327E-02 -5.443149802E-01
 2.387606204E-01 6.457834691E-02 -5.252283925E-01
 2.262432873E-01 6.338341534E-02 -5.085359191E-01
 2.139935493E-01 6.214191392E-02 -5.003684402E-01
 2.014698386E-01 6.076000258E-02 -4.802176018E-01
 1.889785528E-01 5.927626044E-02 -4.613975855E-01
 1.768661886E-01 5.774096400E-02 -4.451342346E-01
 1.651892960E-01 5.614610761E-02 -4.212082678E-01
 1.530255675E-01 5.438775197E-02 -4.078338631E-01
 1.417739093E-01 5.263214931E-02 -3.808807867E-01
 1.295726448E-01 5.060663074E-02 -3.604910583E-01
 1.181897596E-01 4.856953397E-02 -3.330228625E-01
 1.074476019E-01 4.652371630E-02 -3.125282602E-01
 9.704943746E-02 4.439317435E-02 -2.799465133E-01
 8.593907207E-02 4.194995761E-02 -2.437419954E-01
 7.453591377E-02 3.924166784E-02 -2.103446809E-01
 6.447152793E-02 3.664588928E-02 -1.720447248E-01
 5.462161079E-02 3.387639299E-02 -1.216395767E-01
 4.614949599E-02 3.127176315E-02 -8.118231374E-02
 3.886799887E-02 2.883672342E-02 -2.943332650E-02
 3.231099620E-02 2.644959651E-02 2.200072864E-02
 2.675209567E-02 2.423747815E-02 6.875515546E-02
 2.267062478E-02 2.248272672E-02 1.178647887E-01
 1.877087727E-02 2.066290751E-02 1.682415100E-01
 1.541181467E-02 1.896362007E-02 2.315284211E-01
 1.229664218E-02 1.723256521E-02 2.871466378E-01
 1.003612857E-02 1.586676389E-02 3.416703001E-01
 8.076117374E-03 1.456977520E-02 3.908594468E-01
 6.303479429E-03 1.328789350E-02 4.782058807E-01
 4.008882679E-03 1.139434427E-02 5.923386449E-01
 2.084309934E-03 9.482652880E-03 6.938003717E-01
 5.533457734E-04 7.557940204E-03 9.077944950E-01
 -9.382982971E-04 4.745559767E-03 1.102422093E+00
 -1.456481987E-03 2.660701284E-03 1.193470270E+00
 -1.518869423E-03 9.674044559E-04 1.200567033E+00
 -1.257512136E-03 -7.228392060E-04 1.123079295E+00
 -7.337223506E-04 -2.287285402E-03 1.004185797E+00
 2.848791482E-04 -4.228284582E-03 8.617970527E-01
 1.749254996E-03 -6.213029847E-03 6.789836805E-01
 3.665489843E-03 -8.230615407E-03 5.244141865E-01
 5.439237691E-03 -9.781824425E-03 3.945995542E-01
 7.478522137E-03 -1.133392286E-02 3.133198344E-01
 9.233877994E-03 -1.253326703E-02 2.330659597E-01
 1.138520706E-02 -1.387056801E-02 1.736767861E-01
 1.368877292E-02 -1.517395955E-02 1.145872788E-01
 1.697604917E-02 -1.686461084E-02 6.196658329E-02
 1.987764612E-02 -1.822170056E-02 -1.964912487E-03
 2.358539216E-02 -1.981858350E-02 -4.031107649E-02
 2.871763892E-02 -2.182243951E-02 -8.207345236E-02
 3.420644626E-02 -2.375503071E-02 -1.289188698E-01
 4.079960287E-02 -2.585603856E-02 -1.640670086E-01
 4.827307537E-02 -2.801912464E-02 -1.938981109E-01
 5.726230145E-02 -3.037477843E-02 -2.179693288E-01
 6.598034501E-02 -3.245942667E-02 -2.463007335E-01
 7.596777380E-02 -3.465519473E-02 -2.696346849E-01
 8.597552031E-02 -3.668132424E-02 -2.881011451E-01
 9.611073881E-02 -3.858686611E-02 -3.053850200E-01
 1.072812974E-01 -4.053737596E-02 -3.194843554E-01
 1.183475852E-01 -4.234785214E-02 -3.392016963E-01
 1.302805245E-01 -4.416652769E-02 -3.545758585E-01
 1.412709355E-01 -4.573830217E-02 -3.747718011E-01
 1.526995748E-01 -4.726371542E-02 -3.862821554E-01
 1.650349051E-01 -4.882032797E-02 -4.078708811E-01
 1.767858118E-01 -5.019736290E-02 -4.267264565E-01
 1.888806373E-01 -5.152354389E-02 -4.448592661E-01
 1.999204755E-01 -5.265271664E-02 -4.653626761E-01
 2.114014030E-01 -5.374195427E-02 -4.817968900E-01
 2.237958908E-01 -5.482936278E-02 -5.005765904E-01
 2.364339978E-01 -5.584556609E-02 -5.260265257E-01
 2.487431020E-01 -5.673595890E-02 -5.498564881E-01
 2.608291805E-01 -5.750710145E-02 -5.642320480E-01
 2.721387744E-01 -5.816330388E-02 -5.957127954E-01
 2.844995856E-01 -5.876233801E-02 -6.158230792E-01
 2.967517376E-01 -5.925294012E-02 -6.287699385E-01
 3.094036579E-01 -5.966619030E-02 -6.569839563E-01
 3.214265704E-01 -5.993461609E-02 -6.792715941E-01
 3.342785239E-01 -6.010678038E-02 -6.844345072E-01
 3.453748524E-01 -6.016574427E-02 -7.077684496E-01
 3.569249213E-01 -6.011175364E-02 -7.209130790E-01
 3.678115308E-01 -5.995646119E-02 -7.108907739E-01
 3.789727092E-01 -5.971039459E-02 -6.922460425E-01
 3.907790482E-01 -5.931657180E-02 -6.493524619E-01
 4.041960537E-01 -5.874725431E-02 -6.108498024E-01
 4.168955982E-01 -5.807577446E-02 -5.899293360E-01
 4.295090735E-01 -5.727872625E-02 -5.559970228E-01
 4.419858158E-01 -5.636570603E-02 -5.175517970E-01
 4.534386098E-01 -5.542858690E-02 -4.861999449E-01
 4.649382830E-01 -5.436952412E-02 -4.370580034E-01
 4.771273136E-01 -5.317100137E-02 -3.958485965E-01
 4.889013469E-01 -5.194238201E-02 -3.662767749E-01
 5.018473268E-01 -5.049308017E-02 -3.242255829E-01
 5.154621005E-01 -4.887167737E-02 -2.776746837E-01
 5.284355879E-01 -4.728610069E-02 -2.499172963E-01
 5.414355993E-01 -4.559505731E-02 -2.022769195E-01
 5.538067818E-01 -4.398953542E-02 -1.823823838E-01
 5.675909519E-01 -4.210903496E-02 -1.419810212E-01
 5.803495646E-01 -4.033978283E-02 -1.103659468E-01
 5.925869346E-01 -3.861040995E-02 -7.597101481E-02
 6.059607863E-01 -3.675713390E-02 -6.064426616E-02
 6.207984090E-01 -3.463021293E-02 -2.594757579E-02
 6.350914240E-01 -3.256479651E-02 6.319957917E-03
 6.503661871E-01 -3.037457354E-02 3.330030833E-02
 6.631574035E-01 -2.857034281E-02 4.878471517E-02
 6.764138341E-01 -2.667404711E-02 7.339997683E-02
 6.886838078E-01 -2.491417527E-02 9.935645452E-02
 7.009068131E-01 -2.321217023E-02 1.115426288E-01
 7.150761485E-01 -2.121624164E-02 1.382627491E-01
 7.280600667E-01 -1.941944472E-02 1.595914256E-01
 7.405374050E-01 -1.775575615E-02 1.689977682E-01
 7.542963624E-01 -1.588938013E-02 1.966582216E-01
 7.663702965E-01 -1.431330759E-02 2.115660406E-01
 7.799101472E-01 -1.256414223E-02 2.332807660E-01
 7.916753888E-01 -1.109257899E-02 2.510829964E-01
 8.046147227E-01 -9.534477256E-03 2.675510773E-01
 8.156456351E-01 -8.262479678E-03 2.806258154E-01
 8.270310760E-01 -6.974374410E-03 3.009553678E-01
 8.403885961E-01 -5.580272526E-03 3.114556670E-01
 8.527939320E-01 -4.335714038E-03 3.310083953E-01
 8.648797274E-01 -3.209888469E-03 3.483673031E-01
 8.761169314E-01 -2.283099806E-03 3.573498213E-01
 8.871374130E-01 -1.445650822E-03 3.720410212E-01
 9.003245234E-01 -6.142825587E-04 3.759731794E-01
 9.101944566E-01 -6.068859875E-05 3.870723750E-01
 9.215188622E-01 4.121685051E-04 3.881238766E-01
 9.312574863E-01 7.367813960E-04 3.912831758E-01
 9.403616786E-01 9.520925814E-04 3.946292771E-01
 9.519966245E-01 1.110998564E-03 3.926649061E-01
 9.640660882E-01 1.147981733E-03 3.924993104E-01
 9.773366451E-01 1.045291661E-03 3.962208401E-01
 9.884589911E-01 8.294960135E-04 4.038882827E-01
 -5.000000000E-01 -1.000000000E+00 1.633184848E-02
 3.500000000E+00 -1.000000000E+00 7.746670910E-03
 3.500000000E+00 1.000000000E+00 -3.303983365E-02
 -5.000000000E-01 1.000000000E+00 1.571166445E-02
 9.944082797E-01 1.702108595E-03 3.814897167E-01
 9.821697474E-01 4.213252920E-03 2.576059766E-01
 9.670014083E-01 7.321198238E-03 1.794133679E-01
 9.505949616E-01 1.071064221E-02 1.190847589E-01
 9.352623522E-01 1.385929110E-02 6.867197962E-02
 9.217290878E-01 1.662792638E-02 3.736467664E-02
 9.102905095E-01 1.898800582E-02 -1.257335267E-02
 8.989764750E-01 2.130670100E-02 -5.287105931E-02
 8.873959780E-01 2.360459417E-02 -8.852014707E-02
 8.757643998E-01 2.584197000E-02 -1.098501365E-01
 8.636499941E-01 2.811809443E-02 -1.249568422E-01
 8.516429663E-01 3.037510626E-02 -1.780888066E-01
 8.404323161E-01 3.242179565E-02 -1.965668605E-01
 8.292401433E-01 3.438233212E-02 -2.158732905E-01
 8.172010779E-01 3.645022772E-02 -2.279149783E-01
 8.047982752E-01 3.854643181E-02 -2.560924959E-01
 7.922283113E-01 4.063409008E-02 -2.834652227E-01
 7.795323730E-01 4.267912544E-02 -3.007797526E-01
 7.674642801E-01 4.458417185E-02 -3.307621715E-01
 7.550010681E-01 4.649594054E-02 -3.463925290E-01
 7.415338755E-01 4.850619659E-02 -3.740032816E-01
 7.292273343E-01 5.029666983E-02 -3.988349601E-01
 7.180612683E-01 5.186239444E-02 -4.016366230E-01
 7.065748870E-01 5.345191248E-02 -4.388973819E-01
 6.941965818E-01 5.511836335E-02 -4.703214878E-01
 6.811817884E-01 5.678118020E-02 -4.765292962E-01
 6.694163680E-01 5.823726952E-02 -5.083966957E-01
 6.582377255E-01 5.956736766E-02 -5.231378625E-01
 6.462735534E-01 6.091596745E-02 -5.235407839E-01
 6.343018115E-01 6.221058406E-02 -4.896921408E-01
 6.224531531E-01 6.343090534E-02 -4.430389956E-01
 6.112870872E-01 6.452845037E-02 -8.270512056E-01
 5.999948978E-01 6.556930766E-02 -9.747491579E-01
 5.882065594E-01 6.657017022E-02 -9.209258618E-01
 5.759194791E-01 6.753266603E-02 -9.171512662E-01
 5.633208156E-01 6.845260412E-02 -9.142384631E-01
 5.513311625E-01 6.923639774E-02 -8.849180438E-01
 5.400086343E-01 6.990822032E-02 -8.892580456E-01
 5.289568007E-01 7.050188631E-02 -8.658910947E-01
 5.173960924E-01 7.104588300E-02 -8.527564058E-01
 5.059814155E-01 7.151238248E-02 -8.328006100E-01
 4.939839840E-01 7.192800194E-02 -8.234540860E-01
 4.809336513E-01 7.229220867E-02 -7.932893126E-01
 4.678363800E-01 7.257025316E-02 -7.886753052E-01
 4.550563693E-01 7.277294621E-02 -7.746111363E-01
 4.427339882E-01 7.289310917E-02 -7.575130681E-01
 4.306410104E-01 7.293366268E-02 -7.341202782E-01
 4.186387211E-01 7.291108370E-02 -7.324590033E-01
 4.066034108E-01 7.282457128E-02 -7.121868673E-01
 3.945461065E-01 7.266735658E-02 -6.965689061E-01
 3.825600743E-01 7.244773209E-02 -6.801256778E-01
 3.701947927E-01 7.214893773E-02 -6.589062122E-01
 3.574277461E-01 7.177482545E-02 -6.555530630E-01
 3.445286155E-01 7.132617012E-02 -6.493471501E-01
 3.324092031E-01 7.083650306E-02 -6.443155534E-01
 3.203441501E-01 7.026825100E-02 -6.171998120E-01
 3.074471205E-01 6.958493590E-02 -6.043456170E-01
 2.941775024E-01 6.880292296E-02 -5.906041354E-01
 2.813786119E-01 6.796494126E-02 -5.704969172E-01
 2.694708258E-01 6.711551920E-02 -5.669678007E-01
 2.572837770E-01 6.616935134E-02 -5.524400395E-01
 2.448876500E-01 6.511835009E-02 -5.359303498E-01
 2.325019538E-01 6.398088112E-02 -5.141916360E-01
 2.201184183E-01 6.276266463E-02 -5.066996510E-01
 2.077316940E-01 6.145095825E-02 -4.908338764E-01
 1.952241957E-01 6.001813151E-02 -4.693357082E-01
 1.829223707E-01 5.850861222E-02 -4.549507769E-01
 1.710277423E-01 5.694353580E-02 -4.317321733E-01
 1.591074318E-01 5.526692979E-02 -4.159581331E-01
 1.473997384E-01 5.350995064E-02 -3.944057285E-01
 1.356732771E-01 5.161939003E-02 -3.718166477E-01
 1.238812022E-01 4.958808236E-02 -3.454825654E-01
 1.128186807E-01 4.754662514E-02 -3.237180786E-01
 1.022485197E-01 4.545844533E-02 -2.976959004E-01
 9.149425477E-02 4.317156598E-02 -2.645199749E-01
 8.023749292E-02 4.059581272E-02 -2.260722315E-01
 6.950372085E-02 3.794377856E-02 -1.915022770E-01
 5.954656936E-02 3.526114114E-02 -1.538823110E-01
 7.097405940E-02 -3.355731070E-02 -2.619946066E-01
 8.097164705E-02 -3.566825949E-02 -2.791774094E-01
 9.104312956E-02 -3.763409518E-02 -2.973902464E-01
 1.016960181E-01 -3.956212103E-02 -3.121340103E-01
 1.128144413E-01 -4.144261405E-02 -3.292987436E-01
 1.243140548E-01 -4.325718991E-02 -3.468372033E-01
 1.357757300E-01 -4.495241493E-02 -3.656917814E-01
 1.469852552E-01 -4.650100879E-02 -3.811750736E-01
 1.588672400E-01 -4.804202169E-02 -3.947162124E-01
 1.709103584E-01 -4.950884543E-02 -4.193892467E-01
 1.828332245E-01 -5.086045340E-02 -4.347619218E-01
 1.944005564E-01 -5.208813027E-02 -4.560668568E-01
 2.056609392E-01 -5.319733545E-02 -4.734073443E-01
 2.175986469E-01 -5.428565852E-02 -4.902726180E-01
 2.301149443E-01 -5.533746444E-02 -5.123945760E-01
 2.425885499E-01 -5.629076250E-02 -5.388158262E-01
 2.547861412E-01 -5.712153018E-02 -5.582852517E-01
 2.664839774E-01 -5.783520266E-02 -5.768560883E-01
 2.783191800E-01 -5.846282095E-02 -6.081736959E-01
 2.906256616E-01 -5.900763907E-02 -6.224781154E-01
 3.030776978E-01 -5.945956521E-02 -6.390316027E-01
 3.154151142E-01 -5.980040319E-02 -6.726707213E-01
 3.278525472E-01 -6.002069823E-02 -6.810711571E-01
 3.398266882E-01 -6.013626233E-02 -6.948442281E-01
 3.511498868E-01 -6.013874896E-02 -7.168449100E-01
 3.623682261E-01 -6.003410742E-02 -7.198137093E-01
 3.733921200E-01 -5.983342789E-02 -7.002964294E-01
 3.848758787E-01 -5.951348320E-02 -6.750989194E-01
 3.974875510E-01 -5.903191306E-02 -6.248845763E-01
 4.105458260E-01 -5.841151439E-02 -6.016668731E-01
 4.232023358E-01 -5.767725036E-02 -5.749492683E-01
 4.357474446E-01 -5.682221614E-02 -5.363319250E-01
 4.477122128E-01 -5.589714646E-02 -5.019154725E-01
 4.591884464E-01 -5.489905551E-02 -4.651789239E-01
 4.710327983E-01 -5.377026275E-02 -4.134027095E-01
 4.830143303E-01 -5.255669169E-02 -3.811423006E-01
 4.953743368E-01 -5.121773109E-02 -3.464260812E-01
 5.086547136E-01 -4.968237877E-02 -3.011551080E-01
 5.219488442E-01 -4.807888903E-02 -2.616783988E-01
 5.349355936E-01 -4.644057900E-02 -2.296141939E-01
 5.476211905E-01 -4.479229636E-02 -1.881410560E-01
 5.606988668E-01 -4.304928519E-02 -1.653979882E-01
 5.739702582E-01 -4.122440889E-02 -1.251721579E-01
 5.864682496E-01 -3.947509639E-02 -9.416717467E-02
 5.992738605E-01 -3.768377192E-02 -6.544017703E-02
 6.133795977E-01 -3.569367342E-02 -4.597089173E-02
 6.279449165E-01 -3.359750472E-02 -9.937671992E-03
 6.427288055E-01 -3.146968503E-02 2.034537107E-02
 6.567617953E-01 -2.947245818E-02 4.307783107E-02
 6.697856188E-01 -2.762219496E-02 5.955485667E-02
 6.825488210E-01 -2.579411119E-02 8.552390803E-02
 6.947953105E-01 -2.406317275E-02 1.071266474E-01
 7.079914808E-01 -2.221420594E-02 1.227201562E-01
 7.215681076E-01 -2.031784318E-02 1.496526416E-01
 7.342987359E-01 -1.858760044E-02 1.660807492E-01
 7.474168837E-01 -1.682256814E-02 1.802609938E-01
 7.603333294E-01 -1.510134386E-02 2.061427700E-01
 7.731402218E-01 -1.343872491E-02 2.208256328E-01
 7.857927680E-01 -1.182836061E-02 2.429213076E-01
 7.981450558E-01 -1.031352812E-02 2.589762440E-01
 8.101301789E-01 -8.898478467E-03 2.751535523E-01
 8.213383555E-01 -7.618427044E-03 2.891275057E-01
 8.337098360E-01 -6.277323468E-03 3.065160625E-01
 8.465912640E-01 -4.957993282E-03 3.203791869E-01
 8.588368297E-01 -3.772801254E-03 3.395314312E-01
 8.704983294E-01 -2.746494138E-03 3.543562506E-01
 8.816271722E-01 -1.864375314E-03 3.634468402E-01
 8.937309682E-01 -1.029966690E-03 3.743022826E-01
 9.158566594E-01 1.757399532E-04 3.926551908E-01
 9.461791515E-01 1.031545573E-03 3.931005752E-01
 9.580313563E-01 1.129490149E-03 3.925061818E-01
 9.707013667E-01 1.096636697E-03 3.927755429E-01
 9.828978181E-01 9.373938374E-04 4.006649902E-01
 9.942688942E-01 6.704873813E-04 4.549405775E-01
 -5.000000000E-01 9.500000000E-01 2.570150280E-02
 -5.000000000E-01 9.000000000E-01 3.887057506E-02
 -5.000000000E-01 8.500000000E-01 4.879633145E-02
 -5.000000000E-01 8.000000000E-01 5.766366402E-02
 -5.000000000E-01 7.500000000E-01 6.609159594E-02
 -5.000000000E-01 7.000000000E-01 7.449082938E-02
 -5.000000000E-01 6.500000000E-01 8.290746108E-02
 -5.000000000E-01 6.000000000E-01 9.175820044E-02
 -5.000000000E-01 5.500000000E-01 1.006026866E-01
 -5.000000000E-01 5.000000000E-01 1.096821317E-01
 -5.000000000E-01 4.500000000E-01 1.189963634E-01
 -5.000000000E-01 4.000000000E-01 1.282434621E-01
 -5.000000000E-01 3.500000000E-01 1.373819475E-01
 -5.000000000E-01 3.000000000E-01 1.461634816E-01
 -5.000000000E-01 2.500000000E-01 1.541618158E-01
 -5.000000000E-01 2.000000000E-01 1.612919590E-01
 -5.000000000E-01 1.500000000E-01 1.673130312E-01
 -5.000000000E-01 1.000000000E-01 1.718259765E-01
 -5.000000000E-01 5.000000000E-02 1.744129527E-01
 -5.000000000E-01 2.752242878E-12 1.754040233E-01
 -5.000000000E-01 -5.000000000E-02 1.744496644E-01
 -5.000000000E-01 -1.000000000E-01 1.716643967E-01
 -5.000000000E-01 -1.500000000E-01 1.672215161E-01
 -5.000000000E-01 -2.000000000E-01 1.610437866E-01
 -5.000000000E-01 -2.500000000E-01 1.543012262E-01
 -5.000000000E-01 -3.000000000E-01 1.463861998E-01
 -5.000000000E-01 -3.500000000E-01 1.379076017E-01
 -5.000000000E-01 -4.000000000E-01 1.288685734E-01
 -5.000000000E-01 -4.500000000E-01 1.200361586E-01
 -5.000000000E-01 -5.000000000E-01 1.109265182E-01
 -5.000000000E-01 -5.500000000E-01 1.021158607E-01
 -5.000000000E-01 -6.000000000E-01 9.336409605E-02
 -5.000000000E-01 -6.500000000E-01 8.486752473E-02
 -5.000000000E-01 -7.000000000E-01 7.647751380E-02
 -5.000000000E-01 -7.500000000E-01 6.812258610E-02
 -5.000000000E-01 -8.000000000E-01 5.966698777E-02
 -5.000000000E-01 -8.500000000E-01 5.064968994E-02
 -5.000000000E-01 -9.000000000E-01 4.026940502E-02
 -5.000000000E-01 -9.500000000E-01 2.665634950E-02
 -4.500000000E-01 -1.000000000E+00 2.211236691E-02
 -4.000000000E-01 -1.000000000E+00 3.278574742E-02
 -3.500000000E-01 -1.000000000E+00 3.957829909E-02
 -3.000000000E-01 -1.000000000E+00 4.394144106E-02
 -2.500000000E-01 -1.000000000E+00 4.659786027E-02
 -2.000000000E-01 -1.000000000E+00 4.764542440E-02
 -1.500000000E-01 -1.000000000E+00 4.713397354E-02
 -1.000000000E-01 -1.000000000E+00 4.498141415E-02
 -5.000000000E-02 -1.000000000E+00 4.133646642E-02
 -9.424683256E-13 -1.000000000E+00 3.614184951E-02
 5.000000000E-02 -1.000000000E+00 2.962997511E-02
 1.000000000E-01 -1.000000000E+00 2.202573974E-02
 1.500000000E-01 -1.000000000E+00 1.361289435E-02
 2.000000000E-01 -1.000000000E+00 4.665531187E-03
 2.500000000E-01 -1.000000000E+00 -4.209997864E-03
 3.000000000E-01 -1.000000000E+00 -1.256568281E-02
 3.500000000E-01 -1.000000000E+00 -2.012353040E-02
 4.000000000E-01 -1.000000000E+00 -2.643047690E-02
 4.500000000E-01 -1.000000000E+00 -3.093358889E-02
 5.000000000E-01 -1.000000000E+00 -3.386414083E-02
 5.500000000E-01 -1.000000000E+00 -3.480318372E-02
 6.000000000E-01 -1.000000000E+00 -3.397688493E-02
 6.500000000E-01 -1.000000000E+00 -3.137869641E-02
 7.000000000E-01 -1.000000000E+00 -2.723279409E-02
 7.500000000E-01 -1.000000000E+00 -2.187504514E-02
 8.000000000E-01 -1.000000000E+00 -1.567259947E-02
 8.500000000E-01 -1.000000000E+00 -8.978215557E-03
 9.000000000E-01 -1.000000000E+00 -2.112667483E-03
 9.500000000E-01 -1.000000000E+00 4.648844289E-03
 1.000000000E+00 -1.000000000E+00 1.109772277E-02
 1.050000000E+00 -1.000000000E+00 1.687937368E-02
 1.100000000E+00 -1.000000000E+00 2.214889910E-02
 1.150000000E+00 -1.000000000E+00 2.659826174E-02
 1.200000000E+00 -1.000000000E+00 3.041368350E-02
 1.250000000E+00 -1.000000000E+00 3.354855197E-02
 1.300000000E+00 -1.000000000E+00 3.596772465E-02
 1.350000000E+00 -1.000000000E+00 3.783220876E-02
 1.400000000E+00 -1.000000000E+00 3.915285087E-02
 1.450000000E+00 -1.000000000E+00 3.987645975E-02
 1.500000000E+00 -1.000000000E+00 4.030243598E-02
 1.550000000E+00 -1.000000000E+00 4.027099058E-02
 1.600000000E+00 -1.000000000E+00 4.008867163E-02
 1.650000000E+00 -1.000000000E+00 3.957239440E-02
 1.700000000E+00 -1.000000000E+00 3.895233577E-02
 1.750000000E+00 -1.000000000E+00 3.814045892E-02
 1.800000000E+00 -1.000000000E+00 3.725334369E-02
 1.850000000E+00 -1.000000000E+00 3.623567615E-02
 1.900000000E+00 -1.000000000E+00 3.520677600E-02
 1.950000000E+00 -1.000000000E+00 3.415303682E-02
 2.000000000E+00 -1.000000000E+00 3.304530401E-02
 2.050000000E+00 -1.000000000E+00 3.198164506E-02
 2.100000000E+00 -1.000000000E+00 3.090920535E-02
 2.150000000E+00 -1.000000000E+00 2.984004862E-02
 2.200000000E+00 -1.000000000E+00 2.883788759E-02
 2.250000000E+00 -1.000000000E+00 2.780410467E-02
 2.300000000E+00 -1.000000000E+00 2.692825864E-02
 2.350000000E+00 -1.000000000E+00 2.593743492E-02
 2.400000000E+00 -1.000000000E+00 2.513643454E-02
 2.450000000E+00 -1.000000000E+00 2.428695371E-02
 2.500000000E+00 -1.000000000E+00 2.352696721E-02
 2.550000000E+00 -1.000000000E+00 2.281785580E-02
 2.600000000E+00 -1.000000000E+00 2.215987807E-02
 2.650000000E+00 -1.000000000E+00 2.157104566E-02
 2.700000000E+00 -1.000000000E+00 2.097804368E-02
 2.750000000E+00 -1.000000000E+00 2.049472379E-02
 2.800000000E+00 -1.000000000E+00 2.006856259E-02
 2.850000000E+00 -1.000000000E+00 1.956907234E-02
 2.900000000E+00 -1.000000000E+00 1.924250371E-02
 2.950000000E+00 -1.000000000E+00 1.886111742E-02
 3.000000000E+00 -1.000000000E+00 1.855611354E-02
 3.050000000E+00 -1.000000000E+00 1.826085174E-02
 3.100000000E+00 -1.000000000E+00 1.800424601E-02
 3.150000000E+00 -1.000000000E+00 1.771443826E-02
 3.200000000E+00 -1.000000000E+00 1.740133053E-02
 3.250000000E+00 -1.000000000E+00 1.703234003E-02
 3.300000000E+00 -1.000000000E+00 1.647915354E-02
 3.350000000E+00 -1.000000000E+00 1.575254176E-02
 3.400000000E+00 -1.000000000E+00 1.439133976E-02
 3.450000000E+00 -1.000000000E+00 1.157092462E-02
 3.500000000E+00 -9.500000000E-01 5.809708876E-03
 3.500000000E+00 -9.000000000E-01 7.310496031E-03
 3.500000000E+00 -8.500000000E-01 8.912079717E-03
 3.500000000E+00 -8.000000000E-01 1.046845068E-02
 3.500000000E+00 -7.500000000E-01 1.194739713E-02
 3.500000000E+00 -7.000000000E-01 1.329770315E-02
 3.500000000E+00 -6.500000000E-01 1.473760009E-02
 3.500000000E+00 -6.000000000E-01 1.619104993E-02
 3.500000000E+00 -5.500000000E-01 1.772120831E-02
 3.500000000E+00 -5.000000000E-01 1.924452343E-02
 3.500000000E+00 -4.500000000E-01 2.082791509E-02
 3.500000000E+00 -4.000000000E-01 2.240218919E-02
 3.500000000E+00 -3.500000000E-01 2.401724011E-02
 3.500000000E+00 -3.000000000E-01 2.550993960E-02
 3.500000000E+00 -2.500000000E-01 2.660103356E-02
 3.500000000E+00 -2.000000000E-01 2.709770873E-02
 3.500000000E+00 -1.500000000E-01 2.692698038E-02
 3.500000000E+00 -1.000000000E-01 2.628046180E-02
 3.500000000E+00 -5.000000000E-02 2.569966500E-02
 3.500000000E+00 -2.752242878E-12 2.582294433E-02
 3.500000000E+00 5.000000000E-02 2.637355926E-02
 3.500000000E+00 1.000000000E-01 2.679038011E-02
 3.500000000E+00 1.500000000E-01 2.647187159E-02
 3.500000000E+00 2.000000000E-01 2.544007179E-02
 3.500000000E+00 2.500000000E-01 2.399023874E-02
 3.500000000E+00 3.000000000E-01 2.240045937E-02
 3.500000000E+00 3.500000000E-01 2.079471294E-02
 3.500000000E+00 4.000000000E-01 1.912150395E-02
 3.500000000E+00 4.500000000E-01 1.741660216E-02
 3.500000000E+00 5.000000000E-01 1.570406962E-02
 3.500000000E+00 5.500000000E-01 1.436558212E-02
 3.500000000E+00 6.000000000E-01 1.353417178E-02
 3.500000000E+00 6.500000000E-01 1.315177440E-02
 3.500000000E+00 7.000000000E-01 1.270496719E-02
 3.500000000E+00 7.500000000E-01 1.009203475E-02
 3.500000000E+00 8.000000000E-01 2.630551249E-03
 3.500000000E+00 8.500000000E-01 -9.229989037E-03
 3.500000000E+00 9.000000000E-01 -2.269208016E-02
 3.500000000E+00 9.500000000E-01 -3.730322162E-02
 3.450000000E+00 1.000000000E+00 -1.705462654E-02
 3.400000000E+00 1.000000000E+00 -6.417497281E-03
 3.350000000E+00 1.000000000E+00 -2.546273392E-03
 3.300000000E+00 1.000000000E+00 -1.684448578E-03
 3.250000000E+00 1.000000000E+00 -1.613488489E-03
 3.200000000E+00 1.000000000E+00 -1.889198337E-03
 3.150000000E+00 1.000000000E+00 -2.653651373E-03
 3.100000000E+00 1.000000000E+00 -3.330048648E-03
 3.050000000E+00 1.000000000E+00 -4.223654842E-03
 3.000000000E+00 1.000000000E+00 -5.003122733E-03
 2.950000000E+00 1.000000000E+00 -6.250327669E-03
 2.900000000E+00 1.000000000E+00 -7.038433051E-03
 2.850000000E+00 1.000000000E+00 -8.524238241E-03
 2.800000000E+00 1.000000000E+00 -9.521951342E-03
 2.750000000E+00 1.000000000E+00 -1.075716989E-02
 2.700000000E+00 1.000000000E+00 -1.191271036E-02
 2.650000000E+00 1.000000000E+00 -1.319146514E-02
 2.600000000E+00 1.000000000E+00 -1.450393681E-02
 2.550000000E+00 1.000000000E+00 -1.599257994E-02
 2.500000000E+00 1.000000000E+00 -1.736509719E-02
 2.450000000E+00 1.000000000E+00 -1.894336961E-02
 2.400000000E+00 1.000000000E+00 -2.049923969E-02
 2.350000000E+00 1.000000000E+00 -2.201681306E-02
 2.300000000E+00 1.000000000E+00 -2.396320095E-02
 2.250000000E+00 1.000000000E+00 -2.578633103E-02
 2.200000000E+00 1.000000000E+00 -2.776371379E-02
 2.150000000E+00 1.000000000E+00 -2.963837650E-02
 2.100000000E+00 1.000000000E+00 -3.222659876E-02
 2.050000000E+00 1.000000000E+00 -3.437627014E-02
 2.000000000E+00 1.000000000E+00 -3.735515298E-02
 1.950000000E+00 1.000000000E+00 -3.991709777E-02
 1.900000000E+00 1.000000000E+00 -4.320204649E-02
 1.850000000E+00 1.000000000E+00 -4.619466177E-02
 1.800000000E+00 1.000000000E+00 -4.980010164E-02
 1.750000000E+00 1.000000000E+00 -5.358573232E-02
 1.700000000E+00 1.000000000E+00 -5.772958555E-02
 1.650000000E+00 1.000000000E+00 -6.224787391E-02
 1.600000000E+00 1.000000000E+00 -6.719638454E-02
 1.550000000E+00 1.000000000E+00 -7.264036617E-02
 1.500000000E+00 1.000000000E+00 -7.858779207E-02
 1.450000000E+00 1.000000000E+00 -8.499133901E-02
 1.400000000E+00 1.000000000E+00 -9.219424350E-02
 1.350000000E+00 1.000000000E+00 -9.969465257E-02
 1.300000000E+00 1.000000000E+00 -1.077870402E-01
 1.250000000E+00 1.000000000E+00 -1.163797536E-01
 1.200000000E+00 1.000000000E+00 -1.249399117E-01
 1.150000000E+00 1.000000000E+00 -1.339458095E-01
 1.100000000E+00 1.000000000E+00 -1.424584056E-01
 1.050000000E+00 1.000000000E+00 -1.511736443E-01
 1.000000000E+00 1.000000000E+00 -1.583985022E-01
 9.500000000E-01 1.000000000E+00 -1.655664046E-01
 9.000000000E-01 1.000000000E+00 -1.699408587E-01
 8.500000000E-01 1.000000000E+00 -1.735328842E-01
 8.000000000E-01 1.000000000E+00 -1.738692721E-01
 7.500000000E-01 1.000000000E+00 -1.720521070E-01
 7.000000000E-01 1.000000000E+00 -1.672061234E-01
 6.500000000E-01 1.000000000E+00 -1.599379419E-01
 6.000000000E-01 1.000000000E+00 -1.488973436E-01
 5.500000000E-01 1.000000000E+00 -1.369348477E-01
 5.000000000E-01 1.000000000E+00 -1.217000369E-01
 4.500000000E-01 1.000000000E+00 -1.061298843E-01
 4.000000000E-01 1.000000000E+00 -8.916079494E-02
 3.500000000E-01 1.000000000E+00 -7.174265062E-02
 3.000000000E-01 1.000000000E+00 -5.512076692E-02
 2.500000000E-01 1.000000000E+00 -3.870277194E-02
 2.000000000E-01 1.000000000E+00 -2.308404580E-02
 1.500000000E-01 1.000000000E+00 -8.600943330E-03
 1.000000000E-01 1.000000000E+00 4.511329560E-03
 5.000000000E-02 1.000000000E+00 1.604653550E-02
 1.733724275E-12 1.000000000E+00 2.547278911E-02
 -5.000000000E-02 1.000000000E+00 3.295142708E-02
 -1.000000000E-01 1.000000000E+00 3.847131318E-02
 -1.500000000E-01 1.000000000E+00 4.201877078E-02
 -2.000000000E-01 1.000000000E+00 4.371530004E-02
 -2.500000000E-01 1.000000000E+00 4.350883456E-02
 -3.000000000E-01 1.000000000E+00 4.151285988E-02
 -3.500000000E-01 1.000000000E+00 3.770101917E-02
 -4.000000000E-01 1.000000000E+00 3.140370676E-02
 -4.500000000E-01 1.000000000E+00 2.114203104E-02
 8.908094755E-01 -7.205494023E-03 3.647643946E-01
 9.854410750E-01 -4.671419367E-03 3.984611196E-01
 8.131930596E-01 -1.367612124E-02 2.742700310E-01
 7.456997409E-01 -2.289014920E-02 1.762901223E-01
 6.739825666E-01 -3.318352147E-02 6.704351912E-02
 6.033982357E-01 -4.285957980E-02 -6.196124663E-02
 5.332239550E-01 -5.192377397E-02 -2.317673024E-01
 4.696195171E-01 -5.827953432E-02 -4.136314117E-01
 4.144917720E-01 -6.375977195E-02 -5.820255876E-01
 3.531431262E-01 -6.502327213E-02 -7.059198026E-01