TITLE     = "Visualization of the solution"
VARIABLES = "x"
"y"
"Pressure_Coefficient"
ZONE T="Zone"
 STRANDID=0, SOLUTIONTIME=0
 Nodes=12166, Elements=23750, ZONETYPE=FEQuadrilateral
 DATAPACKING=POINT
 DT=(DOUBLE DOUBLE DOUBLE )
 9.997665882E-01 5.136344698E-04 3.486358776E-01
 9.879601002E-01 2.891278593E-03 2.587174337E-01
 9.756771326E-01 5.372932181E-03 1.800828311E-01
 9.600496292E-01 8.505877107E-03 1.151226732E-01
 9.455192089E-01 1.136972383E-02 7.921261612E-02
 9.316902161E-01 1.419040561E-02 1.054167478E-02
 9.199228883E-01 1.644133031E-02 1.257623415E-03
 9.083142281E-01 1.876101270E-02 -5.557617806E-02
 8.966597319E-01 2.099961974E-02 -9.481385428E-02
 8.843648434E-01 2.323734201E-02 -1.024775246E-01
 8.722677231E-01 2.547924221E-02 -1.501314962E-01
 8.597689271E-01 2.764795162E-02 -1.505460222E-01
 8.476290703E-01 2.982827276E-02 -2.110948277E-01
 8.362617493E-01 3.169309720E-02 -2.023963273E-01
 8.247598410E-01 3.362518176E-02 -2.375816321E-01
 8.119863868E-01 3.567063808E-02 -2.487483982E-01
 7.993056774E-01 3.769006208E-02 -2.767948665E-01
 7.869160771E-01 3.960344195E-02 -2.982291007E-01
 7.746241689E-01 4.145812243E-02 -3.192569062E-01
 7.627089620E-01 4.318995029E-02 -3.261744350E-01
 7.496449351E-01 4.509079084E-02 -3.576801957E-01
 7.359837890E-01 4.701643437E-02 -3.875176102E-01
 7.252306938E-01 4.847567901E-02 -4.011298791E-01
 7.141395807E-01 4.994959012E-02 -4.212189794E-01
 7.025602460E-01 5.145505816E-02 -4.497215696E-01
 6.891011596E-01 5.312135816E-02 -4.618614539E-01
 6.759681702E-01 5.468600243E-02 -4.785451396E-01
 6.658218503E-01 5.588990822E-02 -5.205815545E-01
 6.541352272E-01 5.719382316E-02 -5.334242588E-01
 6.423118114E-01 5.844145641E-02 -5.377652232E-01
 6.304970384E-01 5.966146663E-02 -5.742283144E-01
 6.191208959E-01 6.078012288E-02 -5.966031164E-01
 6.083060503E-01 6.177363172E-02 -5.387169958E-01
 5.956235528E-01 6.284736097E-02 -5.603252610E-01
 5.838883519E-01 6.377920508E-02 -8.274485105E-01
 5.702843070E-01 6.478190422E-02 -9.036552479E-01
 5.579266548E-01 6.563451141E-02 -8.723932506E-01
 5.455593467E-01 6.638164818E-02 -8.596002267E-01
 5.346646309E-01 6.698237360E-02 -8.503853762E-01
 5.227835178E-01 6.755051017E-02 -8.342424638E-01
 5.101945400E-01 6.808214635E-02 -8.291960674E-01
 4.990188479E-01 6.849673390E-02 -8.182681979E-01
 4.859240651E-01 6.890872121E-02 -7.912190144E-01
 4.724016786E-01 6.920208037E-02 -7.681657231E-01
 4.584528804E-01 6.944762170E-02 -7.657901873E-01
 4.451708794E-01 6.959240139E-02 -7.337692933E-01
 4.322719872E-01 6.962811947E-02 -6.998714103E-01
 4.192666411E-01 6.959246099E-02 -6.960152544E-01
 4.069066346E-01 6.950354576E-02 -7.039487771E-01
 3.945710063E-01 6.935191154E-02 -6.931737277E-01
 3.821295798E-01 6.910699606E-02 -6.743199344E-01
 3.706028759E-01 6.883382052E-02 -6.567070255E-01
 3.573517203E-01 6.842249632E-02 -6.320938395E-01
 3.448167443E-01 6.797538698E-02 -6.213661504E-01
 3.318344951E-01 6.743628532E-02 -6.113609020E-01
 3.206662238E-01 6.690872461E-02 -5.966823820E-01
 3.081140220E-01 6.625257432E-02 -5.839529722E-01
 2.948811352E-01 6.547299773E-02 -5.644338886E-01
 2.809521258E-01 6.456812471E-02 -5.536409006E-01
 2.686609328E-01 6.369076669E-02 -5.394210512E-01
 2.567709982E-01 6.276115030E-02 -5.207055054E-01
 2.443519831E-01 6.172474846E-02 -5.074938949E-01
 2.320158929E-01 6.060601026E-02 -4.905504898E-01
 2.198307812E-01 5.942940712E-02 -4.804259569E-01
 2.081835419E-01 5.821584910E-02 -4.614386945E-01
 1.967766434E-01 5.694235489E-02 -4.399658849E-01
 1.847072989E-01 5.552772433E-02 -4.291464938E-01
 1.728759408E-01 5.403325707E-02 -4.087311734E-01
 1.615972072E-01 5.252591521E-02 -3.914083523E-01
 1.498128325E-01 5.085353181E-02 -3.777005888E-01
 1.392542720E-01 4.924530908E-02 -3.513599608E-01
 1.278019696E-01 4.740924761E-02 -3.330447864E-01
 1.165028811E-01 4.547012970E-02 -3.126096671E-01
 1.058979258E-01 4.352641851E-02 -2.817797433E-01
 9.604976326E-02 4.161353409E-02 -2.639427514E-01
 8.502042294E-02 3.931964561E-02 -2.301987980E-01
 7.326725125E-02 3.668178245E-02 -2.003887440E-01
 6.330829114E-02 3.425767645E-02 -1.689821458E-01
 5.342551693E-02 3.162868321E-02 -1.165752709E-01
 4.465940967E-02 2.910177782E-02 -8.184350035E-02
 3.719711676E-02 2.674663253E-02 -3.679490329E-02
 3.061327897E-02 2.447218634E-02 1.550142166E-02
 2.490021847E-02 2.231908403E-02 5.417362231E-02
 2.081129514E-02 2.063634060E-02 1.028845904E-01
 1.692826860E-02 1.889789104E-02 1.492904859E-01
 1.394239068E-02 1.744656637E-02 2.052034488E-01
 1.119260117E-02 1.598437876E-02 2.557621335E-01
 9.170388803E-03 1.482093986E-02 3.019509368E-01
 7.397572510E-03 1.371615939E-02 3.443731988E-01
 5.737900268E-03 1.258359384E-02 4.259663146E-01
 3.550838679E-03 1.090441458E-02 5.273836495E-01
 1.676736283E-03 9.188903496E-03 6.377406791E-01
 1.310687512E-04 7.425216492E-03 8.385161490E-01
 -1.350171398E-03 4.977324512E-03 1.035515979E+00
 -1.975309569E-03 3.105369862E-03 1.156480584E+00
 -2.153199632E-03 1.620817115E-03 1.195841028E+00
 -2.037701197E-03 1.937858724E-05 1.160065450E+00
 -1.584645361E-03 -1.629747916E-03 1.047319612E+00
 -6.134575815E-04 -3.596168477E-03 8.838282557E-01
 8.652522811E-04 -5.611203611E-03 6.748791456E-01
 2.885026857E-03 -7.680554874E-03 5.079636107E-01
 4.719304387E-03 -9.210212156E-03 3.694094195E-01
 6.829452235E-03 -1.073727477E-02 2.824567876E-01
 8.494945243E-03 -1.181056071E-02 1.963971971E-01
 1.059236191E-02 -1.304311771E-02 1.529432841E-01
 1.298226323E-02 -1.432153117E-02 9.660562836E-02
 1.630739495E-02 -1.593178883E-02 4.291608182E-02
 1.929941401E-02 -1.724630035E-02 -1.631365626E-02
 2.319059893E-02 -1.880996674E-02 -5.172243271E-02
 2.857205644E-02 -2.075851895E-02 -9.031967518E-02
 3.441746160E-02 -2.266385593E-02 -1.311591240E-01
 4.164273292E-02 -2.478767559E-02 -1.627277667E-01
 4.928484187E-02 -2.681224048E-02 -1.891964524E-01
 5.847166479E-02 -2.902282402E-02 -2.056351734E-01
 6.741147488E-02 -3.099481389E-02 -2.322625555E-01
 7.767363638E-02 -3.306673467E-02 -2.484912427E-01
 8.783703297E-02 -3.496961668E-02 -2.644475208E-01
 9.831701964E-02 -3.679477796E-02 -2.785250002E-01
 1.094880998E-01 -3.861566633E-02 -2.952649272E-01
 1.208184510E-01 -4.033880681E-02 -3.106752285E-01
 1.325922310E-01 -4.201243445E-02 -3.227806768E-01
 1.434049904E-01 -4.346248507E-02 -3.386518086E-01
 1.546364725E-01 -4.488603771E-02 -3.542500279E-01
 1.669324785E-01 -4.634844884E-02 -3.695718256E-01
 1.786439270E-01 -4.765801504E-02 -3.881060893E-01
 1.905858815E-01 -4.890513793E-02 -4.021949505E-01
 2.013005763E-01 -4.996254668E-02 -4.231329949E-01
 2.126786560E-01 -5.100535974E-02 -4.377585845E-01
 2.249720842E-01 -5.205113068E-02 -4.534197221E-01
 2.375516444E-01 -5.303885043E-02 -4.748803501E-01
 2.497398704E-01 -5.390966684E-02 -4.952242924E-01
 2.621594667E-01 -5.471013859E-02 -5.154383262E-01
 2.732554972E-01 -5.535172671E-02 -5.416928267E-01
 2.859705389E-01 -5.598830804E-02 -5.628192318E-01
 2.983519435E-01 -5.649734661E-02 -5.787280509E-01
 3.108876646E-01 -5.691234022E-02 -5.903232184E-01
 3.226347268E-01 -5.721736327E-02 -6.143372504E-01
 3.350290060E-01 -5.742814764E-02 -6.332962078E-01
 3.457543552E-01 -5.751638114E-02 -6.473255836E-01
 3.571913540E-01 -5.751923844E-02 -6.567762088E-01
 3.680267930E-01 -5.742013454E-02 -6.623433324E-01
 3.787567317E-01 -5.721763149E-02 -6.420194924E-01
 3.902719319E-01 -5.691033229E-02 -6.213013074E-01
 4.033410549E-01 -5.643950775E-02 -6.119586173E-01
 4.155530035E-01 -5.584571138E-02 -5.786556769E-01
 4.285564423E-01 -5.509295315E-02 -5.383756223E-01
 4.411643744E-01 -5.424584821E-02 -5.140282623E-01
 4.533176422E-01 -5.330281332E-02 -4.798329844E-01
 4.651785493E-01 -5.226336420E-02 -4.337778996E-01
 4.774056375E-01 -5.109884590E-02 -3.941920162E-01
 4.889491200E-01 -4.991373047E-02 -3.570179889E-01
 5.014552474E-01 -4.855568334E-02 -3.206113557E-01
 5.154013634E-01 -4.693874344E-02 -2.776271128E-01
 5.289363265E-01 -4.528817907E-02 -2.386629938E-01
 5.421326160E-01 -4.359665886E-02 -1.947387749E-01
 5.550944209E-01 -4.191603512E-02 -1.673583379E-01
 5.683519840E-01 -4.012434185E-02 -1.274685156E-01
 5.816255212E-01 -3.832434118E-02 -1.008961441E-01
 5.937332511E-01 -3.663975373E-02 -6.910571518E-02
 6.062943339E-01 -3.489381820E-02 -4.496853081E-02
 6.204258800E-01 -3.290182725E-02 -1.419849177E-02
 6.348080635E-01 -3.088598512E-02 8.921342511E-03
 6.493871212E-01 -2.881105058E-02 4.069513445E-02
 6.624696851E-01 -2.698054537E-02 5.941736933E-02
 6.758093238E-01 -2.509464510E-02 8.732040242E-02
 6.884120107E-01 -2.335632034E-02 1.022484478E-01
 7.008289695E-01 -2.163433842E-02 1.258551073E-01
 7.153077126E-01 -1.966344193E-02 1.462376268E-01
 7.284119725E-01 -1.791176386E-02 1.638892057E-01
 7.404301763E-01 -1.633585803E-02 1.767436316E-01
 7.532428503E-01 -1.462746039E-02 2.064654505E-01
 7.654241323E-01 -1.306447294E-02 2.251628074E-01
 7.788551450E-01 -1.144074462E-02 2.325943374E-01
 7.906638384E-01 -1.001116168E-02 2.524747371E-01
 8.032849431E-01 -8.513555862E-03 2.749414613E-01
 8.143978715E-01 -7.280156948E-03 2.859483954E-01
 8.258897066E-01 -6.040805019E-03 3.031658511E-01
 8.386788368E-01 -4.749273881E-03 3.165702439E-01
 8.509498239E-01 -3.573941300E-03 3.345258142E-01
 8.630924821E-01 -2.512732521E-03 3.483511245E-01
 8.747896552E-01 -1.595031819E-03 3.594849393E-01
 8.863656521E-01 -7.745652110E-04 3.732353643E-01
 8.995683193E-01 -4.009227723E-06 3.791830719E-01
 9.095011950E-01 4.843731003E-04 3.876511483E-01
 9.201093316E-01 8.871656028E-04 3.909035584E-01
 9.295381904E-01 1.158770639E-03 3.931803227E-01
 9.385399818E-01 1.333513879E-03 3.960615400E-01
 9.502758384E-01 1.448428142E-03 3.951145689E-01
 9.627769589E-01 1.432018471E-03 3.956532512E-01
 9.767990708E-01 1.251532813E-03 4.005849261E-01
 9.889314175E-01 9.395253728E-04 4.138378019E-01
 -5.000000000E-01 -1.000000000E+00 1.561277524E-02
 3.500000000E+00 -1.000000000E+00 7.744331570E-03
 3.500000000E+00 1.000000000E+00 -3.200467639E-02
 -5.000000000E-01 1.000000000E+00 1.452681410E-02
 9.938633442E-01 1.702456531E-03 3.341822785E-01
 9.818186164E-01 4.132105387E-03 2.134349376E-01
 9.678633809E-01 6.939404644E-03 1.433620222E-01
 9.527844191E-01 9.937800467E-03 1.006419655E-01
 9.386047125E-01 1.278006472E-02 3.718957135E-02
 9.258065522E-01 1.531586796E-02 1.239284644E-02
 9.141185582E-01 1.760117151E-02 -2.964910885E-02
 9.024869800E-01 1.988031622E-02 -8.087379481E-02
 8.905122876E-01 2.211848088E-02 -9.162111795E-02
 8.783162832E-01 2.435829211E-02 -1.338838724E-01
 8.660183251E-01 2.656359691E-02 -1.415966465E-01
 8.536989987E-01 2.873811219E-02 -1.923888861E-01
 8.419454098E-01 3.076068498E-02 -1.989534706E-01
 8.305107951E-01 3.265913948E-02 -2.246039964E-01
 8.183731139E-01 3.464790992E-02 -2.403710061E-01
 8.056460321E-01 3.668035008E-02 -2.639850513E-01
 7.931108773E-01 3.864675201E-02 -2.866835060E-01
 7.807701230E-01 4.053078219E-02 -3.116873698E-01
 7.686665654E-01 4.232403636E-02 -3.190558208E-01
 7.561769485E-01 4.414037056E-02 -3.421354544E-01
 7.428143620E-01 4.605361260E-02 -3.738914561E-01
 7.306072414E-01 4.774605669E-02 -3.942556606E-01
 7.196851373E-01 4.921263456E-02 -4.091932809E-01
 7.083499134E-01 5.070232414E-02 -4.379890213E-01
 6.958307028E-01 5.228820816E-02 -4.575634568E-01
 6.825346649E-01 5.390368029E-02 -4.639113174E-01
 6.708950102E-01 5.528795533E-02 -5.037193150E-01
 6.599785388E-01 5.654186569E-02 -5.307152283E-01
 6.482235193E-01 5.781763978E-02 -5.311732650E-01
 6.364044249E-01 5.905146152E-02 -5.545077771E-01
 6.248089671E-01 6.022079475E-02 -5.924701545E-01
 6.137134731E-01 6.127687730E-02 -5.774993425E-01
 6.019648015E-01 6.231049635E-02 -5.171383705E-01
 5.897559524E-01 6.331328303E-02 -6.880917597E-01
 5.770863295E-01 6.428055465E-02 -8.948810791E-01
 5.641054809E-01 6.520820782E-02 -8.907531034E-01
 5.517430007E-01 6.600807980E-02 -8.598557963E-01
 5.401119888E-01 6.668201089E-02 -8.589363781E-01
 5.287240744E-01 6.726644188E-02 -8.403792437E-01
 5.164890289E-01 6.781632826E-02 -8.310464995E-01
 5.046066940E-01 6.828944013E-02 -8.250148729E-01
 4.924714565E-01 6.870272756E-02 -8.103110081E-01
 4.791628718E-01 6.905540079E-02 -7.721550919E-01
 4.654272795E-01 6.932485104E-02 -7.703478293E-01
 4.518118799E-01 6.952001154E-02 -7.531926349E-01
 4.387214333E-01 6.961026043E-02 -7.128046411E-01
 4.257693142E-01 6.961029023E-02 -6.944186961E-01
 4.130866379E-01 6.954800338E-02 -7.004425755E-01
 4.007388204E-01 6.942772865E-02 -7.033089752E-01
 3.883502930E-01 6.922945380E-02 -6.796358629E-01
 3.763662279E-01 6.897040829E-02 -6.704106076E-01
 3.639772981E-01 6.862815842E-02 -6.409817455E-01
 3.510842323E-01 6.819894165E-02 -6.270392124E-01
 3.383256197E-01 6.770583615E-02 -6.161138319E-01
 3.262503594E-01 6.717250496E-02 -6.037735970E-01
 3.143901229E-01 6.658064947E-02 -5.922583309E-01
 3.014975786E-01 6.586278602E-02 -5.737735321E-01
 2.879166305E-01 6.502056122E-02 -5.579911786E-01
 2.748065293E-01 6.412944570E-02 -5.478413317E-01
 2.627159655E-01 6.322595850E-02 -5.286130993E-01
 2.505614907E-01 6.224294938E-02 -5.155436611E-01
 2.381839380E-01 6.116537936E-02 -4.975318782E-01
 2.259233370E-01 6.001770869E-02 -4.862849560E-01
 2.140071616E-01 5.882262811E-02 -4.719539466E-01
 2.024800926E-01 5.757910199E-02 -4.485911207E-01
 1.907419711E-01 5.623503961E-02 -4.366740785E-01
 1.787916198E-01 5.478049070E-02 -4.178458707E-01
 1.672365740E-01 5.327958614E-02 -4.002280813E-01
 1.557050198E-01 5.168972351E-02 -3.855465724E-01
 1.445335522E-01 5.004942045E-02 -3.638431929E-01
 1.335281208E-01 4.832727835E-02 -3.432575709E-01
 1.221524253E-01 4.643968865E-02 -3.225924357E-01
 1.112004034E-01 4.449827410E-02 -3.001431321E-01
 9.053509310E-02 4.046658985E-02 -2.499152164E-01
 7.914383709E-02 3.800071403E-02 -2.131249905E-01
 6.828777120E-02 3.546972945E-02 -1.867165691E-01
 5.836690404E-02 3.294317983E-02 -1.477066185E-01
 7.254255563E-02 -3.203077428E-02 -2.463100965E-01
 8.275533468E-02 -3.401817568E-02 -2.560360591E-01
 9.307702631E-02 -3.588219732E-02 -2.721079887E-01
 1.039025597E-01 -3.770522214E-02 -2.864511297E-01
 1.151532754E-01 -3.947723657E-02 -3.030757103E-01
 1.267053410E-01 -4.117562063E-02 -3.170625925E-01
 1.379986107E-01 -4.273745976E-02 -3.312557673E-01
 1.490207314E-01 -4.417426139E-02 -3.458009537E-01
 1.607844755E-01 -4.561724328E-02 -3.616487564E-01
 1.727882028E-01 -4.700323194E-02 -3.790903430E-01
 1.846149042E-01 -4.828157648E-02 -3.956291425E-01
 1.959432289E-01 -4.943384230E-02 -4.123619479E-01
 2.069896162E-01 -5.048395321E-02 -4.309240589E-01
 2.188253701E-01 -5.152824521E-02 -4.446782679E-01
 2.312618643E-01 -5.254499055E-02 -4.638801705E-01
 2.436457574E-01 -5.347425863E-02 -4.853245912E-01
 2.559496686E-01 -5.430990271E-02 -5.048365365E-01
 2.677074820E-01 -5.503093265E-02 -5.289419515E-01
 2.796130180E-01 -5.567001738E-02 -5.512614924E-01
 2.921612412E-01 -5.624282733E-02 -5.728395340E-01
 3.046198040E-01 -5.670484342E-02 -5.838509423E-01
 3.167611957E-01 -5.706485175E-02 -6.010070847E-01
 3.288318664E-01 -5.732275546E-02 -6.245299403E-01
 3.403916806E-01 -5.747226439E-02 -6.425826419E-01
 3.514728546E-01 -5.751780979E-02 -6.505220577E-01
 3.626090735E-01 -5.746968649E-02 -6.621874522E-01
 3.733917624E-01 -5.731888302E-02 -6.557864197E-01
 3.845143318E-01 -5.706398189E-02 -6.283921769E-01
 3.968064934E-01 -5.667492002E-02 -6.153453680E-01
 4.094470292E-01 -5.614260957E-02 -6.012842061E-01
 4.220547229E-01 -5.546933226E-02 -5.556605600E-01
 4.348604083E-01 -5.466940068E-02 -5.254836057E-01
 4.472410083E-01 -5.377433077E-02 -4.994148511E-01
 4.592480958E-01 -5.278308876E-02 -4.580086935E-01
 4.712920934E-01 -5.168110505E-02 -4.128957705E-01
 4.831773788E-01 -5.050628819E-02 -3.765802897E-01
 4.952021837E-01 -4.923470691E-02 -3.379826514E-01
 5.084283054E-01 -4.774721339E-02 -2.995450666E-01
 5.221688449E-01 -4.611346126E-02 -2.578542466E-01
 5.355344713E-01 -4.444241896E-02 -2.179881980E-01
 5.486135185E-01 -4.275634699E-02 -1.789515939E-01
 5.617232025E-01 -4.102018848E-02 -1.495894809E-01
 5.749887526E-01 -3.922434151E-02 -1.118858240E-01
 5.876793861E-01 -3.748204745E-02 -8.657947717E-02
 6.000137925E-01 -3.576678596E-02 -5.602973635E-02
 6.133601069E-01 -3.389782272E-02 -3.069829664E-02
 6.276169717E-01 -3.189390618E-02 -1.576967673E-03
 6.420975924E-01 -2.984851785E-02 2.343583520E-02
 6.559284031E-01 -2.789579798E-02 5.211621300E-02
 6.691395044E-01 -2.603759523E-02 7.184920376E-02
 6.821106672E-01 -2.422548272E-02 9.645098888E-02
 6.946204901E-01 -2.249532938E-02 1.127878424E-01
 7.080683410E-01 -2.064889017E-02 1.359912146E-01
 7.218598425E-01 -1.878760289E-02 1.559347817E-01
 7.344210744E-01 -1.712381095E-02 1.709533295E-01
 7.468365133E-01 -1.548165921E-02 1.888730149E-01
 7.593334913E-01 -1.384596666E-02 2.169630424E-01
 7.721396387E-01 -1.225260878E-02 2.303494802E-01
 7.847594917E-01 -1.072595315E-02 2.411469823E-01
 7.969743907E-01 -9.262358770E-03 2.625245539E-01
 8.088414073E-01 -7.896856405E-03 2.825549966E-01
 8.201437891E-01 -6.660480984E-03 2.933758060E-01
 8.322842717E-01 -5.395039450E-03 3.094841028E-01
 8.448143303E-01 -4.161607591E-03 3.253204586E-01
 8.570211530E-01 -3.043336910E-03 3.416919778E-01
 8.689410686E-01 -2.053882170E-03 3.543673030E-01
 8.805776536E-01 -1.184798515E-03 3.658023860E-01
 8.929669857E-01 -3.892872194E-04 3.766209130E-01
 9.148052633E-01 6.857693515E-04 3.920465178E-01
 9.444079101E-01 1.390971011E-03 3.944213542E-01
 9.565263987E-01 1.440223306E-03 3.948468824E-01
 9.697880149E-01 1.341775642E-03 3.959767037E-01
 9.828652442E-01 1.095529093E-03 4.074744471E-01
 9.943490028E-01 7.265799213E-04 4.644003889E-01
 -5.000000000E-01 9.500000000E-01 2.376357493E-02
 -5.000000000E-01 9.000000000E-01 3.597971995E-02
 -5.000000000E-01 8.500000000E-01 4.504816720E-02
 -5.000000000E-01 8.000000000E-01 5.333879433E-02
 -5.000000000E-01 7.500000000E-01 6.122948435E-02
 -5.000000000E-01 7.000000000E-01 6.908768259E-02
 -5.000000000E-01 6.500000000E-01 7.703421420E-02
 -5.000000000E-01 6.000000000E-01 8.515114185E-02
 -5.000000000E-01 5.500000000E-01 9.355713167E-02
 -5.000000000E-01 5.000000000E-01 1.021548095E-01
 -5.000000000E-01 4.500000000E-01 1.108583521E-01
 -5.000000000E-01 4.000000000E-01 1.196301632E-01
 -5.000000000E-01 3.500000000E-01 1.282414511E-01
 -5.000000000E-01 3.000000000E-01 1.364493438E-01
 -5.000000000E-01 2.500000000E-01 1.442688938E-01
 -5.000000000E-01 2.000000000E-01 1.510337900E-01
 -5.000000000E-01 1.500000000E-01 1.566811444E-01
 -5.000000000E-01 1.000000000E-01 1.609964285E-01
 -5.000000000E-01 5.000000000E-02 1.637336336E-01
 -5.000000000E-01 2.752242878E-12 1.647194927E-01
 -5.000000000E-01 -5.000000000E-02 1.639590623E-01
 -5.000000000E-01 -1.000000000E-01 1.613564154E-01
 -5.000000000E-01 -1.500000000E-01 1.574462402E-01
 -5.000000000E-01 -2.000000000E-01 1.520347915E-01
 -5.000000000E-01 -2.500000000E-01 1.455060939E-01
 -5.000000000E-01 -3.000000000E-01 1.382028383E-01
 -5.000000000E-01 -3.500000000E-01 1.302521832E-01
 -5.000000000E-01 -4.000000000E-01 1.221204033E-01
 -5.000000000E-01 -4.500000000E-01 1.136055198E-01
 -5.000000000E-01 -5.000000000E-01 1.052277372E-01
 -5.000000000E-01 -5.500000000E-01 9.687180056E-02
 -5.000000000E-01 -6.000000000E-01 8.875631236E-02
 -5.000000000E-01 -6.500000000E-01 8.073197520E-02
 -5.000000000E-01 -7.000000000E-01 7.283490969E-02
 -5.000000000E-01 -7.500000000E-01 6.495863285E-02
 -5.000000000E-01 -8.000000000E-01 5.671927678E-02
 -5.000000000E-01 -8.500000000E-01 4.836703106E-02
 -5.000000000E-01 -9.000000000E-01 3.844864638E-02
 -5.000000000E-01 -9.500000000E-01 2.542165197E-02
 -4.500000000E-01 -1.000000000E+00 2.112502084E-02
 -4.000000000E-01 -1.000000000E+00 3.135632551E-02
 -3.500000000E-01 -1.000000000E+00 3.789172425E-02
 -3.000000000E-01 -1.000000000E+00 4.208496442E-02
 -2.500000000E-01 -1.000000000E+00 4.475982060E-02
 -2.000000000E-01 -1.000000000E+00 4.591592631E-02
 -1.500000000E-01 -1.000000000E+00 4.556705074E-02
 -1.000000000E-01 -1.000000000E+00 4.374698211E-02
 -5.000000000E-02 -1.000000000E+00 4.040015000E-02
 -9.424683256E-13 -1.000000000E+00 3.576598549E-02
 5.000000000E-02 -1.000000000E+00 2.990596479E-02
 1.000000000E-01 -1.000000000E+00 2.309161917E-02
 1.500000000E-01 -1.000000000E+00 1.549933693E-02
 2.000000000E-01 -1.000000000E+00 7.420880377E-03
 2.500000000E-01 -1.000000000E+00 -8.645784883E-04
 3.000000000E-01 -1.000000000E+00 -8.564565794E-03
 3.500000000E-01 -1.000000000E+00 -1.525923286E-02
 4.000000000E-01 -1.000000000E+00 -2.084813104E-02
 4.500000000E-01 -1.000000000E+00 -2.491376990E-02
 5.000000000E-01 -1.000000000E+00 -2.739081956E-02
 5.500000000E-01 -1.000000000E+00 -2.793887223E-02
 6.000000000E-01 -1.000000000E+00 -2.689012735E-02
 6.500000000E-01 -1.000000000E+00 -2.418463151E-02
 7.000000000E-01 -1.000000000E+00 -2.014655740E-02
 7.500000000E-01 -1.000000000E+00 -1.490371938E-02
 8.000000000E-01 -1.000000000E+00 -8.929551693E-03
 8.500000000E-01 -1.000000000E+00 -2.446019523E-03
 9.000000000E-01 -1.000000000E+00 4.047261774E-03
 9.500000000E-01 -1.000000000E+00 1.026576630E-02
 1.000000000E+00 -1.000000000E+00 1.639231628E-02
 1.050000000E+00 -1.000000000E+00 2.182269615E-02
 1.100000000E+00 -1.000000000E+00 2.668487519E-02
 1.150000000E+00 -1.000000000E+00 3.081487740E-02
 1.200000000E+00 -1.000000000E+00 3.427064136E-02
 1.250000000E+00 -1.000000000E+00 3.706526365E-02
 1.300000000E+00 -1.000000000E+00 3.919206890E-02
 1.350000000E+00 -1.000000000E+00 4.068280180E-02
 1.400000000E+00 -1.000000000E+00 4.171417987E-02
 1.450000000E+00 -1.000000000E+00 4.223506524E-02
 1.500000000E+00 -1.000000000E+00 4.242964684E-02
 1.550000000E+00 -1.000000000E+00 4.225836417E-02
 1.600000000E+00 -1.000000000E+00 4.185639870E-02
 1.650000000E+00 -1.000000000E+00 4.121112056E-02
 1.700000000E+00 -1.000000000E+00 4.041676376E-02
 1.750000000E+00 -1.000000000E+00 3.945430459E-02
 1.800000000E+00 -1.000000000E+00 3.848602736E-02
 1.850000000E+00 -1.000000000E+00 3.732381615E-02
 1.900000000E+00 -1.000000000E+00 3.622279687E-02
 1.950000000E+00 -1.000000000E+00 3.505964618E-02
 2.000000000E+00 -1.000000000E+00 3.385850407E-02
 2.050000000E+00 -1.000000000E+00 3.273165400E-02
 2.100000000E+00 -1.000000000E+00 3.159061923E-02
 2.150000000E+00 -1.000000000E+00 3.047046845E-02
 2.200000000E+00 -1.000000000E+00 2.937547745E-02
 2.250000000E+00 -1.000000000E+00 2.832213689E-02
 2.300000000E+00 -1.000000000E+00 2.733063266E-02
 2.350000000E+00 -1.000000000E+00 2.637141065E-02
 2.400000000E+00 -1.000000000E+00 2.549497466E-02
 2.450000000E+00 -1.000000000E+00 2.460543792E-02
 2.500000000E+00 -1.000000000E+00 2.380207119E-02
 2.550000000E+00 -1.000000000E+00 2.305401036E-02
 2.600000000E+00 -1.000000000E+00 2.231068861E-02
 2.650000000E+00 -1.000000000E+00 2.169844927E-02
 2.700000000E+00 -1.000000000E+00 2.107368048E-02
 2.750000000E+00 -1.000000000E+00 2.051028439E-02
 2.800000000E+00 -1.000000000E+00 2.002484768E-02
 2.850000000E+00 -1.000000000E+00 1.957759249E-02
 2.900000000E+00 -1.000000000E+00 1.914921343E-02
 2.950000000E+00 -1.000000000E+00 1.876982060E-02
 3.000000000E+00 -1.000000000E+00 1.842054304E-02
 3.050000000E+00 -1.000000000E+00 1.811668795E-02
 3.100000000E+00 -1.000000000E+00 1.777318197E-02
 3.150000000E+00 -1.000000000E+00 1.748483959E-02
 3.200000000E+00 -1.000000000E+00 1.709294076E-02
 3.250000000E+00 -1.000000000E+00 1.668466835E-02
 3.300000000E+00 -1.000000000E+00 1.615647387E-02
 3.350000000E+00 -1.000000000E+00 1.537925134E-02
 3.400000000E+00 -1.000000000E+00 1.408563499E-02
 3.450000000E+00 -1.000000000E+00 1.137794670E-02
 3.500000000E+00 -9.500000000E-01 5.881774176E-03
 3.500000000E+00 -9.000000000E-01 7.150021858E-03
 3.500000000E+00 -8.500000000E-01 8.519629098E-03
 3.500000000E+00 -8.000000000E-01 1.001459193E-02
 3.500000000E+00 -7.500000000E-01 1.133963922E-02
 3.500000000E+00 -7.000000000E-01 1.271760457E-02
 3.500000000E+00 -6.500000000E-01 1.402241033E-02
 3.500000000E+00 -6.000000000E-01 1.541073077E-02
 3.500000000E+00 -5.500000000E-01 1.680710364E-02
 3.500000000E+00 -5.000000000E-01 1.825329592E-02
 3.500000000E+00 -4.500000000E-01 1.972901108E-02
 3.500000000E+00 -4.000000000E-01 2.120581690E-02
 3.500000000E+00 -3.500000000E-01 2.267110228E-02
 3.500000000E+00 -3.000000000E-01 2.403509784E-02
 3.500000000E+00 -2.500000000E-01 2.505741687E-02
 3.500000000E+00 -2.000000000E-01 2.554345873E-02
 3.500000000E+00 -1.500000000E-01 2.536590298E-02
 3.500000000E+00 -1.000000000E-01 2.490346675E-02
 3.500000000E+00 -5.000000000E-02 2.458892273E-02
 3.500000000E+00 -2.752242878E-12 2.468995098E-02
 3.500000000E+00 5.000000000E-02 2.511920941E-02
 3.500000000E+00 1.000000000E-01 2.524037566E-02
 3.500000000E+00 1.500000000E-01 2.485215886E-02
 3.500000000E+00 2.000000000E-01 2.382692660E-02
 3.500000000E+00 2.500000000E-01 2.227196882E-02
 3.500000000E+00 3.000000000E-01 2.072517823E-02
 3.500000000E+00 3.500000000E-01 1.925070511E-02
 3.500000000E+00 4.000000000E-01 1.781718492E-02
 3.500000000E+00 4.500000000E-01 1.628420249E-02
 3.500000000E+00 5.000000000E-01 1.462717910E-02
 3.500000000E+00 5.500000000E-01 1.318316082E-02
 3.500000000E+00 6.000000000E-01 1.229340519E-02
 3.500000000E+00 6.500000000E-01 1.205773314E-02
 3.500000000E+00 7.000000000E-01 1.135180172E-02
 3.500000000E+00 7.500000000E-01 8.657219815E-03
 3.500000000E+00 8.000000000E-01 2.052535190E-03
 3.500000000E+00 8.500000000E-01 -9.230215405E-03
 3.500000000E+00 9.000000000E-01 -2.290412403E-02
 3.500000000E+00 9.500000000E-01 -3.656308843E-02
 3.450000000E+00 1.000000000E+00 -1.659707409E-02
 3.400000000E+00 1.000000000E+00 -6.634572418E-03
 3.350000000E+00 1.000000000E+00 -2.805698616E-03
 3.300000000E+00 1.000000000E+00 -2.166621601E-03
 3.250000000E+00 1.000000000E+00 -1.999016108E-03
 3.200000000E+00 1.000000000E+00 -2.341233119E-03
 3.150000000E+00 1.000000000E+00 -3.070672852E-03
 3.100000000E+00 1.000000000E+00 -3.973405410E-03
 3.050000000E+00 1.000000000E+00 -5.006590368E-03
 3.000000000E+00 1.000000000E+00 -5.877800687E-03
 2.950000000E+00 1.000000000E+00 -6.805750989E-03
 2.900000000E+00 1.000000000E+00 -7.859960416E-03
 2.850000000E+00 1.000000000E+00 -8.934817588E-03
 2.800000000E+00 1.000000000E+00 -9.969478753E-03
 2.750000000E+00 1.000000000E+00 -1.137797343E-02
 2.700000000E+00 1.000000000E+00 -1.264789373E-02
 2.650000000E+00 1.000000000E+00 -1.365134239E-02
 2.600000000E+00 1.000000000E+00 -1.522520058E-02
 2.550000000E+00 1.000000000E+00 -1.661956613E-02
 2.500000000E+00 1.000000000E+00 -1.799178563E-02
 2.450000000E+00 1.000000000E+00 -1.957715373E-02
 2.400000000E+00 1.000000000E+00 -2.097229769E-02
 2.350000000E+00 1.000000000E+00 -2.271614336E-02
 2.300000000E+00 1.000000000E+00 -2.467410481E-02
 2.250000000E+00 1.000000000E+00 -2.625612321E-02
 2.200000000E+00 1.000000000E+00 -2.847354524E-02
 2.150000000E+00 1.000000000E+00 -3.080210731E-02
 2.100000000E+00 1.000000000E+00 -3.276967659E-02
 2.050000000E+00 1.000000000E+00 -3.535992883E-02
 2.000000000E+00 1.000000000E+00 -3.777987851E-02
 1.950000000E+00 1.000000000E+00 -4.059153332E-02
 1.900000000E+00 1.000000000E+00 -4.346699936E-02
 1.850000000E+00 1.000000000E+00 -4.692800131E-02
 1.800000000E+00 1.000000000E+00 -5.021152454E-02
 1.750000000E+00 1.000000000E+00 -5.465289460E-02
 1.700000000E+00 1.000000000E+00 -5.829630012E-02
 1.650000000E+00 1.000000000E+00 -6.313450014E-02
 1.600000000E+00 1.000000000E+00 -6.739530052E-02
 1.550000000E+00 1.000000000E+00 -7.356627580E-02
 1.500000000E+00 1.000000000E+00 -7.861922304E-02
 1.450000000E+00 1.000000000E+00 -8.557299982E-02
 1.400000000E+00 1.000000000E+00 -9.175760998E-02
 1.350000000E+00 1.000000000E+00 -9.973898542E-02
 1.300000000E+00 1.000000000E+00 -1.059967800E-01
 1.250000000E+00 1.000000000E+00 -1.156693905E-01
 1.200000000E+00 1.000000000E+00 -1.231678133E-01
 1.150000000E+00 1.000000000E+00 -1.316196719E-01
 1.100000000E+00 1.000000000E+00 -1.398768741E-01
 1.050000000E+00 1.000000000E+00 -1.482214784E-01
 1.000000000E+00 1.000000000E+00 -1.546680272E-01
 9.500000000E-01 1.000000000E+00 -1.609385486E-01
 9.000000000E-01 1.000000000E+00 -1.655857520E-01
 8.500000000E-01 1.000000000E+00 -1.678830174E-01
 8.000000000E-01 1.000000000E+00 -1.683562362E-01
 7.500000000E-01 1.000000000E+00 -1.663362306E-01
 7.000000000E-01 1.000000000E+00 -1.609826953E-01
 6.500000000E-01 1.000000000E+00 -1.542607157E-01
 6.000000000E-01 1.000000000E+00 -1.442614036E-01
 5.500000000E-01 1.000000000E+00 -1.325562396E-01
 5.000000000E-01 1.000000000E+00 -1.185046672E-01
 4.500000000E-01 1.000000000E+00 -1.034532933E-01
 4.000000000E-01 1.000000000E+00 -8.745728795E-02
 3.500000000E-01 1.000000000E+00 -7.108524667E-02
 3.000000000E-01 1.000000000E+00 -5.484278102E-02
 2.500000000E-01 1.000000000E+00 -3.942772549E-02
 2.000000000E-01 1.000000000E+00 -2.438694511E-02
 1.500000000E-01 1.000000000E+00 -1.020187963E-02
 1.000000000E-01 1.000000000E+00 2.170675776E-03
 5.000000000E-02 1.000000000E+00 1.299703934E-02
 1.733724275E-12 1.000000000E+00 2.224009079E-02
 -5.000000000E-02 1.000000000E+00 2.940895970E-02
 -1.000000000E-01 1.000000000E+00 3.494440919E-02
 -1.500000000E-01 1.000000000E+00 3.840316450E-02
 -2.000000000E-01 1.000000000E+00 4.012243580E-02
 -2.500000000E-01 1.000000000E+00 4.004814042E-02
 -3.000000000E-01 1.000000000E+00 3.829165059E-02
 -3.500000000E-01 1.000000000E+00 3.481307490E-02
 -4.000000000E-01 1.000000000E+00 2.902325973E-02
 -4.500000000E-01 1.000000000E+00 1.955598023E-02
 8.904814113E-01 -6.757729749E-03 3.667206413E-01
 9.853401369E-01 -3.949305022E-03 4.061402068E-01
 8.124502009E-01 -1.231762123E-02 2.808190872E-01
 7.443500681E-01 -2.128405415E-02 1.828888431E-01
 6.729592417E-01 -3.016498395E-02 7.876890583E-02
 6.025069815E-01 -4.000913677E-02 -5.269546148E-02
 5.396506156E-01 -4.908658959E-02 -2.020051936E-01
 4.748391938E-01 -5.653827397E-02 -3.960919149E-01
 4.182537656E-01 -6.093353468E-02 -5.600839037E-01
 3.599298028E-01 -6.213781048E-02 -6.481567643E-01
 3.013211720E-01 -6.172514341E-02 -5.725255875E-01