TITLE     = "Visualization of the solution"
VARIABLES = "x"
"y"
"Pressure_Coefficient"
ZONE T="Zone"
 STRANDID=0, SOLUTIONTIME=0
 Nodes=11945, Elements=23308, ZONETYPE=FEQuadrilateral
 DATAPACKING=POINT
 DT=(DOUBLE DOUBLE DOUBLE )
 9.998877645E-01 5.135522224E-04 3.467231518E-01
 9.883763790E-01 2.827363322E-03 2.607131962E-01
 9.760368466E-01 5.282930564E-03 1.786568837E-01
 9.595817327E-01 8.476071991E-03 1.194033577E-01
 9.444100261E-01 1.138832234E-02 8.633971339E-02
 9.299565554E-01 1.428926177E-02 2.001623698E-02
 9.181805849E-01 1.655407622E-02 -6.966705217E-03
 9.061799645E-01 1.886769198E-02 -4.058710198E-02
 8.948119283E-01 2.107749507E-02 -9.768054296E-02
 8.825930953E-01 2.327484824E-02 -1.011066361E-01
 8.706132174E-01 2.548629418E-02 -1.518409276E-01
 8.581193686E-01 2.766090818E-02 -1.720717327E-01
 8.453577757E-01 2.979718894E-02 -1.790227280E-01
 8.345733881E-01 3.162663430E-02 -2.143670615E-01
 8.229179382E-01 3.352464363E-02 -2.324097634E-01
 8.103099465E-01 3.552320227E-02 -2.489766422E-01
 7.974370718E-01 3.751580045E-02 -2.627034706E-01
 7.849687934E-01 3.943042457E-02 -2.887546907E-01
 7.728739381E-01 4.126881063E-02 -3.251817476E-01
 7.608371973E-01 4.298703745E-02 -3.248780332E-01
 7.477326989E-01 4.486377537E-02 -3.551064092E-01
 7.340084910E-01 4.676772282E-02 -3.815384270E-01
 7.233539820E-01 4.818651453E-02 -3.928542680E-01
 7.123453617E-01 4.964857548E-02 -4.202697748E-01
 7.007055879E-01 5.111571401E-02 -4.301457295E-01
 6.873109341E-01 5.280056596E-02 -4.718193424E-01
 6.743939519E-01 5.432288349E-02 -4.935591229E-01
 6.643646955E-01 5.546637997E-02 -4.978830063E-01
 6.528999209E-01 5.671770871E-02 -5.178442690E-01
 6.415060163E-01 5.796579644E-02 -5.660030754E-01
 6.295872331E-01 5.914377049E-02 -5.647629978E-01
 6.182550192E-01 6.023309007E-02 -5.999285193E-01
 6.077334881E-01 6.121069565E-02 -5.913599177E-01
 5.950658321E-01 6.226276234E-02 -5.419268825E-01
 5.836299062E-01 6.318110973E-02 -6.909174515E-01
 5.702849627E-01 6.416866183E-02 -8.611655322E-01
 5.579040051E-01 6.497906893E-02 -8.534178446E-01
 5.457824469E-01 6.571764499E-02 -8.383358214E-01
 5.348942876E-01 6.630195677E-02 -8.268928358E-01
 5.233978033E-01 6.687370688E-02 -8.233663705E-01
 5.110240579E-01 6.741148233E-02 -8.016674227E-01
 4.996914864E-01 6.781060249E-02 -7.727237087E-01
 4.864585698E-01 6.819805503E-02 -7.729944375E-01
 4.730820358E-01 6.854410470E-02 -7.571750306E-01
 4.589050114E-01 6.876252592E-02 -7.222775693E-01
 4.454237521E-01 6.889715046E-02 -7.228546853E-01
 4.325783253E-01 6.895257533E-02 -7.257753288E-01
 4.198538959E-01 6.894689053E-02 -7.238031009E-01
 4.075700045E-01 6.886930019E-02 -6.942793749E-01
 3.951689899E-01 6.869057566E-02 -6.603154463E-01
 3.829416335E-01 6.846820563E-02 -6.554069350E-01
 3.715137541E-01 6.820228696E-02 -6.414125778E-01
 3.583881557E-01 6.781910360E-02 -6.273921421E-01
 3.457676470E-01 6.738925725E-02 -6.150679225E-01
 3.327978551E-01 6.686186790E-02 -6.035647553E-01
 3.218246400E-01 6.636989117E-02 -5.927500668E-01
 3.090226948E-01 6.571032107E-02 -5.734161634E-01
 2.958637774E-01 6.496719271E-02 -5.630301039E-01
 2.819792330E-01 6.409189850E-02 -5.508061044E-01
 2.695741057E-01 6.322130561E-02 -5.340921277E-01
 2.578209937E-01 6.233259663E-02 -5.182722933E-01
 2.454419434E-01 6.131672859E-02 -5.006766636E-01
 2.331379205E-01 6.023830175E-02 -4.909064967E-01
 2.208248824E-01 5.907747522E-02 -4.773735979E-01
 2.091580331E-01 5.788540840E-02 -4.589997792E-01
 1.975272894E-01 5.663427338E-02 -4.467232164E-01
 1.851704866E-01 5.519383028E-02 -4.256427606E-01
 1.734692305E-01 5.375672132E-02 -4.144921880E-01
 1.621640921E-01 5.226016045E-02 -3.911260978E-01
 1.502611339E-01 5.059432983E-02 -3.763785994E-01
 1.396741420E-01 4.900929332E-02 -3.530878457E-01
 1.281314939E-01 4.718210548E-02 -3.336228536E-01
 1.168825701E-01 4.527752474E-02 -3.145463660E-01
 1.063408479E-01 4.338052496E-02 -2.863772007E-01
 9.645947069E-02 4.147391394E-02 -2.650655627E-01
 8.547008783E-02 3.921430930E-02 -2.327334483E-01
 7.373832166E-02 3.661044687E-02 -2.041474874E-01
 6.378350407E-02 3.420396522E-02 -1.678592239E-01
 5.380969122E-02 3.158784658E-02 -1.199917005E-01
 4.505150393E-02 2.907418087E-02 -8.113829214E-02
 3.762258962E-02 2.674325556E-02 -3.637292011E-02
 3.096804209E-02 2.447103336E-02 1.280035260E-02
 2.528478019E-02 2.233462781E-02 5.850552989E-02
 2.116301283E-02 2.065322921E-02 1.064814436E-01
 1.720151864E-02 1.889692247E-02 1.533936503E-01
 1.414175890E-02 1.741219498E-02 2.111507572E-01
 1.134074293E-02 1.593230851E-02 2.621001186E-01
 9.253076278E-03 1.473861095E-02 3.104647386E-01
 7.456067484E-03 1.361484360E-02 3.574979789E-01
 5.817057099E-03 1.249916013E-02 4.384419214E-01
 3.670458915E-03 1.084955037E-02 5.455064681E-01
 1.778940903E-03 9.123205207E-03 6.329324884E-01
 2.144440077E-04 7.334043738E-03 8.537551518E-01
 -1.298180316E-03 4.817938898E-03 1.059403591E+00
 -1.893633045E-03 2.941848710E-03 1.170989942E+00
 -2.042622771E-03 1.472371980E-03 1.188015013E+00
 -1.894645742E-03 -1.069965001E-04 1.142242223E+00
 -1.436151098E-03 -1.674436382E-03 1.019546251E+00
 -4.641345877E-04 -3.559770063E-03 8.392657913E-01
 9.588311077E-04 -5.451915786E-03 6.374958368E-01
 2.920937026E-03 -7.414818741E-03 4.688123001E-01
 4.719312768E-03 -8.884569630E-03 3.301822480E-01
 6.737930700E-03 -1.031227782E-02 2.473077482E-01
 8.347379044E-03 -1.132910512E-02 1.692415398E-01
 1.041375939E-02 -1.251746621E-02 1.211360967E-01
 1.278251130E-02 -1.375295687E-02 6.583846926E-02
 1.606565900E-02 -1.529687084E-02 1.441422415E-02
 1.898326166E-02 -1.653920114E-02 -3.962049700E-02
 2.278292365E-02 -1.802167483E-02 -7.206813718E-02
 2.809376642E-02 -1.989011280E-02 -1.070589116E-01
 3.388760984E-02 -2.171737328E-02 -1.458463729E-01
 4.095937684E-02 -2.372485213E-02 -1.722352865E-01
 4.853538796E-02 -2.566282824E-02 -1.927588240E-01
 5.755629018E-02 -2.776368894E-02 -2.099985821E-01
 6.634156406E-02 -2.963460796E-02 -2.315717547E-01
 7.654350251E-02 -3.162663803E-02 -2.446723558E-01
 8.653501421E-02 -3.343415260E-02 -2.564960971E-01
 9.682121128E-02 -3.517400473E-02 -2.723293815E-01
 1.078577861E-01 -3.691388294E-02 -2.841460326E-01
 1.191635802E-01 -3.858256713E-02 -2.965171782E-01
 1.308527291E-01 -4.020496830E-02 -3.110173722E-01
 1.415126026E-01 -4.159487039E-02 -3.237782874E-01
 1.527069062E-01 -4.297963157E-02 -3.372731917E-01
 1.649183035E-01 -4.440216720E-02 -3.529056456E-01
 1.767134517E-01 -4.569451138E-02 -3.698103516E-01
 1.885790676E-01 -4.691240564E-02 -3.842781546E-01
 1.993504465E-01 -4.795220122E-02 -3.996910823E-01
 2.107707858E-01 -4.899016768E-02 -4.165007803E-01
 2.231242657E-01 -5.003510788E-02 -4.351207311E-01
 2.357685417E-01 -5.101413652E-02 -4.514704255E-01
 2.481931597E-01 -5.189890414E-02 -4.718507855E-01
 2.606456876E-01 -5.270123109E-02 -4.936481872E-01
 2.717731893E-01 -5.334043875E-02 -5.131360035E-01
 2.844089568E-01 -5.397536606E-02 -5.279458808E-01
 2.968808711E-01 -5.452192575E-02 -5.564746961E-01
 3.097026646E-01 -5.496227741E-02 -5.737637463E-01
 3.214547336E-01 -5.526812002E-02 -5.828314028E-01
 3.340785801E-01 -5.551055074E-02 -6.029894161E-01
 3.450650573E-01 -5.562367290E-02 -6.259776417E-01
 3.564606905E-01 -5.563542619E-02 -6.270616187E-01
 3.672918379E-01 -5.556115136E-02 -6.285356673E-01
 3.779809773E-01 -5.539296940E-02 -6.224562954E-01
 3.896083534E-01 -5.511980504E-02 -6.200990275E-01
 4.027316272E-01 -5.465917289E-02 -5.986817433E-01
 4.152131677E-01 -5.407678336E-02 -5.583930919E-01
 4.280579686E-01 -5.338091776E-02 -5.403654010E-01
 4.403980970E-01 -5.255796388E-02 -5.039234930E-01
 4.524090588E-01 -5.166037381E-02 -4.695485450E-01
 4.642000496E-01 -5.066890642E-02 -4.354179172E-01
 4.764350355E-01 -4.952752963E-02 -3.899795200E-01
 4.878593683E-01 -4.838933423E-02 -3.556131096E-01
 5.006518364E-01 -4.703802615E-02 -3.231185832E-01
 5.142779946E-01 -4.546793178E-02 -2.705689008E-01
 5.277249217E-01 -4.387185723E-02 -2.359130763E-01
 5.411816835E-01 -4.221509770E-02 -2.063633522E-01
 5.536972284E-01 -4.057230055E-02 -1.566374278E-01
 5.670852065E-01 -3.883928061E-02 -1.345424170E-01
 5.801061988E-01 -3.710428998E-02 -1.084197154E-01
 5.917929411E-01 -3.547355905E-02 -6.628466721E-02
 6.043838263E-01 -3.375827521E-02 -4.679188875E-02
 6.188293099E-01 -3.176460415E-02 -1.863696871E-02
 6.332593560E-01 -2.974058315E-02 1.570201554E-02
 6.484276652E-01 -2.766087651E-02 3.525486248E-02
 6.614637375E-01 -2.585767955E-02 5.874174956E-02
 6.748057604E-01 -2.400291152E-02 8.561081711E-02
 6.872432232E-01 -2.230258845E-02 1.056594332E-01
 6.997668147E-01 -2.062458545E-02 1.208257698E-01
 7.142196894E-01 -1.867860742E-02 1.475260617E-01
 7.275407910E-01 -1.695048623E-02 1.602160431E-01
 7.395178676E-01 -1.540068910E-02 1.781825831E-01
 7.524803281E-01 -1.372376364E-02 2.035796343E-01
 7.648763657E-01 -1.221296564E-02 2.105897164E-01
 7.775261402E-01 -1.062760595E-02 2.431964820E-01
 7.896879315E-01 -9.236781858E-03 2.474036988E-01
 8.024287224E-01 -7.782525849E-03 2.680306944E-01
 8.133902550E-01 -6.587254349E-03 2.817414760E-01
 8.247879744E-01 -5.374164321E-03 3.020253226E-01
 8.377854824E-01 -4.106579348E-03 3.136661846E-01
 8.501681685E-01 -2.967295237E-03 3.310817001E-01
 8.624441624E-01 -1.943821087E-03 3.434262980E-01
 8.743101358E-01 -1.063222648E-03 3.531474495E-01
 8.859424591E-01 -2.780424256E-04 3.678717841E-01
 8.990542889E-01 4.457357863E-04 3.744062240E-01
 9.093574882E-01 8.996349643E-04 3.804387678E-01
 9.196777940E-01 1.258123782E-03 3.842447028E-01
 9.291428924E-01 1.491151401E-03 3.852153126E-01
 9.377050400E-01 1.627238351E-03 3.874826026E-01
 9.492698908E-01 1.700696419E-03 3.852311016E-01
 9.618074298E-01 1.644043834E-03 3.849279974E-01
 9.760503173E-01 1.405107556E-03 3.857363465E-01
 9.883363247E-01 1.035508467E-03 3.926039495E-01
 -5.000000000E-01 -1.000000000E+00 1.511509905E-02
 3.500000000E+00 -1.000000000E+00 7.592864539E-03
 3.500000000E+00 1.000000000E+00 -3.061344322E-02
 -5.000000000E-01 1.000000000E+00 1.402751631E-02
 9.941320717E-01 1.670457772E-03 3.511732205E-01
 9.822066128E-01 4.055146943E-03 2.148130525E-01
 9.678092897E-01 6.879501278E-03 1.461736303E-01
 9.519958794E-01 9.932197165E-03 1.064965777E-01
 9.371832907E-01 1.283879206E-02 4.794394383E-02
 9.240685701E-01 1.542166900E-02 6.824808509E-03
 9.121802747E-01 1.771088410E-02 -1.997997921E-02
 9.004959464E-01 1.997259352E-02 -7.916044533E-02
 8.887025118E-01 2.217617165E-02 -9.198403529E-02
 8.766031563E-01 2.438057121E-02 -1.306705370E-01
 8.643662930E-01 2.657360118E-02 -1.647261729E-01
 8.517385721E-01 2.872904856E-02 -1.704301392E-01
 8.399655819E-01 3.071191162E-02 -1.998775002E-01
 8.287456632E-01 3.257563896E-02 -2.238574267E-01
 8.166139424E-01 3.452392295E-02 -2.408480105E-01
 8.038735092E-01 3.651950136E-02 -2.546566640E-01
 7.912029326E-01 3.847311251E-02 -2.729642288E-01
 7.789213657E-01 4.034961760E-02 -3.135808268E-01
 7.668555677E-01 4.212792404E-02 -3.210202866E-01
 7.542849481E-01 4.392540641E-02 -3.397099039E-01
 7.408705950E-01 4.581574909E-02 -3.709831256E-01
 7.286812365E-01 4.747711867E-02 -3.825084743E-01
 7.178496718E-01 4.891754501E-02 -4.124476652E-01
 7.065254748E-01 5.038214475E-02 -4.188897752E-01
 6.940082610E-01 5.195813999E-02 -4.555456384E-01
 6.808524430E-01 5.356172472E-02 -4.808302146E-01
 6.586323082E-01 5.609204434E-02 -4.978582323E-01
 6.472029686E-01 5.734175257E-02 -5.538952393E-01
 6.355466247E-01 5.855478346E-02 -5.605069183E-01
 6.239211261E-01 5.968843028E-02 -5.793252527E-01
 6.129942536E-01 6.072189286E-02 -6.126766218E-01
 6.013996601E-01 6.173672900E-02 -5.533331979E-01
 5.893478692E-01 6.272193603E-02 -5.841604111E-01
 5.769574344E-01 6.367488578E-02 -8.070775337E-01
 5.640944839E-01 6.457386538E-02 -8.625122576E-01
 5.518432260E-01 6.534835696E-02 -8.468417483E-01
 5.403383672E-01 6.600980088E-02 -8.284851353E-01
 5.291460454E-01 6.658783183E-02 -8.282723906E-01
 5.172109306E-01 6.714259461E-02 -8.152245529E-01
 5.053577721E-01 6.761104241E-02 -7.848690914E-01
 4.930750281E-01 6.800432876E-02 -7.683001027E-01
 4.797703028E-01 6.837107986E-02 -7.755614649E-01
 4.659935236E-01 6.865331531E-02 -7.327849619E-01
 4.521643817E-01 6.882983819E-02 -7.211112853E-01
 4.390010387E-01 6.892486289E-02 -7.237962830E-01
 4.262161106E-01 6.894973293E-02 -7.271153505E-01
 4.137119502E-01 6.890809536E-02 -7.139933586E-01
 4.013694972E-01 6.877993792E-02 -6.716816693E-01
 3.890553117E-01 6.857939065E-02 -6.569886010E-01
 3.772276938E-01 6.833524629E-02 -6.511751506E-01
 3.649509549E-01 6.801069528E-02 -6.322031557E-01
 3.520779014E-01 6.760418043E-02 -6.235748967E-01
 3.392827511E-01 6.712556258E-02 -6.057411829E-01
 3.273112476E-01 6.661587954E-02 -6.021044474E-01
 3.154236674E-01 6.604010612E-02 -5.813568804E-01
 3.024432361E-01 6.533875689E-02 -5.689000027E-01
 2.889215052E-01 6.452954561E-02 -5.576372955E-01
 2.757766694E-01 6.365660205E-02 -5.409712573E-01
 2.636975497E-01 6.277695112E-02 -5.275789350E-01
 2.516314685E-01 6.182466261E-02 -5.085164881E-01
 2.392899320E-01 6.077751517E-02 -4.956074209E-01
 2.269814014E-01 5.965788849E-02 -4.861416842E-01
 2.149914578E-01 5.848144181E-02 -4.653422705E-01
 2.033426613E-01 5.725984089E-02 -4.564889661E-01
 1.913488880E-01 5.591405183E-02 -4.334647100E-01
 1.793198586E-01 5.447527580E-02 -4.221661401E-01
 1.678166613E-01 5.300844088E-02 -4.022527298E-01
 1.562126130E-01 5.142724514E-02 -3.838070836E-01
 1.449676380E-01 4.980181158E-02 -3.649817763E-01
 1.339028180E-01 4.809569940E-02 -3.442747263E-01
 1.225070320E-01 4.622981511E-02 -3.221355888E-01
 1.116117090E-01 4.432902485E-02 -3.065701115E-01
 9.096477926E-02 4.034411162E-02 -2.517898959E-01
 7.960420474E-02 3.791237809E-02 -2.170994754E-01
 6.876091287E-02 3.540720604E-02 -1.863698061E-01
 5.879659764E-02 3.289590590E-02 -1.513459824E-01
 7.144253328E-02 -3.063062299E-02 -2.422391288E-01
 8.153925836E-02 -3.253039531E-02 -2.508633333E-01
 9.167811275E-02 -3.430407867E-02 -2.645066119E-01
 1.023394987E-01 -3.604394384E-02 -2.783063461E-01
 1.135106832E-01 -3.774822503E-02 -2.906474120E-01
 1.250081547E-01 -3.939376771E-02 -3.033477505E-01
 1.361826658E-01 -4.089991935E-02 -3.191728022E-01
 1.471097544E-01 -4.228725098E-02 -3.294338241E-01
 1.588126048E-01 -4.369089939E-02 -3.445544535E-01
 1.708158776E-01 -4.504833929E-02 -3.617396527E-01
 1.826462597E-01 -4.630345851E-02 -3.772594714E-01
 1.939647570E-01 -4.743230343E-02 -3.924753749E-01
 2.050606161E-01 -4.847118445E-02 -4.069994316E-01
 2.169475257E-01 -4.951263778E-02 -4.253700743E-01
 2.294464037E-01 -5.052462220E-02 -4.437443315E-01
 2.419808507E-01 -5.145652033E-02 -4.609514542E-01
 2.544194236E-01 -5.230006762E-02 -4.826369178E-01
 2.662094384E-01 -5.302083492E-02 -5.047171629E-01
 2.780910730E-01 -5.365790240E-02 -5.194115420E-01
 2.906449139E-01 -5.424864590E-02 -5.404592996E-01
 3.032917678E-01 -5.474210158E-02 -5.676763296E-01
 3.155786991E-01 -5.511519872E-02 -5.795009507E-01
 3.277666569E-01 -5.538933538E-02 -5.893068541E-01
 3.395718187E-01 -5.556711182E-02 -6.173030325E-01
 3.507628739E-01 -5.562954955E-02 -6.287445374E-01
 3.618762642E-01 -5.559828877E-02 -6.269039801E-01
 3.726364076E-01 -5.547706038E-02 -6.272970856E-01
 3.837946653E-01 -5.525638722E-02 -6.189048857E-01
 3.961699903E-01 -5.488948897E-02 -6.122417410E-01
 4.089723974E-01 -5.436797813E-02 -5.810686162E-01
 4.216355681E-01 -5.372885056E-02 -5.442725471E-01
 4.342280328E-01 -5.296944082E-02 -5.282969395E-01
 4.464035779E-01 -5.210916884E-02 -4.839064877E-01
 4.583045542E-01 -5.116464011E-02 -4.542943983E-01
 4.703175426E-01 -5.009821802E-02 -4.135600479E-01
 4.821472019E-01 -4.895843193E-02 -3.717435573E-01
 4.942556024E-01 -4.771368019E-02 -3.387861405E-01
 5.074649155E-01 -4.625297897E-02 -2.999461112E-01
 5.210014582E-01 -4.466989450E-02 -2.504874154E-01
 5.344533026E-01 -4.304347746E-02 -2.211407955E-01
 5.474394560E-01 -4.139369912E-02 -1.858474864E-01
 5.603912175E-01 -3.970579058E-02 -1.408976471E-01
 5.735957026E-01 -3.797178529E-02 -1.230014953E-01
 5.859495699E-01 -3.628892452E-02 -9.035520779E-02
 5.980883837E-01 -3.461591713E-02 -5.332983748E-02
 6.116065681E-01 -3.276143968E-02 -3.386423496E-02
 6.260443330E-01 -3.075259365E-02 -2.140158715E-03
 6.408435106E-01 -2.870072983E-02 2.748406586E-02
 6.549457014E-01 -2.675927803E-02 4.639171848E-02
 6.681347489E-01 -2.493029553E-02 7.128189219E-02
 6.810244918E-01 -2.315274999E-02 9.663562419E-02
 6.935050189E-01 -2.146358695E-02 1.137982377E-01
 7.069932520E-01 -1.965159643E-02 1.322859377E-01
 7.208802402E-01 -1.781454682E-02 1.561600316E-01
 7.335293293E-01 -1.617558766E-02 1.684086313E-01
 7.459990978E-01 -1.456222637E-02 1.893202258E-01
 7.586783469E-01 -1.296836464E-02 2.101573781E-01
 7.712012529E-01 -1.142028579E-02 2.231791018E-01
 7.836070359E-01 -9.932193905E-03 2.490902274E-01
 7.960583270E-01 -8.509653853E-03 2.558589474E-01
 8.079094887E-01 -7.184890099E-03 2.759643490E-01
 8.190891147E-01 -5.980709335E-03 2.903925147E-01
 8.312867284E-01 -4.740371834E-03 3.079172450E-01
 8.439768255E-01 -3.536937293E-03 3.221337411E-01
 8.563061655E-01 -2.455558162E-03 3.373350999E-01
 8.683771491E-01 -1.503521868E-03 3.489151210E-01
 8.801262975E-01 -6.706325366E-04 3.591796985E-01
 8.924983740E-01 8.384668035E-05 3.709995335E-01
 9.042058885E-01 6.726853753E-04 3.796099996E-01
 9.145176411E-01 1.078879373E-03 3.824768995E-01
 9.434874654E-01 1.663967385E-03 3.851897047E-01
 9.555386603E-01 1.672370126E-03 3.843847502E-01
 9.689288735E-01 1.524575695E-03 3.839257172E-01
 9.821933210E-01 1.220308011E-03 3.897472353E-01
 9.941120446E-01 7.745303446E-04 4.354303458E-01
 -5.000000000E-01 9.500000000E-01 2.323475741E-02
 -5.000000000E-01 9.000000000E-01 3.485840288E-02
 -5.000000000E-01 8.500000000E-01 4.401298566E-02
 -5.000000000E-01 8.000000000E-01 5.180346180E-02
 -5.000000000E-01 7.500000000E-01 5.955387467E-02
 -5.000000000E-01 7.000000000E-01 6.727715130E-02
 -5.000000000E-01 6.500000000E-01 7.499720294E-02
 -5.000000000E-01 6.000000000E-01 8.295029153E-02
 -5.000000000E-01 5.500000000E-01 9.108636938E-02
 -5.000000000E-01 5.000000000E-01 9.948685659E-02
 -5.000000000E-01 4.500000000E-01 1.080322321E-01
 -5.000000000E-01 4.000000000E-01 1.165670795E-01
 -5.000000000E-01 3.500000000E-01 1.250396862E-01
 -5.000000000E-01 3.000000000E-01 1.330553512E-01
 -5.000000000E-01 2.500000000E-01 1.405647837E-01
 -5.000000000E-01 2.000000000E-01 1.472314982E-01
 -5.000000000E-01 1.500000000E-01 1.527220426E-01
 -5.000000000E-01 1.000000000E-01 1.569244373E-01
 -5.000000000E-01 5.000000000E-02 1.595043953E-01
 -5.000000000E-01 2.752242878E-12 1.605412363E-01
 -5.000000000E-01 -5.000000000E-02 1.596707819E-01
 -5.000000000E-01 -1.000000000E-01 1.573136094E-01
 -5.000000000E-01 -1.500000000E-01 1.533133655E-01
 -5.000000000E-01 -2.000000000E-01 1.480041554E-01
 -5.000000000E-01 -2.500000000E-01 1.416702491E-01
 -5.000000000E-01 -3.000000000E-01 1.345329672E-01
 -5.000000000E-01 -3.500000000E-01 1.268441018E-01
 -5.000000000E-01 -4.000000000E-01 1.187848844E-01
 -5.000000000E-01 -4.500000000E-01 1.105894950E-01
 -5.000000000E-01 -5.000000000E-01 1.024570117E-01
 -5.000000000E-01 -5.500000000E-01 9.428137117E-02
 -5.000000000E-01 -6.000000000E-01 8.640185905E-02
 -5.000000000E-01 -6.500000000E-01 7.857275477E-02
 -5.000000000E-01 -7.000000000E-01 7.085472204E-02
 -5.000000000E-01 -7.500000000E-01 6.319286421E-02
 -5.000000000E-01 -8.000000000E-01 5.533994727E-02
 -5.000000000E-01 -8.500000000E-01 4.703663434E-02
 -5.000000000E-01 -9.000000000E-01 3.742188742E-02
 -5.000000000E-01 -9.500000000E-01 2.472105996E-02
 -4.500000000E-01 -1.000000000E+00 2.051892977E-02
 -4.000000000E-01 -1.000000000E+00 3.043017302E-02
 -3.500000000E-01 -1.000000000E+00 3.687257791E-02
 -3.000000000E-01 -1.000000000E+00 4.105329300E-02
 -2.500000000E-01 -1.000000000E+00 4.360865852E-02
 -2.000000000E-01 -1.000000000E+00 4.475318120E-02
 -1.500000000E-01 -1.000000000E+00 4.439949300E-02
 -1.000000000E-01 -1.000000000E+00 4.263465450E-02
 -5.000000000E-02 -1.000000000E+00 3.950002529E-02
 -9.424683256E-13 -1.000000000E+00 3.500823282E-02
 5.000000000E-02 -1.000000000E+00 2.934823183E-02
 1.000000000E-01 -1.000000000E+00 2.273968944E-02
 1.500000000E-01 -1.000000000E+00 1.531206745E-02
 2.000000000E-01 -1.000000000E+00 7.584859826E-03
 2.500000000E-01 -1.000000000E+00 -2.046920574E-04
 3.000000000E-01 -1.000000000E+00 -7.508023616E-03
 3.500000000E-01 -1.000000000E+00 -1.401367568E-02
 4.000000000E-01 -1.000000000E+00 -1.935293709E-02
 4.500000000E-01 -1.000000000E+00 -2.333456103E-02
 5.000000000E-01 -1.000000000E+00 -2.571198695E-02
 5.500000000E-01 -1.000000000E+00 -2.624429025E-02
 6.000000000E-01 -1.000000000E+00 -2.516296105E-02
 6.500000000E-01 -1.000000000E+00 -2.249817753E-02
 7.000000000E-01 -1.000000000E+00 -1.857195765E-02
 7.500000000E-01 -1.000000000E+00 -1.353074201E-02
 8.000000000E-01 -1.000000000E+00 -7.791733093E-03
 8.500000000E-01 -1.000000000E+00 -1.569644634E-03
 9.000000000E-01 -1.000000000E+00 4.742096662E-03
 9.500000000E-01 -1.000000000E+00 1.080484065E-02
 1.000000000E+00 -1.000000000E+00 1.654554199E-02
 1.050000000E+00 -1.000000000E+00 2.189776191E-02
 1.100000000E+00 -1.000000000E+00 2.666061842E-02
 1.150000000E+00 -1.000000000E+00 3.064183143E-02
 1.200000000E+00 -1.000000000E+00 3.390752745E-02
 1.250000000E+00 -1.000000000E+00 3.657039862E-02
 1.300000000E+00 -1.000000000E+00 3.861713170E-02
 1.350000000E+00 -1.000000000E+00 4.005540564E-02
 1.400000000E+00 -1.000000000E+00 4.101895557E-02
 1.450000000E+00 -1.000000000E+00 4.152357232E-02
 1.500000000E+00 -1.000000000E+00 4.166295111E-02
 1.550000000E+00 -1.000000000E+00 4.149453093E-02
 1.600000000E+00 -1.000000000E+00 4.104256442E-02
 1.650000000E+00 -1.000000000E+00 4.042771039E-02
 1.700000000E+00 -1.000000000E+00 3.959595056E-02
 1.750000000E+00 -1.000000000E+00 3.868955946E-02
 1.800000000E+00 -1.000000000E+00 3.766176619E-02
 1.850000000E+00 -1.000000000E+00 3.658597382E-02
 1.900000000E+00 -1.000000000E+00 3.546349358E-02
 1.950000000E+00 -1.000000000E+00 3.431452089E-02
 2.000000000E+00 -1.000000000E+00 3.315986025E-02
 2.050000000E+00 -1.000000000E+00 3.204158445E-02
 2.100000000E+00 -1.000000000E+00 3.092458839E-02
 2.150000000E+00 -1.000000000E+00 2.983233993E-02
 2.200000000E+00 -1.000000000E+00 2.874369049E-02
 2.250000000E+00 -1.000000000E+00 2.771516267E-02
 2.300000000E+00 -1.000000000E+00 2.668727359E-02
 2.350000000E+00 -1.000000000E+00 2.578017740E-02
 2.400000000E+00 -1.000000000E+00 2.488627137E-02
 2.450000000E+00 -1.000000000E+00 2.405593166E-02
 2.500000000E+00 -1.000000000E+00 2.325892879E-02
 2.550000000E+00 -1.000000000E+00 2.251310072E-02
 2.600000000E+00 -1.000000000E+00 2.182507950E-02
 2.650000000E+00 -1.000000000E+00 2.118501924E-02
 2.700000000E+00 -1.000000000E+00 2.060526419E-02
 2.750000000E+00 -1.000000000E+00 2.007842247E-02
 2.800000000E+00 -1.000000000E+00 1.955417539E-02
 2.850000000E+00 -1.000000000E+00 1.912482409E-02
 2.900000000E+00 -1.000000000E+00 1.869786213E-02
 2.950000000E+00 -1.000000000E+00 1.832687852E-02
 3.000000000E+00 -1.000000000E+00 1.798247393E-02
 3.050000000E+00 -1.000000000E+00 1.766520711E-02
 3.100000000E+00 -1.000000000E+00 1.733649042E-02
 3.150000000E+00 -1.000000000E+00 1.705591296E-02
 3.200000000E+00 -1.000000000E+00 1.674193738E-02
 3.250000000E+00 -1.000000000E+00 1.627351986E-02
 3.300000000E+00 -1.000000000E+00 1.577039965E-02
 3.350000000E+00 -1.000000000E+00 1.497264097E-02
 3.400000000E+00 -1.000000000E+00 1.366201634E-02
 3.450000000E+00 -1.000000000E+00 1.108926357E-02
 3.500000000E+00 -9.500000000E-01 5.788511189E-03
 3.500000000E+00 -9.000000000E-01 7.029302414E-03
 3.500000000E+00 -8.500000000E-01 8.329435931E-03
 3.500000000E+00 -8.000000000E-01 9.738940525E-03
 3.500000000E+00 -7.500000000E-01 1.108154058E-02
 3.500000000E+00 -7.000000000E-01 1.233556330E-02
 3.500000000E+00 -6.500000000E-01 1.363485135E-02
 3.500000000E+00 -6.000000000E-01 1.495979667E-02
 3.500000000E+00 -5.500000000E-01 1.630567360E-02
 3.500000000E+00 -5.000000000E-01 1.775907940E-02
 3.500000000E+00 -4.500000000E-01 1.918624435E-02
 3.500000000E+00 -4.000000000E-01 2.069434814E-02
 3.500000000E+00 -3.500000000E-01 2.205070886E-02
 3.500000000E+00 -3.000000000E-01 2.334236693E-02
 3.500000000E+00 -2.500000000E-01 2.431091751E-02
 3.500000000E+00 -2.000000000E-01 2.480071839E-02
 3.500000000E+00 -1.500000000E-01 2.474862628E-02
 3.500000000E+00 -1.000000000E-01 2.429950736E-02
 3.500000000E+00 -5.000000000E-02 2.401447609E-02
 3.500000000E+00 -2.752242878E-12 2.411909248E-02
 3.500000000E+00 5.000000000E-02 2.443377262E-02
 3.500000000E+00 1.000000000E-01 2.456203963E-02
 3.500000000E+00 1.500000000E-01 2.410364372E-02
 3.500000000E+00 2.000000000E-01 2.304157430E-02
 3.500000000E+00 2.500000000E-01 2.175058292E-02
 3.500000000E+00 3.000000000E-01 2.028968713E-02
 3.500000000E+00 3.500000000E-01 1.878547078E-02
 3.500000000E+00 4.000000000E-01 1.728885226E-02
 3.500000000E+00 4.500000000E-01 1.575160424E-02
 3.500000000E+00 5.000000000E-01 1.423255523E-02
 3.500000000E+00 5.500000000E-01 1.286159505E-02
 3.500000000E+00 6.000000000E-01 1.212166393E-02
 3.500000000E+00 6.500000000E-01 1.197954964E-02
 3.500000000E+00 7.000000000E-01 1.134337477E-02
 3.500000000E+00 7.500000000E-01 9.033878293E-03
 3.500000000E+00 8.000000000E-01 2.482175594E-03
 3.500000000E+00 8.500000000E-01 -8.259790332E-03
 3.500000000E+00 9.000000000E-01 -2.072288894E-02
 3.500000000E+00 9.500000000E-01 -3.444227425E-02
 3.450000000E+00 1.000000000E+00 -1.593190344E-02
 3.400000000E+00 1.000000000E+00 -6.189905535E-03
 3.350000000E+00 1.000000000E+00 -2.706186658E-03
 3.300000000E+00 1.000000000E+00 -2.118166759E-03
 3.250000000E+00 1.000000000E+00 -2.040140171E-03
 3.200000000E+00 1.000000000E+00 -2.429092913E-03
 3.150000000E+00 1.000000000E+00 -3.155777278E-03
 3.100000000E+00 1.000000000E+00 -3.763720398E-03
 3.050000000E+00 1.000000000E+00 -4.672764825E-03
 3.000000000E+00 1.000000000E+00 -5.581468035E-03
 2.950000000E+00 1.000000000E+00 -6.572231405E-03
 2.900000000E+00 1.000000000E+00 -7.740685627E-03
 2.850000000E+00 1.000000000E+00 -8.736366435E-03
 2.800000000E+00 1.000000000E+00 -9.991287676E-03
 2.750000000E+00 1.000000000E+00 -1.094652583E-02
 2.700000000E+00 1.000000000E+00 -1.237827255E-02
 2.650000000E+00 1.000000000E+00 -1.353763844E-02
 2.600000000E+00 1.000000000E+00 -1.480162270E-02
 2.550000000E+00 1.000000000E+00 -1.621705225E-02
 2.500000000E+00 1.000000000E+00 -1.746826094E-02
 2.450000000E+00 1.000000000E+00 -1.917458681E-02
 2.400000000E+00 1.000000000E+00 -2.073085660E-02
 2.350000000E+00 1.000000000E+00 -2.231903945E-02
 2.300000000E+00 1.000000000E+00 -2.392975289E-02
 2.250000000E+00 1.000000000E+00 -2.595257646E-02
 2.200000000E+00 1.000000000E+00 -2.747597738E-02
 2.150000000E+00 1.000000000E+00 -3.014217239E-02
 2.100000000E+00 1.000000000E+00 -3.206472532E-02
 2.050000000E+00 1.000000000E+00 -3.456173058E-02
 2.000000000E+00 1.000000000E+00 -3.705691434E-02
 1.950000000E+00 1.000000000E+00 -3.971804285E-02
 1.900000000E+00 1.000000000E+00 -4.272817375E-02
 1.850000000E+00 1.000000000E+00 -4.585497201E-02
 1.800000000E+00 1.000000000E+00 -4.926435173E-02
 1.750000000E+00 1.000000000E+00 -5.297794928E-02
 1.700000000E+00 1.000000000E+00 -5.705831424E-02
 1.650000000E+00 1.000000000E+00 -6.146116458E-02
 1.600000000E+00 1.000000000E+00 -6.634950635E-02
 1.550000000E+00 1.000000000E+00 -7.144091741E-02
 1.500000000E+00 1.000000000E+00 -7.710558754E-02
 1.450000000E+00 1.000000000E+00 -8.317219178E-02
 1.400000000E+00 1.000000000E+00 -8.971421877E-02
 1.350000000E+00 1.000000000E+00 -9.678304908E-02
 1.300000000E+00 1.000000000E+00 -1.041627694E-01
 1.250000000E+00 1.000000000E+00 -1.124373977E-01
 1.200000000E+00 1.000000000E+00 -1.203940018E-01
 1.150000000E+00 1.000000000E+00 -1.285641771E-01
 1.100000000E+00 1.000000000E+00 -1.367442300E-01
 1.050000000E+00 1.000000000E+00 -1.443854570E-01
 1.000000000E+00 1.000000000E+00 -1.509071922E-01
 9.500000000E-01 1.000000000E+00 -1.573468383E-01
 9.000000000E-01 1.000000000E+00 -1.614747918E-01
 8.500000000E-01 1.000000000E+00 -1.644426652E-01
 8.000000000E-01 1.000000000E+00 -1.646082475E-01
 7.500000000E-01 1.000000000E+00 -1.628658921E-01
 7.000000000E-01 1.000000000E+00 -1.581863038E-01
 6.500000000E-01 1.000000000E+00 -1.507929941E-01
 6.000000000E-01 1.000000000E+00 -1.422179765E-01
 5.500000000E-01 1.000000000E+00 -1.298334124E-01
 5.000000000E-01 1.000000000E+00 -1.169509812E-01
 4.500000000E-01 1.000000000E+00 -1.021612557E-01
 4.000000000E-01 1.000000000E+00 -8.639332063E-02
 3.500000000E-01 1.000000000E+00 -7.069606621E-02
 3.000000000E-01 1.000000000E+00 -5.461656175E-02
 2.500000000E-01 1.000000000E+00 -3.921814849E-02
 2.000000000E-01 1.000000000E+00 -2.489180354E-02
 1.500000000E-01 1.000000000E+00 -1.106863724E-02
 1.000000000E-01 1.000000000E+00 1.177562907E-03
 5.000000000E-02 1.000000000E+00 1.204893311E-02
 1.733724275E-12 1.000000000E+00 2.116000331E-02
 -5.000000000E-02 1.000000000E+00 2.832574056E-02
 -1.000000000E-01 1.000000000E+00 3.366403473E-02
 -1.500000000E-01 1.000000000E+00 3.719667924E-02
 -2.000000000E-01 1.000000000E+00 3.889263077E-02
 -2.500000000E-01 1.000000000E+00 3.890361655E-02
 -3.000000000E-01 1.000000000E+00 3.716504754E-02
 -3.500000000E-01 1.000000000E+00 3.374691633E-02
 -4.000000000E-01 1.000000000E+00 2.812841466E-02
 -4.500000000E-01 1.000000000E+00 1.889483895E-02
 9.722858943E-01 -5.400233482E-03 3.738889676E-01
 8.714543702E-01 -6.075495960E-03 3.453772551E-01
 7.932798958E-01 -1.512799767E-02 2.497061550E-01
 7.248747006E-01 -2.246002287E-02 1.565368013E-01
 6.521728303E-01 -3.227014143E-02 4.101027801E-02
 5.835783352E-01 -4.237573609E-02 -9.583554588E-02
 5.244436533E-01 -5.027552566E-02 -2.399551475E-01
 4.610390400E-01 -5.554050812E-02 -4.381467157E-01
 4.059810462E-01 -5.996192059E-02 -5.782272121E-01
 3.468470684E-01 -5.963177976E-02 -6.177345027E-01
 2.939291892E-01 -6.008324009E-02 -5.389143115E-01