TITLE     = "Visualization of the solution"
VARIABLES = "x"
"y"
"Pressure_Coefficient"
ZONE T="Zone"
 STRANDID=0, SOLUTIONTIME=0
 Nodes=12016, Elements=23450, ZONETYPE=FEQuadrilateral
 DATAPACKING=POINT
 DT=(DOUBLE DOUBLE DOUBLE )
 9.999200106E-01 5.204013432E-04 3.985597442E-01
 9.859753847E-01 3.545515006E-03 2.627161399E-01
 9.733149409E-01 6.257334724E-03 1.965396361E-01
 9.580187201E-01 9.555003606E-03 1.327231647E-01
 9.445466995E-01 1.244368311E-02 8.591279461E-02
 9.327414036E-01 1.498354133E-02 4.070594322E-02
 9.220488071E-01 1.726859063E-02 4.746842289E-04
 9.113067985E-01 1.955278777E-02 -5.325791503E-02
 8.999221325E-01 2.182423323E-02 -6.566174987E-02
 8.885031939E-01 2.411449887E-02 -1.005498433E-01
 8.772167563E-01 2.637642436E-02 -1.601031056E-01
 8.648965955E-01 2.863110602E-02 -1.594277133E-01
 8.527387977E-01 3.085154854E-02 -1.837782443E-01
 8.416193724E-01 3.285450116E-02 -2.135023724E-01
 8.300476074E-01 3.486111760E-02 -2.288307319E-01
 8.176203370E-01 3.700094298E-02 -2.620594662E-01
 8.046511412E-01 3.911129385E-02 -2.639173187E-01
 7.924409509E-01 4.112545401E-02 -3.034446865E-01
 7.799084187E-01 4.310844839E-02 -3.251597910E-01
 7.681049109E-01 4.490387440E-02 -3.316989196E-01
 7.549673319E-01 4.689910263E-02 -3.658667348E-01
 7.413531542E-01 4.888644442E-02 -3.883904517E-01
 7.301965356E-01 5.045047030E-02 -3.969555175E-01
 7.188537121E-01 5.203602836E-02 -4.246065887E-01
 7.068710327E-01 5.364044756E-02 -4.427015456E-01
 6.939768195E-01 5.534006283E-02 -4.753503125E-01
 6.809735298E-01 5.694834515E-02 -4.830177176E-01
 6.698166132E-01 5.830807611E-02 -5.089210134E-01
 6.580059528E-01 5.968048424E-02 -5.294639532E-01
 6.465331316E-01 6.095688045E-02 -5.384083016E-01
 6.343143582E-01 6.223241985E-02 -4.990768590E-01
 6.225017309E-01 6.342534721E-02 -4.362125420E-01
 6.119543314E-01 6.442395598E-02 -6.923142413E-01
 6.000084281E-01 6.552393734E-02 -9.767116641E-01
 5.881689191E-01 6.651119888E-02 -9.252597890E-01
 5.743814111E-01 6.758514792E-02 -9.117152944E-01
 5.614006519E-01 6.849160045E-02 -9.021541551E-01
 5.484322309E-01 6.931884587E-02 -8.986722053E-01
 5.370517373E-01 6.998327374E-02 -8.843279289E-01
 5.246034861E-01 7.061747462E-02 -8.705355407E-01
 5.119502544E-01 7.119502127E-02 -8.627846084E-01
 5.009391308E-01 7.162116468E-02 -8.348270840E-01
 4.876177013E-01 7.203669101E-02 -8.242154391E-01
 4.745190144E-01 7.238109410E-02 -8.137955641E-01
 4.609732032E-01 7.264279574E-02 -7.973068109E-01
 4.474000335E-01 7.283201814E-02 -7.826736424E-01
 4.345356226E-01 7.290948182E-02 -7.579960775E-01
 4.212344885E-01 7.290677726E-02 -7.495542248E-01
 4.086776078E-01 7.283714414E-02 -7.359828988E-01
 3.956609070E-01 7.267058641E-02 -7.244100530E-01
 3.836940527E-01 7.247287780E-02 -7.180812610E-01
 3.716939390E-01 7.219134271E-02 -6.865601639E-01
 3.581076264E-01 7.178195566E-02 -6.638420075E-01
 3.454305828E-01 7.133273035E-02 -6.544690015E-01
 3.324403465E-01 7.079445571E-02 -6.560069132E-01
 3.218103647E-01 7.030172646E-02 -6.447952459E-01
 3.093758821E-01 6.963717937E-02 -6.175021712E-01
 2.966628373E-01 6.888093054E-02 -6.005702595E-01
 2.828364670E-01 6.798009574E-02 -5.945631904E-01
 2.707183361E-01 6.709880382E-02 -5.766937822E-01
 2.589222789E-01 6.616749614E-02 -5.604022577E-01
 2.463535070E-01 6.509812176E-02 -5.470021416E-01
 2.339098006E-01 6.394423544E-02 -5.285294005E-01
 2.217305899E-01 6.273326278E-02 -5.167645059E-01
 2.099144906E-01 6.147384271E-02 -5.011378338E-01
 1.981245279E-01 6.011146680E-02 -4.761751897E-01
 1.861182451E-01 5.865045637E-02 -4.639639515E-01
 1.743474156E-01 5.711254478E-02 -4.450115812E-01
 1.628090590E-01 5.550733581E-02 -4.267928673E-01
 1.512366831E-01 5.379115418E-02 -4.085707306E-01
 1.404636353E-01 5.208644643E-02 -3.844486789E-01
 1.292521656E-01 5.020525306E-02 -3.624106780E-01
 1.182277426E-01 4.824319482E-02 -3.441476381E-01
 1.074288264E-01 4.618970305E-02 -3.158864363E-01
 9.759305418E-02 4.419853538E-02 -2.972817004E-01
 8.688981086E-02 4.188262671E-02 -2.665739178E-01
 7.553771138E-02 3.923326731E-02 -2.371524399E-01
 6.556874514E-02 3.671781346E-02 -1.989842815E-01
 5.592176691E-02 3.408103436E-02 -1.615381227E-01
 4.684544727E-02 3.137275204E-02 -1.232407427E-01
 3.893094510E-02 2.880227380E-02 -8.198369560E-02
 3.199021146E-02 2.632621862E-02 -3.269754974E-02
 2.597641759E-02 2.397718839E-02 1.291365388E-02
 2.158074081E-02 2.210086025E-02 5.861451166E-02
 1.740122400E-02 2.015580982E-02 9.726300965E-02
 1.414368581E-02 1.850026660E-02 1.506220651E-01
 1.128289662E-02 1.690621488E-02 1.977283372E-01
 9.162683971E-03 1.561064832E-02 2.526684457E-01
 7.244696375E-03 1.433145721E-02 2.959611469E-01
 5.480452906E-03 1.304161083E-02 3.761480734E-01
 3.208908020E-03 1.113278139E-02 4.876288357E-01
 1.393300015E-03 9.286418557E-03 6.067443354E-01
 -6.707491411E-05 7.407365832E-03 8.039980129E-01
 -1.457973034E-03 4.778600298E-03 1.008509697E+00
 -2.032331889E-03 2.732891357E-03 1.143892353E+00
 -2.184450626E-03 1.076995744E-03 1.196535730E+00
 -2.027173061E-03 -8.360118954E-04 1.214254419E+00
 -1.474386780E-03 -2.932556672E-03 1.148009342E+00
 -3.154588921E-04 -5.439107772E-03 1.005779982E+00
 1.400698442E-03 -8.008992299E-03 8.414240397E-01
 3.660278860E-03 -1.061419211E-02 6.905112094E-01
 5.682787392E-03 -1.255854312E-02 5.587921000E-01
 8.055745624E-03 -1.455491502E-02 4.682157065E-01
 9.907917120E-03 -1.596019603E-02 3.835828625E-01
 1.216118596E-02 -1.752938144E-02 3.181189944E-01
 1.473118830E-02 -1.917409897E-02 2.552474581E-01
 1.815719157E-02 -2.118109912E-02 1.847643115E-01
 2.139114402E-02 -2.291463688E-02 1.096228042E-01
 2.554061264E-02 -2.494874410E-02 5.509249493E-02
 3.093326464E-02 -2.735630982E-02 -3.454894163E-03
 3.671441600E-02 -2.969953418E-02 -6.976073335E-02
 4.363948852E-02 -3.224794194E-02 -1.205109753E-01
 5.118090659E-02 -3.476413339E-02 -1.685678913E-01
 6.004095078E-02 -3.744562343E-02 -2.059943483E-01
 6.876663119E-02 -3.986097500E-02 -2.427494932E-01
 7.912156731E-02 -4.249253124E-02 -2.790105867E-01
 8.902217448E-02 -4.480611533E-02 -3.088748268E-01
 9.958171844E-02 -4.708390683E-02 -3.315254458E-01
 1.110556200E-01 -4.938617721E-02 -3.585871979E-01
 1.224660948E-01 -5.150526762E-02 -3.851310569E-01
 1.343950033E-01 -5.356024578E-02 -4.057196487E-01
 1.447334886E-01 -5.521935597E-02 -4.246436144E-01
 1.563316584E-01 -5.697776005E-02 -4.464079679E-01
 1.685680747E-01 -5.870079994E-02 -4.699314156E-01
 1.802467406E-01 -6.023252755E-02 -4.911125753E-01
 1.920294315E-01 -6.167162210E-02 -5.130059682E-01
 2.028457671E-01 -6.290736794E-02 -5.416245523E-01
 2.143155187E-01 -6.411276013E-02 -5.607583851E-01
 2.263837308E-01 -6.527838111E-02 -5.801914697E-01
 2.383629084E-01 -6.634175032E-02 -6.099865566E-01
 2.501893938E-01 -6.727569550E-02 -6.288475443E-01
 2.624961436E-01 -6.816413254E-02 -6.660623047E-01
 2.734114826E-01 -6.882893294E-02 -6.855537368E-01
 2.856353819E-01 -6.949883699E-02 -7.011141290E-01
 2.976861000E-01 -7.004048675E-02 -7.305298260E-01
 3.105066121E-01 -7.050234079E-02 -7.662622499E-01
 3.220480084E-01 -7.078490406E-02 -8.005450924E-01
 3.346092701E-01 -7.099055499E-02 -8.249562636E-01
 3.451768160E-01 -7.104586810E-02 -8.594223802E-01
 3.567215502E-01 -7.100627571E-02 -8.761189608E-01
 3.677055240E-01 -7.086782157E-02 -9.030624764E-01
 3.786333203E-01 -7.061269879E-02 -9.285923135E-01
 3.904234469E-01 -7.022695243E-02 -9.452798183E-01
 4.036614299E-01 -6.963828951E-02 -9.749414532E-01
 4.156809747E-01 -6.896609068E-02 -1.010786843E+00
 4.283110797E-01 -6.814911962E-02 -6.651541226E-01
 4.408340454E-01 -6.720547378E-02 -4.473426621E-01
 4.532361925E-01 -6.611954421E-02 -5.039313626E-01
 4.653531611E-01 -6.495131552E-02 -4.876438950E-01
 4.776908159E-01 -6.367267668E-02 -4.533169783E-01
 4.898056686E-01 -6.232526526E-02 -4.282618711E-01
 5.021873713E-01 -6.081516668E-02 -3.735946225E-01
 5.158696771E-01 -5.909943208E-02 -3.435385249E-01
 5.289980173E-01 -5.732432008E-02 -2.954825964E-01
 5.413306355E-01 -5.559386313E-02 -2.500898045E-01
 5.545763373E-01 -5.372912809E-02 -2.297294575E-01
 5.677422285E-01 -5.176702514E-02 -1.832986602E-01
 5.809249878E-01 -4.978720099E-02 -1.520669719E-01
 5.940482020E-01 -4.778636619E-02 -1.233689527E-01
 6.072176099E-01 -4.575016350E-02 -9.761815251E-02
 6.208932400E-01 -4.357571527E-02 -6.056286507E-02
 6.345264316E-01 -4.139968753E-02 -3.085684830E-02
 6.485030651E-01 -3.916401044E-02 -3.001685154E-03
 6.611792445E-01 -3.715030476E-02 1.492643820E-02
 6.743652225E-01 -3.499932587E-02 5.097111594E-02
 6.870836616E-01 -3.299421445E-02 6.104001409E-02
 6.992322803E-01 -3.103013523E-02 9.043194012E-02
 7.141462564E-01 -2.865917049E-02 1.105107692E-01
 7.272260189E-01 -2.657065354E-02 1.361361769E-01
 7.386173010E-01 -2.476455830E-02 1.581174399E-01
 7.526416779E-01 -2.260766365E-02 1.698704257E-01
 7.651283741E-01 -2.064241469E-02 2.000877355E-01
 7.787303925E-01 -1.856134646E-02 2.206478351E-01
 7.910849452E-01 -1.670136489E-02 2.430749800E-01
 8.041701317E-01 -1.481309533E-02 2.538900186E-01
 8.151153326E-01 -1.320679486E-02 2.816343120E-01
 8.262737393E-01 -1.164205093E-02 2.968582238E-01
 8.386884332E-01 -9.940699674E-03 3.195019476E-01
 8.509182334E-01 -8.340571076E-03 3.399604481E-01
 8.632613420E-01 -6.823711097E-03 3.571911953E-01
 8.739506006E-01 -5.590088665E-03 3.717790919E-01
 8.848257661E-01 -4.397137556E-03 3.904953527E-01
 8.969603777E-01 -3.182709217E-03 4.085843902E-01
 9.071758986E-01 -2.305518836E-03 4.162490884E-01
 9.178152084E-01 -1.485783374E-03 4.276162388E-01
 9.278845787E-01 -8.333955775E-04 4.333821548E-01
 9.375512004E-01 -3.159026965E-04 4.409106843E-01
 9.494591951E-01 1.725165203E-04 4.448889605E-01
 9.628209472E-01 5.329936976E-04 4.502147425E-01
 9.767922759E-01 6.975420984E-04 4.601196389E-01
 9.896475077E-01 6.640059291E-04 4.854683809E-01
 -5.000000000E-01 -1.000000000E+00 1.814800283E-02
 3.500000000E+00 -1.000000000E+00 7.079141936E-03
 3.500000000E+00 1.000000000E+00 -3.258641762E-02
 -5.000000000E-01 1.000000000E+00 1.726465290E-02
 9.929476976E-01 2.032958175E-03 3.520584250E-01
 9.796451628E-01 4.901424865E-03 2.276370810E-01
 9.656668305E-01 7.906169165E-03 1.623117745E-01
 9.512827098E-01 1.099934336E-02 1.087100554E-01
 9.386440516E-01 1.371361222E-02 6.201283736E-02
 9.273951054E-01 1.612606598E-02 2.199860421E-02
 9.166778028E-01 1.841068920E-02 -3.359781555E-02
 9.056144655E-01 2.068851050E-02 -5.643197186E-02
 8.942126632E-01 2.296936605E-02 -7.811228887E-02
 8.828599751E-01 2.524546161E-02 -1.412305719E-01
 8.710566759E-01 2.750376519E-02 -1.557970105E-01
 8.588176966E-01 2.974132728E-02 -1.694171007E-01
 8.471790850E-01 3.185302485E-02 -2.025508020E-01
 8.358334899E-01 3.385780938E-02 -2.169710683E-01
 8.238339722E-01 3.593103029E-02 -2.518028760E-01
 8.111357391E-01 3.805611841E-02 -2.569942105E-01
 7.985460460E-01 4.011837393E-02 -2.858473170E-01
 7.861746848E-01 4.211695120E-02 -3.175090436E-01
 7.740066648E-01 4.400616139E-02 -3.240305953E-01
 7.615361214E-01 4.590148851E-02 -3.499465051E-01
 7.481602430E-01 4.789277352E-02 -3.798281213E-01
 7.357748449E-01 4.966845736E-02 -3.882617150E-01
 7.245251238E-01 5.124324933E-02 -4.146518061E-01
 7.128623724E-01 5.283823796E-02 -4.292390584E-01
 7.004239261E-01 5.449025519E-02 -4.649356260E-01
 6.874751747E-01 5.614420399E-02 -4.749007195E-01
 6.753950715E-01 5.762821063E-02 -4.979671015E-01
 6.639112830E-01 5.899428017E-02 -5.182475799E-01
 6.522695422E-01 6.031868234E-02 -5.395684132E-01
 6.404237449E-01 6.159465015E-02 -5.241557248E-01
 6.284080446E-01 6.282888353E-02 -4.621363442E-01
 6.172280312E-01 6.392465159E-02 -4.880550057E-01
 6.059813797E-01 6.497394666E-02 -9.117034200E-01
 5.940886736E-01 6.601756811E-02 -9.534136602E-01
 5.812751651E-01 6.704817340E-02 -9.160494248E-01
 5.678910315E-01 6.803837419E-02 -9.059996413E-01
 5.549164414E-01 6.890522316E-02 -8.994651328E-01
 5.427419841E-01 6.965105981E-02 -8.946786597E-01
 5.308276117E-01 7.030037418E-02 -8.745399143E-01
 5.182768703E-01 7.090624794E-02 -8.687122078E-01
 5.064446926E-01 7.140809298E-02 -8.503098302E-01
 4.942784160E-01 7.182892784E-02 -8.257386757E-01
 4.810683578E-01 7.220889255E-02 -8.225185586E-01
 4.677461088E-01 7.251194492E-02 -8.035841891E-01
 4.541866183E-01 7.273740694E-02 -7.925009948E-01
 4.409678280E-01 7.287074998E-02 -7.689894715E-01
 4.278850555E-01 7.290812954E-02 -7.516368478E-01
 4.149560481E-01 7.287196070E-02 -7.459415065E-01
 4.021692574E-01 7.275386527E-02 -7.256199857E-01
 3.896774799E-01 7.257173210E-02 -7.254472668E-01
 3.776939958E-01 7.233211026E-02 -7.042391414E-01
 3.649007827E-01 7.198664919E-02 -6.717313679E-01
 3.517691046E-01 7.155734301E-02 -6.589482411E-01
 3.389354646E-01 7.106359303E-02 -6.526622188E-01
 3.271253556E-01 7.054809108E-02 -6.555880568E-01
 3.155931234E-01 6.996945292E-02 -6.307279530E-01
 3.030193597E-01 6.925905496E-02 -6.069614794E-01
 2.897496521E-01 6.843051314E-02 -5.985610513E-01
 2.767774016E-01 6.753944978E-02 -5.856604698E-01
 2.648203075E-01 6.663314998E-02 -5.678214533E-01
 2.526378930E-01 6.563280895E-02 -5.550338135E-01
 2.401316538E-01 6.452117860E-02 -5.370997994E-01
 2.278201953E-01 6.333874911E-02 -5.216516490E-01
 2.158225402E-01 6.210355274E-02 -5.121140208E-01
 2.040195093E-01 6.079265475E-02 -4.859721723E-01
 1.921213865E-01 5.938096158E-02 -4.712055890E-01
 1.802328303E-01 5.788150057E-02 -4.546455611E-01
 1.685782373E-01 5.630994029E-02 -4.357181569E-01
 1.570228711E-01 5.464924499E-02 -4.183393815E-01
 1.458501592E-01 5.293880031E-02 -3.966610860E-01
 1.348579004E-01 5.114584975E-02 -3.730054386E-01
 1.237399541E-01 4.922422394E-02 -3.534346916E-01
 1.128282845E-01 4.721644893E-02 -3.340871053E-01
 9.224143252E-02 4.304058105E-02 -2.847553299E-01
 8.121376112E-02 4.055794701E-02 -2.497442495E-01
 7.055322826E-02 3.797554038E-02 -2.238584167E-01
 7.394409925E-02 -4.117675312E-02 -2.647465668E-01
 8.407187089E-02 -4.364932328E-02 -2.953690295E-01
 9.430194646E-02 -4.594501108E-02 -3.204421078E-01
 1.053186692E-01 -4.823504202E-02 -3.440194237E-01
 1.167608574E-01 -5.044572242E-02 -3.737342779E-01
 1.284305491E-01 -5.253275670E-02 -3.954792450E-01
 1.395642459E-01 -5.438980088E-02 -4.181826030E-01
 1.505325735E-01 -5.609855801E-02 -4.322120729E-01
 1.624498665E-01 -5.783927999E-02 -4.592156572E-01
 1.744074076E-01 -5.946666375E-02 -4.810839041E-01
 1.861380860E-01 -6.095207483E-02 -5.016617314E-01
 1.974375993E-01 -6.228949502E-02 -5.273904165E-01
 2.085806429E-01 -6.351006404E-02 -5.520844353E-01
 2.203496248E-01 -6.469557062E-02 -5.695553533E-01
 2.323733196E-01 -6.581006572E-02 -5.939494648E-01
 2.442761511E-01 -6.680872291E-02 -6.218135056E-01
 2.563427687E-01 -6.771991402E-02 -6.422822384E-01
 2.679538131E-01 -6.849653274E-02 -6.843205013E-01
 2.795234323E-01 -6.916388497E-02 -6.871214820E-01
 2.916607410E-01 -6.976966187E-02 -7.169324029E-01
 3.040963560E-01 -7.027141377E-02 -7.450339862E-01
 3.162773103E-01 -7.064362243E-02 -7.889893146E-01
 3.283286393E-01 -7.088772953E-02 -8.084920592E-01
 3.398930430E-01 -7.101821154E-02 -8.461285618E-01
 3.509491831E-01 -7.102607191E-02 -8.674347916E-01
 3.622135371E-01 -7.093704864E-02 -8.874538758E-01
 3.731694221E-01 -7.074026018E-02 -9.182130996E-01
 3.845283836E-01 -7.041982561E-02 -9.356702465E-01
 3.970424384E-01 -6.993262097E-02 -9.545620532E-01
 4.096712023E-01 -6.930219010E-02 -1.008801726E+00
 4.219960272E-01 -6.855760515E-02 -9.042776780E-01
 4.345725626E-01 -6.767729670E-02 -4.814296504E-01
 4.470351189E-01 -6.666250899E-02 -4.803345766E-01
 4.592946768E-01 -6.553542987E-02 -5.041972495E-01
 4.715219885E-01 -6.431199610E-02 -4.684304542E-01
 4.837482423E-01 -6.299897097E-02 -4.407932865E-01
 4.959965199E-01 -6.157021597E-02 -4.054455866E-01
 5.090285242E-01 -5.995729938E-02 -3.531926825E-01
 5.224338472E-01 -5.821187608E-02 -3.246715315E-01
 5.351643264E-01 -5.645909160E-02 -2.714966334E-01
 5.479534864E-01 -5.466149561E-02 -2.366498048E-01
 5.611592829E-01 -5.274807662E-02 -2.107094992E-01
 5.743336082E-01 -5.077711307E-02 -1.651957792E-01
 5.874865949E-01 -4.878678359E-02 -1.375708792E-01
 6.006329060E-01 -4.676826485E-02 -1.103046360E-01
 6.140554249E-01 -4.466293938E-02 -8.079901609E-02
 6.277098358E-01 -4.248770140E-02 -4.489830536E-02
 6.415147483E-01 -4.028184898E-02 -1.677279882E-02
 6.548411548E-01 -3.815715760E-02 7.382504563E-03
 6.677722335E-01 -3.607481532E-02 2.999599715E-02
 6.807244420E-01 -3.399677016E-02 5.996849310E-02
 6.931579709E-01 -3.201217484E-02 7.250730910E-02
 7.066892684E-01 -2.984465286E-02 1.012042771E-01
 7.206861377E-01 -2.761491202E-02 1.226881015E-01
 7.329216599E-01 -2.566760592E-02 1.471737206E-01
 7.456294894E-01 -2.368611097E-02 1.650796338E-01
 7.588850260E-01 -2.162503917E-02 1.823719180E-01
 7.719293833E-01 -1.960188057E-02 2.109006965E-01
 7.849076688E-01 -1.763135567E-02 2.319450527E-01
 7.976275384E-01 -1.575723011E-02 2.502103043E-01
 8.096427321E-01 -1.400994509E-02 2.654257165E-01
 8.206945360E-01 -1.242442289E-02 2.902559555E-01
 8.324810863E-01 -1.079137530E-02 3.068507324E-01
 8.448033333E-01 -9.140635375E-03 3.295594781E-01
 8.570897877E-01 -7.582141086E-03 3.488566894E-01
 8.686059713E-01 -6.206899881E-03 3.653550170E-01
 8.793881834E-01 -4.993613111E-03 3.796901411E-01
 8.908930719E-01 -3.789923387E-03 3.984133755E-01
 9.020681381E-01 -2.744114026E-03 4.155590313E-01
 9.124955535E-01 -1.895651105E-03 4.211091303E-01
 9.435051978E-01 -7.169308810E-05 4.426164451E-01
 9.561400712E-01 3.527551089E-04 4.461779768E-01
 9.698066115E-01 6.152678980E-04 4.531358556E-01
 9.832198918E-01 6.807740137E-04 4.680705788E-01
 9.947837591E-01 5.922036362E-04 5.398621397E-01
 -5.000000000E-01 9.500000000E-01 2.829437410E-02
 -5.000000000E-01 9.000000000E-01 4.250471054E-02
 -5.000000000E-01 8.500000000E-01 5.365781169E-02
 -5.000000000E-01 8.000000000E-01 6.325748035E-02
 -5.000000000E-01 7.500000000E-01 7.249434327E-02
 -5.000000000E-01 7.000000000E-01 8.164427240E-02
 -5.000000000E-01 6.500000000E-01 9.099135845E-02
 -5.000000000E-01 6.000000000E-01 1.003324599E-01
 -5.000000000E-01 5.500000000E-01 1.101960225E-01
 -5.000000000E-01 5.000000000E-01 1.200974739E-01
 -5.000000000E-01 4.500000000E-01 1.302228660E-01
 -5.000000000E-01 4.000000000E-01 1.404920548E-01
 -5.000000000E-01 3.500000000E-01 1.504849934E-01
 -5.000000000E-01 3.000000000E-01 1.602101622E-01
 -5.000000000E-01 2.500000000E-01 1.693488133E-01
 -5.000000000E-01 2.000000000E-01 1.772757116E-01
 -5.000000000E-01 1.500000000E-01 1.841090997E-01
 -5.000000000E-01 1.000000000E-01 1.892900824E-01
 -5.000000000E-01 5.000000000E-02 1.925938559E-01
 -5.000000000E-01 2.752242878E-12 1.938818160E-01
 -5.000000000E-01 -5.000000000E-02 1.931834452E-01
 -5.000000000E-01 -1.000000000E-01 1.903514504E-01
 -5.000000000E-01 -1.500000000E-01 1.855729419E-01
 -5.000000000E-01 -2.000000000E-01 1.792220827E-01
 -5.000000000E-01 -2.500000000E-01 1.715821595E-01
 -5.000000000E-01 -3.000000000E-01 1.628822183E-01
 -5.000000000E-01 -3.500000000E-01 1.534866428E-01
 -5.000000000E-01 -4.000000000E-01 1.436355154E-01
 -5.000000000E-01 -4.500000000E-01 1.336313964E-01
 -5.000000000E-01 -5.000000000E-01 1.235962161E-01
 -5.000000000E-01 -5.500000000E-01 1.136535806E-01
 -5.000000000E-01 -6.000000000E-01 1.039832459E-01
 -5.000000000E-01 -6.500000000E-01 9.441863674E-02
 -5.000000000E-01 -7.000000000E-01 8.503938879E-02
 -5.000000000E-01 -7.500000000E-01 7.578329308E-02
 -5.000000000E-01 -8.000000000E-01 6.629163989E-02
 -5.000000000E-01 -8.500000000E-01 5.636851739E-02
 -5.000000000E-01 -9.000000000E-01 4.463675842E-02
 -5.000000000E-01 -9.500000000E-01 2.971815323E-02
 -4.500000000E-01 -1.000000000E+00 2.459877988E-02
 -4.000000000E-01 -1.000000000E+00 3.645190349E-02
 -3.500000000E-01 -1.000000000E+00 4.387115469E-02
 -3.000000000E-01 -1.000000000E+00 4.866896017E-02
 -2.500000000E-01 -1.000000000E+00 5.146147989E-02
 -2.000000000E-01 -1.000000000E+00 5.238276535E-02
 -1.500000000E-01 -1.000000000E+00 5.153225218E-02
 -1.000000000E-01 -1.000000000E+00 4.873538525E-02
 -5.000000000E-02 -1.000000000E+00 4.415193662E-02
 -9.424683256E-13 -1.000000000E+00 3.771274449E-02
 5.000000000E-02 -1.000000000E+00 2.964504930E-02
 1.000000000E-01 -1.000000000E+00 2.023635087E-02
 1.500000000E-01 -1.000000000E+00 9.739147765E-03
 2.000000000E-01 -1.000000000E+00 -1.463880307E-03
 2.500000000E-01 -1.000000000E+00 -1.283291092E-02
 3.000000000E-01 -1.000000000E+00 -2.380674541E-02
 3.500000000E-01 -1.000000000E+00 -3.375192799E-02
 4.000000000E-01 -1.000000000E+00 -4.239292472E-02
 4.500000000E-01 -1.000000000E+00 -4.913273854E-02
 5.000000000E-01 -1.000000000E+00 -5.355738137E-02
 5.500000000E-01 -1.000000000E+00 -5.571262496E-02
 6.000000000E-01 -1.000000000E+00 -5.539637443E-02
 6.500000000E-01 -1.000000000E+00 -5.290347678E-02
 7.000000000E-01 -1.000000000E+00 -4.849460572E-02
 7.500000000E-01 -1.000000000E+00 -4.254679114E-02
 8.000000000E-01 -1.000000000E+00 -3.538159803E-02
 8.500000000E-01 -1.000000000E+00 -2.761739725E-02
 9.000000000E-01 -1.000000000E+00 -1.930232013E-02
 9.500000000E-01 -1.000000000E+00 -1.109247341E-02
 1.000000000E+00 -1.000000000E+00 -3.050878294E-03
 1.050000000E+00 -1.000000000E+00 4.194614214E-03
 1.100000000E+00 -1.000000000E+00 1.066235160E-02
 1.150000000E+00 -1.000000000E+00 1.634126152E-02
 1.200000000E+00 -1.000000000E+00 2.138058772E-02
 1.250000000E+00 -1.000000000E+00 2.551787705E-02
 1.300000000E+00 -1.000000000E+00 2.886688451E-02
 1.350000000E+00 -1.000000000E+00 3.150884678E-02
 1.400000000E+00 -1.000000000E+00 3.348225935E-02
 1.450000000E+00 -1.000000000E+00 3.493301906E-02
 1.500000000E+00 -1.000000000E+00 3.588705241E-02
 1.550000000E+00 -1.000000000E+00 3.639883907E-02
 1.600000000E+00 -1.000000000E+00 3.652715693E-02
 1.650000000E+00 -1.000000000E+00 3.661628232E-02
 1.700000000E+00 -1.000000000E+00 3.594878844E-02
 1.750000000E+00 -1.000000000E+00 3.577192086E-02
 1.800000000E+00 -1.000000000E+00 3.493936139E-02
 1.850000000E+00 -1.000000000E+00 3.417480350E-02
 1.900000000E+00 -1.000000000E+00 3.333128542E-02
 1.950000000E+00 -1.000000000E+00 3.244121208E-02
 2.000000000E+00 -1.000000000E+00 3.158116602E-02
 2.050000000E+00 -1.000000000E+00 3.060146291E-02
 2.100000000E+00 -1.000000000E+00 2.967760367E-02
 2.150000000E+00 -1.000000000E+00 2.878741114E-02
 2.200000000E+00 -1.000000000E+00 2.780457111E-02
 2.250000000E+00 -1.000000000E+00 2.705849516E-02
 2.300000000E+00 -1.000000000E+00 2.606637742E-02
 2.350000000E+00 -1.000000000E+00 2.534578324E-02
 2.400000000E+00 -1.000000000E+00 2.445587403E-02
 2.450000000E+00 -1.000000000E+00 2.386504391E-02
 2.500000000E+00 -1.000000000E+00 2.302265099E-02
 2.550000000E+00 -1.000000000E+00 2.255555820E-02
 2.600000000E+00 -1.000000000E+00 2.186397113E-02
 2.650000000E+00 -1.000000000E+00 2.133599558E-02
 2.700000000E+00 -1.000000000E+00 2.089576822E-02
 2.750000000E+00 -1.000000000E+00 2.043721186E-02
 2.800000000E+00 -1.000000000E+00 2.007593944E-02
 2.850000000E+00 -1.000000000E+00 1.971997567E-02
 2.900000000E+00 -1.000000000E+00 1.941586112E-02
 2.950000000E+00 -1.000000000E+00 1.913903757E-02
 3.000000000E+00 -1.000000000E+00 1.892889385E-02
 3.050000000E+00 -1.000000000E+00 1.873914413E-02
 3.100000000E+00 -1.000000000E+00 1.848977500E-02
 3.150000000E+00 -1.000000000E+00 1.831400953E-02
 3.200000000E+00 -1.000000000E+00 1.801640799E-02
 3.250000000E+00 -1.000000000E+00 1.770515384E-02
 3.300000000E+00 -1.000000000E+00 1.720457613E-02
 3.350000000E+00 -1.000000000E+00 1.647815492E-02
 3.400000000E+00 -1.000000000E+00 1.501718481E-02
 3.450000000E+00 -1.000000000E+00 1.172373171E-02
 3.500000000E+00 -9.500000000E-01 5.030172729E-03
 3.500000000E+00 -9.000000000E-01 7.432931235E-03
 3.500000000E+00 -8.500000000E-01 9.673425920E-03
 3.500000000E+00 -8.000000000E-01 1.168331493E-02
 3.500000000E+00 -7.500000000E-01 1.327494064E-02
 3.500000000E+00 -7.000000000E-01 1.474395561E-02
 3.500000000E+00 -6.500000000E-01 1.624755190E-02
 3.500000000E+00 -6.000000000E-01 1.788122510E-02
 3.500000000E+00 -5.500000000E-01 1.957744226E-02
 3.500000000E+00 -5.000000000E-01 2.133502079E-02
 3.500000000E+00 -4.500000000E-01 2.308884496E-02
 3.500000000E+00 -4.000000000E-01 2.494679116E-02
 3.500000000E+00 -3.500000000E-01 2.680844584E-02
 3.500000000E+00 -3.000000000E-01 2.850527698E-02
 3.500000000E+00 -2.500000000E-01 2.954531348E-02
 3.500000000E+00 -2.000000000E-01 2.989030818E-02
 3.500000000E+00 -1.500000000E-01 2.961902785E-02
 3.500000000E+00 -1.000000000E-01 2.908323992E-02
 3.500000000E+00 -5.000000000E-02 2.863645664E-02
 3.500000000E+00 -2.752242878E-12 2.884824401E-02
 3.500000000E+00 5.000000000E-02 2.946213384E-02
 3.500000000E+00 1.000000000E-01 2.979642016E-02
 3.500000000E+00 1.500000000E-01 2.931961588E-02
 3.500000000E+00 2.000000000E-01 2.821492181E-02
 3.500000000E+00 2.500000000E-01 2.649991796E-02
 3.500000000E+00 3.000000000E-01 2.464121898E-02
 3.500000000E+00 3.500000000E-01 2.290649771E-02
 3.500000000E+00 4.000000000E-01 2.114362393E-02
 3.500000000E+00 4.500000000E-01 1.927047463E-02
 3.500000000E+00 5.000000000E-01 1.740833236E-02
 3.500000000E+00 5.500000000E-01 1.581279090E-02
 3.500000000E+00 6.000000000E-01 1.476117418E-02
 3.500000000E+00 6.500000000E-01 1.429439154E-02
 3.500000000E+00 7.000000000E-01 1.335022565E-02
 3.500000000E+00 7.500000000E-01 1.029830215E-02
 3.500000000E+00 8.000000000E-01 3.137229647E-03
 3.500000000E+00 8.500000000E-01 -8.568989415E-03
 3.500000000E+00 9.000000000E-01 -2.298499060E-02
 3.500000000E+00 9.500000000E-01 -3.732838215E-02
 3.450000000E+00 1.000000000E+00 -1.646574762E-02
 3.400000000E+00 1.000000000E+00 -5.529673222E-03
 3.350000000E+00 1.000000000E+00 -1.456364777E-03
 3.300000000E+00 1.000000000E+00 -6.435471707E-04
 3.250000000E+00 1.000000000E+00 -2.079048061E-04
 3.200000000E+00 1.000000000E+00 -8.695771281E-04
 3.150000000E+00 1.000000000E+00 -1.151014785E-03
 3.100000000E+00 1.000000000E+00 -2.182755710E-03
 3.050000000E+00 1.000000000E+00 -3.161482146E-03
 3.000000000E+00 1.000000000E+00 -3.929851914E-03
 2.950000000E+00 1.000000000E+00 -5.352433826E-03
 2.900000000E+00 1.000000000E+00 -5.991370471E-03
 2.850000000E+00 1.000000000E+00 -7.280146798E-03
 2.800000000E+00 1.000000000E+00 -8.427591183E-03
 2.750000000E+00 1.000000000E+00 -9.646436602E-03
 2.700000000E+00 1.000000000E+00 -1.064031951E-02
 2.650000000E+00 1.000000000E+00 -1.205186733E-02
 2.600000000E+00 1.000000000E+00 -1.330130691E-02
 2.550000000E+00 1.000000000E+00 -1.499588815E-02
 2.500000000E+00 1.000000000E+00 -1.630619592E-02
 2.450000000E+00 1.000000000E+00 -1.793025758E-02
 2.400000000E+00 1.000000000E+00 -1.922659544E-02
 2.350000000E+00 1.000000000E+00 -2.127117222E-02
 2.300000000E+00 1.000000000E+00 -2.221812864E-02
 2.250000000E+00 1.000000000E+00 -2.485506978E-02
 2.200000000E+00 1.000000000E+00 -2.648216491E-02
 2.150000000E+00 1.000000000E+00 -2.876040048E-02
 2.100000000E+00 1.000000000E+00 -3.086519718E-02
 2.050000000E+00 1.000000000E+00 -3.311036863E-02
 2.000000000E+00 1.000000000E+00 -3.587768676E-02
 1.950000000E+00 1.000000000E+00 -3.837482867E-02
 1.900000000E+00 1.000000000E+00 -4.187277520E-02
 1.850000000E+00 1.000000000E+00 -4.505483439E-02
 1.800000000E+00 1.000000000E+00 -4.863045997E-02
 1.750000000E+00 1.000000000E+00 -5.240780989E-02
 1.700000000E+00 1.000000000E+00 -5.663898199E-02
 1.650000000E+00 1.000000000E+00 -6.124444658E-02
 1.600000000E+00 1.000000000E+00 -6.637294074E-02
 1.550000000E+00 1.000000000E+00 -7.193962123E-02
 1.500000000E+00 1.000000000E+00 -7.809621931E-02
 1.450000000E+00 1.000000000E+00 -8.492570554E-02
 1.400000000E+00 1.000000000E+00 -9.178374060E-02
 1.350000000E+00 1.000000000E+00 -9.990693220E-02
 1.300000000E+00 1.000000000E+00 -1.076776083E-01
 1.250000000E+00 1.000000000E+00 -1.162806660E-01
 1.200000000E+00 1.000000000E+00 -1.252753066E-01
 1.150000000E+00 1.000000000E+00 -1.343007846E-01
 1.100000000E+00 1.000000000E+00 -1.437988166E-01
 1.050000000E+00 1.000000000E+00 -1.521980102E-01
 1.000000000E+00 1.000000000E+00 -1.603319240E-01
 9.500000000E-01 1.000000000E+00 -1.670125776E-01
 9.000000000E-01 1.000000000E+00 -1.709819576E-01
 8.500000000E-01 1.000000000E+00 -1.753956376E-01
 8.000000000E-01 1.000000000E+00 -1.746226477E-01
 7.500000000E-01 1.000000000E+00 -1.734314689E-01
 7.000000000E-01 1.000000000E+00 -1.685097242E-01
 6.500000000E-01 1.000000000E+00 -1.599440311E-01
 6.000000000E-01 1.000000000E+00 -1.498383432E-01
 5.500000000E-01 1.000000000E+00 -1.362455933E-01
 5.000000000E-01 1.000000000E+00 -1.220339218E-01
 4.500000000E-01 1.000000000E+00 -1.047100754E-01
 4.000000000E-01 1.000000000E+00 -8.829604876E-02
 3.500000000E-01 1.000000000E+00 -6.991833018E-02
 3.000000000E-01 1.000000000E+00 -5.315412781E-02
 2.500000000E-01 1.000000000E+00 -3.607074321E-02
 2.000000000E-01 1.000000000E+00 -2.016489339E-02
 1.500000000E-01 1.000000000E+00 -5.254426612E-03
 1.000000000E-01 1.000000000E+00 8.191335297E-03
 5.000000000E-02 1.000000000E+00 1.987665246E-02
 1.733724275E-12 1.000000000E+00 2.973227248E-02
 -5.000000000E-02 1.000000000E+00 3.745288831E-02
 -1.000000000E-01 1.000000000E+00 4.310183873E-02
 -1.500000000E-01 1.000000000E+00 4.675073106E-02
 -2.000000000E-01 1.000000000E+00 4.836259740E-02
 -2.500000000E-01 1.000000000E+00 4.799063038E-02
 -3.000000000E-01 1.000000000E+00 4.573780953E-02
 -3.500000000E-01 1.000000000E+00 4.147281420E-02
 -4.000000000E-01 1.000000000E+00 3.462305728E-02
 -4.500000000E-01 1.000000000E+00 2.331899081E-02
 8.994195764E-01 -7.043301304E-03 4.047550826E-01
 8.239379528E-01 -1.741206260E-02 2.895030272E-01
 9.872887549E-01 -4.472176857E-03 4.725515070E-01
 7.566358569E-01 -2.755070146E-02 1.769701325E-01
 6.910123922E-01 -3.728709417E-02 6.842636178E-02
 6.250742485E-01 -4.907896098E-02 -5.245115302E-02
 5.586262492E-01 -5.895422175E-02 -2.145015294E-01
 4.935724402E-01 -6.669010304E-02 -4.098197623E-01
 4.389250723E-01 -7.275937646E-02 -4.310123942E-01
 3.817417563E-01 -7.543421584E-02 -9.190009891E-01
 3.250380166E-01 -7.561470340E-02 -7.938277715E-01