TITLE     = "Visualization of the solution"
VARIABLES = "x"
"y"
"Pressure_Coefficient"
ZONE T="Zone"
 STRANDID=0, SOLUTIONTIME=0
 Nodes=12165, Elements=23748, ZONETYPE=FEQuadrilateral
 DATAPACKING=POINT
 DT=(DOUBLE DOUBLE DOUBLE )
 9.999948144E-01 5.111349747E-04 3.145308629E-01
 9.895666242E-01 2.562822076E-03 2.715845114E-01
 9.773325324E-01 4.992554896E-03 1.815809033E-01
 9.606748819E-01 8.241645060E-03 1.193035037E-01
 9.453114271E-01 1.125850622E-02 6.344460008E-02
 9.288955927E-01 1.443802658E-02 1.901252040E-02
 9.171524048E-01 1.671110094E-02 -1.840945234E-02
 9.051865935E-01 1.900593750E-02 -5.992934226E-02
 8.931907415E-01 2.121231519E-02 -7.140386552E-02
 8.814063668E-01 2.342730574E-02 -1.170552759E-01
 8.689399958E-01 2.567431144E-02 -1.408915382E-01
 8.562287092E-01 2.792969532E-02 -1.697605592E-01
 8.436054587E-01 3.013392724E-02 -2.101877046E-01
 8.329563737E-01 3.186823428E-02 -2.014290848E-01
 8.212588429E-01 3.383272514E-02 -2.406577571E-01
 8.081198335E-01 3.593460098E-02 -2.561864244E-01
 7.955380082E-01 3.790677711E-02 -2.736971633E-01
 7.826437354E-01 3.989824653E-02 -2.983693827E-01
 7.702682018E-01 4.175369814E-02 -3.140866340E-01
 7.581765056E-01 4.353935644E-02 -3.343472581E-01
 7.449503541E-01 4.546535388E-02 -3.669244265E-01
 7.310305238E-01 4.741443321E-02 -3.893357817E-01
 7.204606533E-01 4.884147644E-02 -4.007748852E-01
 7.096514702E-01 5.029817671E-02 -4.287204878E-01
 6.980689764E-01 5.178784207E-02 -4.427660624E-01
 6.845838428E-01 5.350614339E-02 -4.828753792E-01
 6.717613339E-01 5.504046008E-02 -5.089100423E-01
 6.624587774E-01 5.612317100E-02 -5.224476309E-01
 6.509019136E-01 5.740462244E-02 -5.323041240E-01
 6.388350725E-01 5.868443474E-02 -5.526458501E-01
 6.272720098E-01 5.988688394E-02 -5.932149015E-01
 6.159031391E-01 6.097418070E-02 -5.647295380E-01
 6.050302386E-01 6.196540967E-02 -5.242033425E-01
 5.924175978E-01 6.305876374E-02 -6.676208183E-01
 5.813089013E-01 6.395387650E-02 -8.807763938E-01
 5.679692030E-01 6.491684169E-02 -8.805565029E-01
 5.560801029E-01 6.571824849E-02 -8.610343134E-01
 5.445722342E-01 6.641443819E-02 -8.557996240E-01
 5.343580246E-01 6.698693335E-02 -8.375475504E-01
 5.232831836E-01 6.751272082E-02 -8.282286668E-01
 5.115368366E-01 6.805949658E-02 -8.229335169E-01
 5.002909303E-01 6.846855581E-02 -7.869172709E-01
 4.873456061E-01 6.887584925E-02 -7.805581103E-01
 4.738209844E-01 6.921733916E-02 -7.613771717E-01
 4.601682425E-01 6.944818050E-02 -7.375451155E-01
 4.470295608E-01 6.958605349E-02 -7.395475432E-01
 4.344392717E-01 6.967768073E-02 -7.420355484E-01
 4.219759703E-01 6.968188286E-02 -7.123197480E-01
 4.095602930E-01 6.960050762E-02 -6.824477893E-01
 3.980525434E-01 6.946583092E-02 -6.668099630E-01
 3.855849504E-01 6.926533580E-02 -6.577156417E-01
 3.743297756E-01 6.901516020E-02 -6.413672042E-01
 3.615766168E-01 6.868450344E-02 -6.379144005E-01
 3.487630486E-01 6.826505810E-02 -6.184211657E-01
 3.355566561E-01 6.776235253E-02 -6.072067740E-01
 3.240323365E-01 6.726022065E-02 -5.954198360E-01
 3.113253713E-01 6.663799286E-02 -5.839249036E-01
 2.978749871E-01 6.589333713E-02 -5.627775885E-01
 2.836177647E-01 6.500507146E-02 -5.479183437E-01
 2.710443437E-01 6.416023523E-02 -5.430706046E-01
 2.586955726E-01 6.322842091E-02 -5.171963440E-01
 2.459295094E-01 6.219251081E-02 -4.997231691E-01
 2.333560735E-01 6.110002473E-02 -4.894992057E-01
 2.207654417E-01 5.992082879E-02 -4.774103845E-01
 2.091004997E-01 5.873772874E-02 -4.595307556E-01
 1.970737129E-01 5.744204298E-02 -4.455233865E-01
 1.846206784E-01 5.599302053E-02 -4.259045796E-01
 1.727679670E-01 5.452179164E-02 -4.091725013E-01
 1.615849882E-01 5.303621665E-02 -3.862731969E-01
 1.496197283E-01 5.135539174E-02 -3.744881674E-01
 1.389753371E-01 4.974487796E-02 -3.474610116E-01
 1.271884292E-01 4.785012081E-02 -3.230864212E-01
 1.160177439E-01 4.593835399E-02 -3.027382857E-01
 1.053819209E-01 4.399549216E-02 -2.816102711E-01
 9.523499012E-02 4.200128838E-02 -2.506508106E-01
 8.427906781E-02 3.969669715E-02 -2.168038643E-01
 7.258506864E-02 3.702484071E-02 -1.715913768E-01
 6.301744282E-02 3.465143219E-02 -1.408956549E-01
 5.296204612E-02 3.193761781E-02 -8.897317386E-02
 4.472520202E-02 2.949609980E-02 -4.571956547E-02
 3.783070669E-02 2.727623656E-02 -7.635063119E-04
 3.166398033E-02 2.511795238E-02 5.522854937E-02
 2.609416470E-02 2.297977358E-02 1.050041034E-01
 2.213452756E-02 2.133243158E-02 1.593627296E-01
 1.821946725E-02 1.956837811E-02 2.133438664E-01
 1.507025957E-02 1.802554727E-02 2.782003544E-01
 1.215888932E-02 1.645975932E-02 3.413904706E-01
 9.999183007E-03 1.519878488E-02 3.942985985E-01
 8.170989342E-03 1.404266618E-02 4.519895830E-01
 6.519544404E-03 1.289784163E-02 5.350380278E-01
 4.339154810E-03 1.120432373E-02 6.543982567E-01
 2.373230178E-03 9.387535974E-03 7.708559717E-01
 7.789031952E-04 7.537580095E-03 9.592322735E-01
 -7.890774286E-04 4.817523994E-03 1.140117457E+00
 -1.311449450E-03 2.858001273E-03 1.202493797E+00
 -1.349116093E-03 1.374020823E-03 1.118416918E+00
 -1.088428078E-03 -4.028534022E-05 9.819759781E-01
 -5.824141554E-04 -1.336249290E-03 7.759772242E-01
 3.956019355E-04 -2.911394462E-03 5.629165896E-01
 1.727080904E-03 -4.422030877E-03 3.402984014E-01
 3.553390736E-03 -5.993815139E-03 1.865203562E-01
 5.249349400E-03 -7.182127330E-03 5.577243122E-02
 7.108971011E-03 -8.300447837E-03 -1.761836390E-02
 8.688827977E-03 -9.143039584E-03 -7.398848301E-02
 1.080412790E-02 -1.016023010E-02 -1.038802556E-01
 1.315793861E-02 -1.117311511E-02 -1.405601804E-01
 1.649111323E-02 -1.245392952E-02 -1.695658489E-01
 1.934378967E-02 -1.343680639E-02 -2.027452396E-01
 2.309390903E-02 -1.461552735E-02 -2.109139736E-01
 2.855273522E-02 -1.614391245E-02 -2.149407796E-01
 3.452330083E-02 -1.763628609E-02 -2.264902247E-01
 4.192400351E-02 -1.928183436E-02 -2.290051873E-01
 4.973744601E-02 -2.085489966E-02 -2.317320498E-01
 5.930534750E-02 -2.259424701E-02 -2.341339137E-01
 6.831159443E-02 -2.408295684E-02 -2.387903542E-01
 7.863587141E-02 -2.566721849E-02 -2.412554608E-01
 8.916230500E-02 -2.716220543E-02 -2.466004943E-01
 9.935085475E-02 -2.850895934E-02 -2.501078476E-01
 1.107695028E-01 -2.992760204E-02 -2.549887346E-01
 1.224303171E-01 -3.128765151E-02 -2.624450815E-01
 1.345259398E-01 -3.261868283E-02 -2.721300750E-01
 1.456187814E-01 -3.376681730E-02 -2.822633576E-01
 1.570602357E-01 -3.488178924E-02 -2.894680939E-01
 1.696457267E-01 -3.603992984E-02 -2.988878035E-01
 1.816912293E-01 -3.708595783E-02 -3.124146375E-01
 1.938005835E-01 -3.806782141E-02 -3.221985840E-01
 2.048612684E-01 -3.891250864E-02 -3.347569589E-01
 2.163494229E-01 -3.973434865E-02 -3.475360772E-01
 2.286586910E-01 -4.054195061E-02 -3.558156221E-01
 2.421244830E-01 -4.136472195E-02 -3.734205948E-01
 2.546361685E-01 -4.205051064E-02 -3.887950487E-01
 2.669802010E-01 -4.265419021E-02 -4.024124851E-01
 2.782047689E-01 -4.313413799E-02 -4.141182730E-01
 2.907652259E-01 -4.360095039E-02 -4.260887125E-01
 3.032492995E-01 -4.398525134E-02 -4.420288721E-01
 3.160538971E-01 -4.428523779E-02 -4.539327899E-01
 3.280148506E-01 -4.447915778E-02 -4.663465992E-01
 3.402041495E-01 -4.457465187E-02 -4.676147939E-01
 3.513185680E-01 -4.459725693E-02 -4.810868575E-01
 3.623130023E-01 -4.451900721E-02 -4.805022315E-01
 3.726242483E-01 -4.437276721E-02 -4.782528828E-01
 3.831106424E-01 -4.415481910E-02 -4.827407945E-01
 3.944264054E-01 -4.380036518E-02 -4.629179171E-01
 4.073944390E-01 -4.328699782E-02 -4.405259641E-01
 4.197765589E-01 -4.270458966E-02 -4.366777229E-01
 4.315492809E-01 -4.201130196E-02 -4.074893288E-01
 4.434081018E-01 -4.121877253E-02 -3.783546434E-01
 4.545736015E-01 -4.037782922E-02 -3.495373008E-01
 4.656417668E-01 -3.947118297E-02 -3.221046837E-01
 4.773699939E-01 -3.842376918E-02 -2.899980272E-01
 4.877587855E-01 -3.741814196E-02 -2.526159857E-01
 5.003420115E-01 -3.616891429E-02 -2.263176527E-01
 5.137400031E-01 -3.473825753E-02 -1.853056693E-01
 5.269296169E-01 -3.328873217E-02 -1.546912969E-01
 5.404962897E-01 -3.174040094E-02 -1.214717490E-01
 5.523189306E-01 -3.035289422E-02 -9.103431071E-02
 5.652008653E-01 -2.882794105E-02 -6.505674679E-02
 5.775260329E-01 -2.734161913E-02 -3.739017142E-02
 5.886463523E-01 -2.599884197E-02 -1.600633696E-02
 6.009867787E-01 -2.450191975E-02 7.339406138E-03
 6.158937216E-01 -2.269508690E-02 3.208979287E-02
 6.302484274E-01 -2.094434202E-02 6.060538560E-02
 6.459355950E-01 -1.906894892E-02 8.334909996E-02
 6.590526700E-01 -1.753049716E-02 1.002322159E-01
 6.723221540E-01 -1.598447934E-02 1.183826018E-01
 6.844522357E-01 -1.458653528E-02 1.351521616E-01
 6.968640685E-01 -1.315882150E-02 1.578278941E-01
 7.112511992E-01 -1.159206498E-02 1.667589555E-01
 7.242200971E-01 -1.017009374E-02 1.881629123E-01
 7.367472649E-01 -8.850120939E-03 2.002635020E-01
 7.499359250E-01 -7.470263168E-03 2.217319022E-01
 7.614218593E-01 -6.327403244E-03 2.347242999E-01
 7.746295333E-01 -5.085284822E-03 2.426823294E-01
 7.857281566E-01 -4.033591133E-03 2.648213131E-01
 7.985346317E-01 -2.918923739E-03 2.746561908E-01
 8.098797798E-01 -1.993885031E-03 2.836568738E-01
 8.215386271E-01 -1.060934737E-03 3.028990998E-01
 8.350648284E-01 -9.983916243E-05 3.130072284E-01
 8.477315307E-01 7.087364211E-04 3.245040399E-01
 8.596972227E-01 1.394992461E-03 3.377353151E-01
 8.723558187E-01 1.991672441E-03 3.448019659E-01
 8.848677278E-01 2.471177373E-03 3.538663648E-01
 8.986490965E-01 2.837564563E-03 3.563363986E-01
 9.090420008E-01 3.009348176E-03 3.602765144E-01
 9.193805456E-01 3.083210904E-03 3.595080191E-01
 9.288965464E-01 3.068786347E-03 3.585561234E-01
 9.367740154E-01 2.995137824E-03 3.587151524E-01
 9.481772184E-01 2.798442729E-03 3.535426925E-01
 9.599068761E-01 2.480088966E-03 3.481285428E-01
 9.746323824E-01 1.911531086E-03 3.373243711E-01
 9.877827764E-01 1.282194164E-03 3.335983223E-01
 -5.000000000E-01 -1.000000000E+00 1.402115890E-02
 3.500000000E+00 -1.000000000E+00 7.775369701E-03
 3.500000000E+00 1.000000000E+00 -3.341780110E-02
 -5.000000000E-01 1.000000000E+00 1.283127351E-02
 9.947807193E-01 1.536978525E-03 3.496871982E-01
 9.834495783E-01 3.777688486E-03 2.207352295E-01
 9.690037072E-01 6.617099978E-03 1.487005955E-01
 9.529931545E-01 9.750075638E-03 8.965172912E-02
 9.371035099E-01 1.284826640E-02 4.034155530E-02
 9.230239987E-01 1.557456376E-02 5.961904917E-05
 9.111694992E-01 1.785851922E-02 -4.288332522E-02
 8.991886675E-01 2.010912634E-02 -6.090020223E-02
 8.872985542E-01 2.231981046E-02 -9.833858850E-02
 8.751731813E-01 2.455080859E-02 -1.287985421E-01
 8.625843525E-01 2.680200338E-02 -1.528773526E-01
 8.499170840E-01 2.903181128E-02 -1.970857283E-01
 8.382809162E-01 3.100108076E-02 -1.972887950E-01
 8.271076083E-01 3.285047971E-02 -2.252817002E-01
 8.146893382E-01 3.488366306E-02 -2.482784672E-01
 8.018289208E-01 3.692068905E-02 -2.635401427E-01
 7.890908718E-01 3.890251182E-02 -2.872349083E-01
 7.764559686E-01 4.082597233E-02 -3.057950271E-01
 7.642223537E-01 4.264652729E-02 -3.225917750E-01
 7.515634298E-01 4.450235516E-02 -3.518246502E-01
 7.379904389E-01 4.643989354E-02 -3.798036658E-01
 7.257455885E-01 4.812795483E-02 -3.909247919E-01
 7.150560617E-01 4.956982657E-02 -4.193004024E-01
 7.038602233E-01 5.104300939E-02 -4.309151879E-01
 6.913264096E-01 5.264699273E-02 -4.666043544E-01
 6.781725883E-01 5.427330174E-02 -4.922260553E-01
 6.566803455E-01 5.676389672E-02 -5.296435786E-01
 6.448684931E-01 5.804452859E-02 -5.357590969E-01
 6.330535412E-01 5.928565934E-02 -5.812873568E-01
 6.215875745E-01 6.043053232E-02 -5.838234006E-01
 6.104666889E-01 6.146979518E-02 -5.385889247E-01
 5.987239182E-01 6.251208670E-02 -5.598182749E-01
 5.868632495E-01 6.350632012E-02 -8.044429555E-01
 5.746390522E-01 6.443535909E-02 -8.909637846E-01
 5.620246530E-01 6.531754509E-02 -8.697367607E-01
 5.503261685E-01 6.606634334E-02 -8.552456693E-01
 5.394651294E-01 6.670068577E-02 -8.531413947E-01
 5.288206041E-01 6.724982709E-02 -8.227029844E-01
 5.174100101E-01 6.778610870E-02 -8.371684816E-01
 5.059138834E-01 6.826402619E-02 -7.990977748E-01
 4.938182682E-01 6.867220253E-02 -7.839796109E-01
 4.805832952E-01 6.904659420E-02 -7.744545859E-01
 4.669946134E-01 6.933275983E-02 -7.466848378E-01
 4.535989016E-01 6.951711699E-02 -7.334908314E-01
 4.407344162E-01 6.963186711E-02 -7.464503133E-01
 4.282076210E-01 6.967978179E-02 -7.293873920E-01
 4.157681316E-01 6.964119524E-02 -6.946768474E-01
 4.038064182E-01 6.953316927E-02 -6.726089631E-01
 3.918187469E-01 6.936558336E-02 -6.641540986E-01
 3.799573630E-01 6.914024800E-02 -6.468204707E-01
 3.679531962E-01 6.884983182E-02 -6.427570781E-01
 3.551698327E-01 6.847478077E-02 -6.276659240E-01
 3.421598524E-01 6.801370531E-02 -6.118125167E-01
 3.297944963E-01 6.751128659E-02 -6.014469617E-01
 3.176788539E-01 6.694910675E-02 -5.907338547E-01
 3.046001792E-01 6.626566499E-02 -5.752330637E-01
 2.907463759E-01 6.544920430E-02 -5.510083451E-01
 2.773310542E-01 6.458265334E-02 -5.491210902E-01
 2.648699582E-01 6.369432807E-02 -5.296807985E-01
 2.523125410E-01 6.271046586E-02 -5.070700468E-01
 2.396427915E-01 6.164626777E-02 -4.946633241E-01
 2.270607576E-01 6.051042676E-02 -4.846266439E-01
 2.149329707E-01 5.932927877E-02 -4.672916078E-01
 2.030871063E-01 5.808988586E-02 -4.543347428E-01
 1.908471957E-01 5.671753176E-02 -4.349621907E-01
 1.786943227E-01 5.525740609E-02 -4.181233155E-01
 1.671764776E-01 5.377900414E-02 -3.970996813E-01
 1.556023583E-01 5.219580419E-02 -3.806781185E-01
 1.442975327E-01 5.055013485E-02 -3.624002594E-01
 1.330818832E-01 4.879749939E-02 -3.347833632E-01
 1.216030866E-01 4.689423740E-02 -3.126120687E-01
 1.106998324E-01 4.496692307E-02 -2.931995209E-01
 1.003084555E-01 4.299839027E-02 -2.669483417E-01
 8.975702897E-02 4.084899276E-02 -2.365875876E-01
 7.843206823E-02 3.836076893E-02 -1.995423668E-01
 5.798974447E-02 3.329452500E-02 -1.237157635E-01
 7.347373292E-02 -2.487508766E-02 -2.397014858E-01
 8.389908820E-02 -2.641471196E-02 -2.446385778E-01
 9.425657988E-02 -2.783558238E-02 -2.493738064E-01
 1.050601788E-01 -2.921828069E-02 -2.515693203E-01
 1.165999100E-01 -3.060762677E-02 -2.589639769E-01
 1.284781285E-01 -3.195316717E-02 -2.668600961E-01
 1.400723606E-01 -3.319275007E-02 -2.781434370E-01
 1.513395086E-01 -3.432430327E-02 -2.859337433E-01
 1.633529812E-01 -3.546085954E-02 -2.935263004E-01
 1.756684780E-01 -3.656294383E-02 -3.055979388E-01
 1.877459064E-01 -3.757688962E-02 -3.177307797E-01
 1.993309259E-01 -3.849016502E-02 -3.285580509E-01
 2.106053457E-01 -3.932342865E-02 -3.407636049E-01
 2.225040570E-01 -4.013814963E-02 -3.520505941E-01
 2.353915870E-01 -4.095333628E-02 -3.626015262E-01
 2.483803257E-01 -4.170761630E-02 -3.825721385E-01
 2.608081847E-01 -4.235235043E-02 -3.952313759E-01
 2.725924850E-01 -4.289416410E-02 -4.094876160E-01
 2.844849974E-01 -4.336754419E-02 -4.185944551E-01
 2.970072627E-01 -4.379310086E-02 -4.339933375E-01
 3.096515983E-01 -4.413524456E-02 -4.482928074E-01
 3.220343739E-01 -4.438219778E-02 -4.606173261E-01
 3.341095001E-01 -4.452690482E-02 -4.681622689E-01
 3.457613587E-01 -4.458595440E-02 -4.723770063E-01
 3.568157852E-01 -4.455813207E-02 -4.841786890E-01
 3.674686253E-01 -4.444588721E-02 -4.786649148E-01
 3.778674453E-01 -4.426379316E-02 -4.792579578E-01
 3.887685239E-01 -4.397759214E-02 -4.766916541E-01
 4.009104222E-01 -4.354368150E-02 -4.489676943E-01
 4.135854989E-01 -4.299579374E-02 -4.374903992E-01
 4.256629199E-01 -4.235794581E-02 -4.271609444E-01
 4.374786913E-01 -4.161503725E-02 -3.909320125E-01
 4.489908516E-01 -4.079830088E-02 -3.655664455E-01
 4.601076841E-01 -3.992450610E-02 -3.353287058E-01
 4.715058804E-01 -3.894747607E-02 -3.066565120E-01
 4.825643897E-01 -3.792095557E-02 -2.732511702E-01
 4.940503985E-01 -3.679352812E-02 -2.368602080E-01
 5.070410073E-01 -3.545358591E-02 -2.082804021E-01
 5.203348100E-01 -3.401349485E-02 -1.687131537E-01
 5.337129533E-01 -3.251456656E-02 -1.385617105E-01
 5.464076102E-01 -3.104664758E-02 -1.065499855E-01
 5.587598979E-01 -2.959041763E-02 -7.740209360E-02
 5.713634491E-01 -2.808478009E-02 -5.171719466E-02
 5.830861926E-01 -2.667023055E-02 -2.597992547E-02
 5.948165655E-01 -2.525038086E-02 -4.766075094E-03
 6.084402502E-01 -2.359850332E-02 1.951554077E-02
 6.230710745E-01 -2.181971446E-02 4.558439987E-02
 6.380920112E-01 -2.000664547E-02 7.227669627E-02
 6.524941325E-01 -1.829972304E-02 9.301483294E-02
 6.656874120E-01 -1.675748825E-02 1.090595397E-01
 6.783871949E-01 -1.528550731E-02 1.267796485E-01
 6.906581521E-01 -1.387267839E-02 1.452807951E-01
 7.040576339E-01 -1.237544324E-02 1.638185953E-01
 7.177356482E-01 -1.088107936E-02 1.760415351E-01
 7.304836810E-01 -9.510107338E-03 1.952962543E-01
 7.433415949E-01 -8.160192054E-03 2.095180764E-01
 7.556788921E-01 -6.898833206E-03 2.295271450E-01
 7.680256963E-01 -5.706344033E-03 2.391213123E-01
 7.801788449E-01 -4.559437977E-03 2.517147154E-01
 7.921313941E-01 -3.476257436E-03 2.701538304E-01
 8.042072058E-01 -2.456404385E-03 2.802067949E-01
 8.157092035E-01 -1.527409884E-03 2.910214173E-01
 8.283017278E-01 -5.803869499E-04 3.081453290E-01
 8.413981795E-01 3.044486292E-04 3.192080651E-01
 8.537143767E-01 1.051864441E-03 3.306451132E-01
 8.660265207E-01 1.693332451E-03 3.413515692E-01
 8.786117733E-01 2.231424907E-03 3.491109591E-01
 8.917584121E-01 2.654370968E-03 3.548073980E-01
 9.038455486E-01 2.923456370E-03 3.604658141E-01
 9.142112732E-01 3.046279540E-03 3.604845493E-01
 9.424756169E-01 2.896790276E-03 3.543522431E-01
 9.540420473E-01 2.639265847E-03 3.509351389E-01
 9.672696292E-01 2.195810026E-03 3.415795666E-01
 9.812075794E-01 1.596862625E-03 3.370149878E-01
 9.938887954E-01 8.966645692E-04 3.580935892E-01
 -5.000000000E-01 9.500000000E-01 2.099232423E-02
 -5.000000000E-01 9.000000000E-01 3.180274002E-02
 -5.000000000E-01 8.500000000E-01 3.994935999E-02
 -5.000000000E-01 8.000000000E-01 4.749906869E-02
 -5.000000000E-01 7.500000000E-01 5.438907435E-02
 -5.000000000E-01 7.000000000E-01 6.152724733E-02
 -5.000000000E-01 6.500000000E-01 6.859731366E-02
 -5.000000000E-01 6.000000000E-01 7.592880736E-02
 -5.000000000E-01 5.500000000E-01 8.353843163E-02
 -5.000000000E-01 5.000000000E-01 9.122292263E-02
 -5.000000000E-01 4.500000000E-01 9.918076733E-02
 -5.000000000E-01 4.000000000E-01 1.069912509E-01
 -5.000000000E-01 3.500000000E-01 1.147338819E-01
 -5.000000000E-01 3.000000000E-01 1.220453458E-01
 -5.000000000E-01 2.500000000E-01 1.289411998E-01
 -5.000000000E-01 2.000000000E-01 1.349495162E-01
 -5.000000000E-01 1.500000000E-01 1.399014692E-01
 -5.000000000E-01 1.000000000E-01 1.434443793E-01
 -5.000000000E-01 5.000000000E-02 1.457874247E-01
 -5.000000000E-01 2.752242878E-12 1.464209418E-01
 -5.000000000E-01 -5.000000000E-02 1.455934214E-01
 -5.000000000E-01 -1.000000000E-01 1.432328552E-01
 -5.000000000E-01 -1.500000000E-01 1.395441353E-01
 -5.000000000E-01 -2.000000000E-01 1.346904336E-01
 -5.000000000E-01 -2.500000000E-01 1.289282198E-01
 -5.000000000E-01 -3.000000000E-01 1.223993044E-01
 -5.000000000E-01 -3.500000000E-01 1.154883917E-01
 -5.000000000E-01 -4.000000000E-01 1.082059222E-01
 -5.000000000E-01 -4.500000000E-01 1.009103509E-01
 -5.000000000E-01 -5.000000000E-01 9.363830160E-02
 -5.000000000E-01 -5.500000000E-01 8.632380011E-02
 -5.000000000E-01 -6.000000000E-01 7.915115511E-02
 -5.000000000E-01 -6.500000000E-01 7.214428734E-02
 -5.000000000E-01 -7.000000000E-01 6.522710003E-02
 -5.000000000E-01 -7.500000000E-01 5.823609110E-02
 -5.000000000E-01 -8.000000000E-01 5.105741070E-02
 -5.000000000E-01 -8.500000000E-01 4.338962282E-02
 -5.000000000E-01 -9.000000000E-01 3.456214438E-02
 -5.000000000E-01 -9.500000000E-01 2.285470408E-02
 -4.500000000E-01 -1.000000000E+00 1.893873535E-02
 -4.000000000E-01 -1.000000000E+00 2.814780149E-02
 -3.500000000E-01 -1.000000000E+00 3.422686119E-02
 -3.000000000E-01 -1.000000000E+00 3.823901482E-02
 -2.500000000E-01 -1.000000000E+00 4.082689477E-02
 -2.000000000E-01 -1.000000000E+00 4.225604677E-02
 -1.500000000E-01 -1.000000000E+00 4.237984195E-02
 -1.000000000E-01 -1.000000000E+00 4.133457891E-02
 -5.000000000E-02 -1.000000000E+00 3.918616948E-02
 -9.424683256E-13 -1.000000000E+00 3.592602415E-02
 5.000000000E-02 -1.000000000E+00 3.174357327E-02
 1.000000000E-01 -1.000000000E+00 2.686073991E-02
 1.500000000E-01 -1.000000000E+00 2.147199219E-02
 2.000000000E-01 -1.000000000E+00 1.595482812E-02
 2.500000000E-01 -1.000000000E+00 1.052976962E-02
 3.000000000E-01 -1.000000000E+00 5.507883976E-03
 3.500000000E-01 -1.000000000E+00 1.248960796E-03
 4.000000000E-01 -1.000000000E+00 -2.044759353E-03
 4.500000000E-01 -1.000000000E+00 -4.068217944E-03
 5.000000000E-01 -1.000000000E+00 -4.785947635E-03
 5.500000000E-01 -1.000000000E+00 -4.185843681E-03
 6.000000000E-01 -1.000000000E+00 -2.363038894E-03
 6.500000000E-01 -1.000000000E+00 6.798147073E-04
 7.000000000E-01 -1.000000000E+00 4.674468517E-03
 7.500000000E-01 -1.000000000E+00 9.327925046E-03
 8.000000000E-01 -1.000000000E+00 1.440164203E-02
 8.500000000E-01 -1.000000000E+00 1.966416582E-02
 9.000000000E-01 -1.000000000E+00 2.482863111E-02
 9.500000000E-01 -1.000000000E+00 2.975421003E-02
 1.000000000E+00 -1.000000000E+00 3.430317722E-02
 1.050000000E+00 -1.000000000E+00 3.836166385E-02
 1.100000000E+00 -1.000000000E+00 4.180066086E-02
 1.150000000E+00 -1.000000000E+00 4.465126046E-02
 1.200000000E+00 -1.000000000E+00 4.686855440E-02
 1.250000000E+00 -1.000000000E+00 4.850525474E-02
 1.300000000E+00 -1.000000000E+00 4.958719611E-02
 1.350000000E+00 -1.000000000E+00 5.019354308E-02
 1.400000000E+00 -1.000000000E+00 5.036851086E-02
 1.450000000E+00 -1.000000000E+00 5.017138214E-02
 1.500000000E+00 -1.000000000E+00 4.966081068E-02
 1.550000000E+00 -1.000000000E+00 4.891477097E-02
 1.600000000E+00 -1.000000000E+00 4.794448809E-02
 1.650000000E+00 -1.000000000E+00 4.684625957E-02
 1.700000000E+00 -1.000000000E+00 4.559017366E-02
 1.750000000E+00 -1.000000000E+00 4.426903809E-02
 1.800000000E+00 -1.000000000E+00 4.287453714E-02
 1.850000000E+00 -1.000000000E+00 4.145641609E-02
 1.900000000E+00 -1.000000000E+00 4.001612701E-02
 1.950000000E+00 -1.000000000E+00 3.860115198E-02
 2.000000000E+00 -1.000000000E+00 3.716925674E-02
 2.050000000E+00 -1.000000000E+00 3.577615032E-02
 2.100000000E+00 -1.000000000E+00 3.440642787E-02
 2.150000000E+00 -1.000000000E+00 3.305868741E-02
 2.200000000E+00 -1.000000000E+00 3.179566364E-02
 2.250000000E+00 -1.000000000E+00 3.057406050E-02
 2.300000000E+00 -1.000000000E+00 2.940197602E-02
 2.350000000E+00 -1.000000000E+00 2.830224660E-02
 2.400000000E+00 -1.000000000E+00 2.722014247E-02
 2.450000000E+00 -1.000000000E+00 2.621038725E-02
 2.500000000E+00 -1.000000000E+00 2.526871031E-02
 2.550000000E+00 -1.000000000E+00 2.438934346E-02
 2.600000000E+00 -1.000000000E+00 2.354487242E-02
 2.650000000E+00 -1.000000000E+00 2.277735693E-02
 2.700000000E+00 -1.000000000E+00 2.202794171E-02
 2.750000000E+00 -1.000000000E+00 2.134926932E-02
 2.800000000E+00 -1.000000000E+00 2.075039239E-02
 2.850000000E+00 -1.000000000E+00 2.016098320E-02
 2.900000000E+00 -1.000000000E+00 1.964527828E-02
 2.950000000E+00 -1.000000000E+00 1.915581092E-02
 3.000000000E+00 -1.000000000E+00 1.867193794E-02
 3.050000000E+00 -1.000000000E+00 1.826785893E-02
 3.100000000E+00 -1.000000000E+00 1.782862466E-02
 3.150000000E+00 -1.000000000E+00 1.739776957E-02
 3.200000000E+00 -1.000000000E+00 1.694529342E-02
 3.250000000E+00 -1.000000000E+00 1.641386679E-02
 3.300000000E+00 -1.000000000E+00 1.579794168E-02
 3.350000000E+00 -1.000000000E+00 1.495780336E-02
 3.400000000E+00 -1.000000000E+00 1.363808479E-02
 3.450000000E+00 -1.000000000E+00 1.110296619E-02
 3.500000000E+00 -9.500000000E-01 5.912675748E-03
 3.500000000E+00 -9.000000000E-01 6.617024102E-03
 3.500000000E+00 -8.500000000E-01 7.724727783E-03
 3.500000000E+00 -8.000000000E-01 9.085240554E-03
 3.500000000E+00 -7.500000000E-01 1.029472252E-02
 3.500000000E+00 -7.000000000E-01 1.151102564E-02
 3.500000000E+00 -6.500000000E-01 1.266076108E-02
 3.500000000E+00 -6.000000000E-01 1.388700993E-02
 3.500000000E+00 -5.500000000E-01 1.510872911E-02
 3.500000000E+00 -5.000000000E-01 1.637843505E-02
 3.500000000E+00 -4.500000000E-01 1.760527256E-02
 3.500000000E+00 -4.000000000E-01 1.889420221E-02
 3.500000000E+00 -3.500000000E-01 2.015271147E-02
 3.500000000E+00 -3.000000000E-01 2.133330448E-02
 3.500000000E+00 -2.500000000E-01 2.220314118E-02
 3.500000000E+00 -2.000000000E-01 2.258369476E-02
 3.500000000E+00 -1.500000000E-01 2.249399623E-02
 3.500000000E+00 -1.000000000E-01 2.210236461E-02
 3.500000000E+00 -5.000000000E-02 2.191749370E-02
 3.500000000E+00 -2.752242878E-12 2.203473426E-02
 3.500000000E+00 5.000000000E-02 2.228679113E-02
 3.500000000E+00 1.000000000E-01 2.234872190E-02
 3.500000000E+00 1.500000000E-01 2.193050395E-02
 3.500000000E+00 2.000000000E-01 2.092233557E-02
 3.500000000E+00 2.500000000E-01 1.966046901E-02
 3.500000000E+00 3.000000000E-01 1.833978763E-02
 3.500000000E+00 3.500000000E-01 1.704147884E-02
 3.500000000E+00 4.000000000E-01 1.573146085E-02
 3.500000000E+00 4.500000000E-01 1.423249490E-02
 3.500000000E+00 5.000000000E-01 1.278553925E-02
 3.500000000E+00 5.500000000E-01 1.160003782E-02
 3.500000000E+00 6.000000000E-01 1.110119471E-02
 3.500000000E+00 6.500000000E-01 1.122599602E-02
 3.500000000E+00 7.000000000E-01 1.125666755E-02
 3.500000000E+00 7.500000000E-01 8.487317435E-03
 3.500000000E+00 8.000000000E-01 6.102583278E-04
 3.500000000E+00 8.500000000E-01 -1.112143608E-02
 3.500000000E+00 9.000000000E-01 -2.490314938E-02
 3.500000000E+00 9.500000000E-01 -3.813752122E-02
 3.450000000E+00 1.000000000E+00 -1.823136351E-02
 3.400000000E+00 1.000000000E+00 -8.163161166E-03
 3.350000000E+00 1.000000000E+00 -4.747270696E-03
 3.300000000E+00 1.000000000E+00 -3.773506707E-03
 3.250000000E+00 1.000000000E+00 -3.856079146E-03
 3.200000000E+00 1.000000000E+00 -4.253212784E-03
 3.150000000E+00 1.000000000E+00 -5.003710148E-03
 3.100000000E+00 1.000000000E+00 -5.620210879E-03
 3.050000000E+00 1.000000000E+00 -6.849337192E-03
 3.000000000E+00 1.000000000E+00 -7.473508791E-03
 2.950000000E+00 1.000000000E+00 -8.739324160E-03
 2.900000000E+00 1.000000000E+00 -9.756898775E-03
 2.850000000E+00 1.000000000E+00 -1.085361983E-02
 2.800000000E+00 1.000000000E+00 -1.198312959E-02
 2.750000000E+00 1.000000000E+00 -1.328832537E-02
 2.700000000E+00 1.000000000E+00 -1.464038586E-02
 2.650000000E+00 1.000000000E+00 -1.590927802E-02
 2.600000000E+00 1.000000000E+00 -1.734885063E-02
 2.550000000E+00 1.000000000E+00 -1.879523769E-02
 2.500000000E+00 1.000000000E+00 -2.025045412E-02
 2.450000000E+00 1.000000000E+00 -2.194229542E-02
 2.400000000E+00 1.000000000E+00 -2.355738063E-02
 2.350000000E+00 1.000000000E+00 -2.520950386E-02
 2.300000000E+00 1.000000000E+00 -2.719436611E-02
 2.250000000E+00 1.000000000E+00 -2.920130302E-02
 2.200000000E+00 1.000000000E+00 -3.128563230E-02
 2.150000000E+00 1.000000000E+00 -3.352780212E-02
 2.100000000E+00 1.000000000E+00 -3.580158095E-02
 2.050000000E+00 1.000000000E+00 -3.838965768E-02
 2.000000000E+00 1.000000000E+00 -4.109882039E-02
 1.950000000E+00 1.000000000E+00 -4.402877111E-02
 1.900000000E+00 1.000000000E+00 -4.716206826E-02
 1.850000000E+00 1.000000000E+00 -5.056972684E-02
 1.800000000E+00 1.000000000E+00 -5.412892783E-02
 1.750000000E+00 1.000000000E+00 -5.786550050E-02
 1.700000000E+00 1.000000000E+00 -6.238745120E-02
 1.650000000E+00 1.000000000E+00 -6.679486768E-02
 1.600000000E+00 1.000000000E+00 -7.187472536E-02
 1.550000000E+00 1.000000000E+00 -7.714401084E-02
 1.500000000E+00 1.000000000E+00 -8.302544718E-02
 1.450000000E+00 1.000000000E+00 -8.929818656E-02
 1.400000000E+00 1.000000000E+00 -9.604655007E-02
 1.350000000E+00 1.000000000E+00 -1.031708525E-01
 1.300000000E+00 1.000000000E+00 -1.108575418E-01
 1.250000000E+00 1.000000000E+00 -1.187820036E-01
 1.200000000E+00 1.000000000E+00 -1.272329863E-01
 1.150000000E+00 1.000000000E+00 -1.353170040E-01
 1.100000000E+00 1.000000000E+00 -1.432226395E-01
 1.050000000E+00 1.000000000E+00 -1.511713199E-01
 1.000000000E+00 1.000000000E+00 -1.579571586E-01
 9.500000000E-01 1.000000000E+00 -1.640160752E-01
 9.000000000E-01 1.000000000E+00 -1.681327380E-01
 8.500000000E-01 1.000000000E+00 -1.710363853E-01
 8.000000000E-01 1.000000000E+00 -1.705864687E-01
 7.500000000E-01 1.000000000E+00 -1.685671673E-01
 7.000000000E-01 1.000000000E+00 -1.641006136E-01
 6.500000000E-01 1.000000000E+00 -1.563625228E-01
 6.000000000E-01 1.000000000E+00 -1.461959464E-01
 5.500000000E-01 1.000000000E+00 -1.350206545E-01
 5.000000000E-01 1.000000000E+00 -1.210739550E-01
 4.500000000E-01 1.000000000E+00 -1.062024160E-01
 4.000000000E-01 1.000000000E+00 -9.019605512E-02
 3.500000000E-01 1.000000000E+00 -7.440899605E-02
 3.000000000E-01 1.000000000E+00 -5.838715012E-02
 2.500000000E-01 1.000000000E+00 -4.297167957E-02
 2.000000000E-01 1.000000000E+00 -2.853882345E-02
 1.500000000E-01 1.000000000E+00 -1.482797755E-02
 1.000000000E-01 1.000000000E+00 -2.695104224E-03
 5.000000000E-02 1.000000000E+00 7.990376895E-03
 1.733724275E-12 1.000000000E+00 1.699886771E-02
 -5.000000000E-02 1.000000000E+00 2.417996526E-02
 -1.000000000E-01 1.000000000E+00 2.952393648E-02
 -1.500000000E-01 1.000000000E+00 3.303227849E-02
 -2.000000000E-01 1.000000000E+00 3.489685635E-02
 -2.500000000E-01 1.000000000E+00 3.508425301E-02
 -3.000000000E-01 1.000000000E+00 3.368713485E-02
 -3.500000000E-01 1.000000000E+00 3.072164161E-02
 -4.000000000E-01 1.000000000E+00 2.563662616E-02
 -4.500000000E-01 1.000000000E+00 1.726923879E-02
 9.831177181E-01 -3.071950561E-03 3.320313641E-01
 9.007309557E-01 -2.157322313E-03 3.516159671E-01
 8.188393517E-01 -6.398769714E-03 2.928898146E-01
 7.476722324E-01 -1.427818829E-02 2.132106889E-01
 6.757088284E-01 -2.134136898E-02 1.214584108E-01
 6.058626979E-01 -3.003303357E-02 1.388894484E-02
 5.376765883E-01 -3.735781499E-02 -1.268880192E-01
 4.748975508E-01 -4.420031016E-02 -2.903678469E-01
 4.230199418E-01 -4.762900590E-02 -4.211815664E-01
 3.649541376E-01 -4.894734766E-02 -4.713221444E-01
 3.128824601E-01 -4.946617650E-02 -4.434952321E-01