TITLE     = "Visualization of the solution"
VARIABLES = "x"
"y"
"Pressure_Coefficient"
ZONE T="Zone"
 STRANDID=0, SOLUTIONTIME=0
 Nodes=11960, Elements=23339, ZONETYPE=FEQuadrilateral
 DATAPACKING=POINT
 DT=(DOUBLE DOUBLE DOUBLE )
 9.998494387E-01 5.111120990E-04 3.930584296E-01
 9.851767421E-01 3.479547566E-03 2.590870228E-01
 9.719367027E-01 6.197355688E-03 1.879028119E-01
 9.553030133E-01 9.588973597E-03 1.313568357E-01
 9.408419132E-01 1.257797983E-02 6.793171871E-02
 9.273532033E-01 1.521132886E-02 5.773073256E-02
 9.161604643E-01 1.751051284E-02 8.467919945E-03
 9.047895074E-01 1.980617829E-02 -3.614287476E-02
 8.929411173E-01 2.208271809E-02 -4.858180191E-02
 8.810076714E-01 2.439849079E-02 -8.056911718E-02
 8.692349792E-01 2.668569796E-02 -1.302201872E-01
 8.567898273E-01 2.896570787E-02 -1.447584740E-01
 8.446320891E-01 3.118420579E-02 -1.793838983E-01
 8.331205249E-01 3.318035230E-02 -1.824999290E-01
 8.216957450E-01 3.520657495E-02 -2.258077895E-01
 8.090809584E-01 3.730899468E-02 -2.307748602E-01
 7.964714766E-01 3.941361234E-02 -2.591810221E-01
 7.845380306E-01 4.135490954E-02 -2.809125888E-01
 7.724457383E-01 4.328165203E-02 -3.035463350E-01
 7.611812353E-01 4.502920434E-02 -3.198570218E-01
 7.485964894E-01 4.695275053E-02 -3.451696721E-01
 7.352188826E-01 4.893305525E-02 -3.653497980E-01
 7.247275114E-01 5.046172068E-02 -3.893839892E-01
 7.138177156E-01 5.200988799E-02 -4.120044403E-01
 7.022764683E-01 5.360696465E-02 -4.379999005E-01
 6.893797517E-01 5.531723425E-02 -4.561381166E-01
 6.770305037E-01 5.689767748E-02 -4.778148779E-01
 6.664585471E-01 5.820757523E-02 -4.915250240E-01
 6.550328732E-01 5.956420675E-02 -5.051420715E-01
 6.439954042E-01 6.084544212E-02 -5.270166735E-01
 6.322537661E-01 6.211070716E-02 -4.902952805E-01
 6.208866239E-01 6.330332160E-02 -4.235927755E-01
 6.105614901E-01 6.430625916E-02 -6.903876137E-01
 5.988820791E-01 6.542078406E-02 -9.940452822E-01
 5.872014761E-01 6.641508639E-02 -9.365071093E-01
 5.737866759E-01 6.749133766E-02 -9.380870755E-01
 5.612335205E-01 6.844990700E-02 -9.287147429E-01
 5.485464334E-01 6.927674264E-02 -9.018014053E-01
 5.374131799E-01 6.993228942E-02 -8.967972992E-01
 5.255063176E-01 7.058594376E-02 -8.952595106E-01
 5.130307078E-01 7.119835913E-02 -8.706315712E-01
 5.019726157E-01 7.162240148E-02 -8.516145613E-01
 4.889628589E-01 7.210212946E-02 -8.458718600E-01
 4.756236374E-01 7.245115191E-02 -8.164616433E-01
 4.617849588E-01 7.274521887E-02 -8.141271897E-01
 4.481016099E-01 7.295835018E-02 -7.938912197E-01
 4.352363944E-01 7.305292785E-02 -7.715653604E-01
 4.224264324E-01 7.308951765E-02 -7.531601905E-01
 4.096159339E-01 7.300993055E-02 -7.239972782E-01
 3.966216147E-01 7.286923379E-02 -7.224538857E-01
 3.846526742E-01 7.268086821E-02 -7.056027636E-01
 3.728197515E-01 7.240625471E-02 -6.777833294E-01
 3.592798412E-01 7.202958316E-02 -6.770763223E-01
 3.464494348E-01 7.160090655E-02 -6.707371847E-01
 3.331776857E-01 7.106383145E-02 -6.587992048E-01
 3.226666749E-01 7.057913393E-02 -6.425324535E-01
 3.100025654E-01 6.992554665E-02 -6.271846559E-01
 2.971843481E-01 6.917500496E-02 -6.083721851E-01
 2.833821476E-01 6.828154624E-02 -5.965464500E-01
 2.711425722E-01 6.739928573E-02 -5.748344103E-01
 2.591987848E-01 6.646385789E-02 -5.618149145E-01
 2.469006330E-01 6.543806195E-02 -5.547767648E-01
 2.344501466E-01 6.428992003E-02 -5.327937140E-01
 2.222536057E-01 6.308962405E-02 -5.216708075E-01
 2.103153914E-01 6.182164326E-02 -5.055907468E-01
 1.985186487E-01 6.047236174E-02 -4.822524579E-01
 1.861378402E-01 5.896225199E-02 -4.652789898E-01
 1.744073778E-01 5.743996799E-02 -4.520769869E-01
 1.627973616E-01 5.581991747E-02 -4.278038446E-01
 1.511743516E-01 5.409377068E-02 -4.095837506E-01
 1.404002011E-01 5.240419507E-02 -3.963631792E-01
 1.291703284E-01 5.050328001E-02 -3.670761199E-01
 1.180401295E-01 4.850234464E-02 -3.446801216E-01
 1.075062081E-01 4.648861662E-02 -3.174452088E-01
 9.771963954E-02 4.449588805E-02 -2.988164265E-01
 8.711306006E-02 4.218623042E-02 -2.676108921E-01
 7.573048770E-02 3.950916603E-02 -2.336419187E-01
 6.578287482E-02 3.698283434E-02 -2.022463885E-01
 5.602455512E-02 3.428837657E-02 -1.556246601E-01
 4.697518423E-02 3.156334907E-02 -1.149557790E-01
 3.910886869E-02 2.897589840E-02 -7.221800770E-02
 3.220237792E-02 2.649166249E-02 -2.409855342E-02
 2.627803572E-02 2.415003628E-02 2.221352070E-02
 2.190043777E-02 2.226551622E-02 6.991834368E-02
 1.766356453E-02 2.027821541E-02 1.149155302E-01
 1.441320777E-02 1.860565878E-02 1.704457937E-01
 1.154715195E-02 1.698535867E-02 2.160278911E-01
 9.416067973E-03 1.567800343E-02 2.667707124E-01
 7.518466562E-03 1.439840067E-02 3.121249138E-01
 5.795176141E-03 1.312960126E-02 3.966816414E-01
 3.599544289E-03 1.128855161E-02 4.963556753E-01
 1.766763511E-03 9.441299364E-03 6.246180906E-01
 2.562119334E-04 7.520132232E-03 8.101617643E-01
 -1.201091567E-03 4.805362318E-03 1.022988650E+00
 -1.781086554E-03 2.765468089E-03 1.142611026E+00
 -1.942269853E-03 1.126437215E-03 1.195033832E+00
 -1.805937616E-03 -7.781698951E-04 1.206162951E+00
 -1.287022606E-03 -2.815194894E-03 1.127530352E+00
 -1.892576256E-04 -5.259056576E-03 1.004409340E+00
 1.468979055E-03 -7.794733159E-03 8.305215551E-01
 3.713064129E-03 -1.040683128E-02 6.707545860E-01
 5.696585402E-03 -1.232175529E-02 5.406037775E-01
 7.995734923E-03 -1.426247880E-02 4.519494638E-01
 9.764255024E-03 -1.560536493E-02 3.654749934E-01
 1.196204778E-02 -1.714465395E-02 3.064805778E-01
 1.446306426E-02 -1.874492876E-02 2.357158793E-01
 1.782026887E-02 -2.070826478E-02 1.671055476E-01
 2.095953561E-02 -2.238777280E-02 9.158388331E-02
 2.505114861E-02 -2.438861504E-02 3.567970899E-02
 3.049963340E-02 -2.680107951E-02 -2.344535155E-02
 3.630933166E-02 -2.912540920E-02 -8.666003066E-02
 4.330138490E-02 -3.166161850E-02 -1.368885636E-01
 5.082458258E-02 -3.413109109E-02 -1.832122369E-01
 5.973531306E-02 -3.678530827E-02 -2.198408505E-01
 6.841854006E-02 -3.914190084E-02 -2.588285458E-01
 7.871069014E-02 -4.170507938E-02 -2.925910766E-01
 8.845253289E-02 -4.393113777E-02 -3.125180046E-01
 9.895535558E-02 -4.615208134E-02 -3.441621521E-01
 1.100413501E-01 -4.831776395E-02 -3.612517181E-01
 1.214797646E-01 -5.040111393E-02 -3.857296704E-01
 1.331573576E-01 -5.237695947E-02 -4.085846009E-01
 1.433386356E-01 -5.398749188E-02 -4.310771927E-01
 1.546315253E-01 -5.565614253E-02 -4.455177331E-01
 1.664813459E-01 -5.729698017E-02 -4.678958967E-01
 1.779347956E-01 -5.877346918E-02 -4.896007479E-01
 1.895788312E-01 -6.016899645E-02 -5.068933951E-01
 2.000826895E-01 -6.134533137E-02 -5.279846374E-01
 2.112535834E-01 -6.251975894E-02 -5.562203923E-01
 2.233491838E-01 -6.367155910E-02 -5.736019836E-01
 2.355228961E-01 -6.474106014E-02 -6.013878001E-01
 2.472686023E-01 -6.565721333E-02 -6.199255709E-01
 2.593445778E-01 -6.651289761E-02 -6.401056265E-01
 2.702370584E-01 -6.719451398E-02 -6.714948942E-01
 2.826525271E-01 -6.786392629E-02 -6.905993399E-01
 2.946105599E-01 -6.841254234E-02 -7.283731302E-01
 3.076211214E-01 -6.886704266E-02 -7.515987983E-01
 3.192431629E-01 -6.917630136E-02 -7.796840164E-01
 3.320701420E-01 -6.938359141E-02 -8.065667529E-01
 3.427159190E-01 -6.944905967E-02 -8.372981359E-01
 3.544041514E-01 -6.941664219E-02 -8.559422919E-01
 3.653608263E-01 -6.928148121E-02 -8.852296122E-01
 3.761288226E-01 -6.903856993E-02 -9.000003907E-01
 3.880091608E-01 -6.867518276E-02 -9.172658781E-01
 4.012614489E-01 -6.810864806E-02 -9.652746309E-01
 4.136858284E-01 -6.744739413E-02 -8.763067335E-01
 4.265351593E-01 -6.664129347E-02 -5.291762467E-01
 4.390965402E-01 -6.568676978E-02 -5.079031640E-01
 4.518737197E-01 -6.461089849E-02 -5.380598786E-01
 4.640541375E-01 -6.344678998E-02 -4.951613316E-01
 4.764105380E-01 -6.218767539E-02 -4.612162507E-01
 4.885729253E-01 -6.082239002E-02 -4.142212531E-01
 5.013654828E-01 -5.932337791E-02 -3.813382692E-01
 5.151782036E-01 -5.759136751E-02 -3.387897826E-01
 5.284721851E-01 -5.581984669E-02 -2.908791572E-01
 5.411581993E-01 -5.408817902E-02 -2.588407475E-01
 5.544190407E-01 -5.220717564E-02 -2.245093597E-01
 5.676470399E-01 -5.024662614E-02 -1.785640976E-01
 5.807527900E-01 -4.828834161E-02 -1.465688079E-01
 5.934969187E-01 -4.635734856E-02 -1.173227791E-01
 6.064080000E-01 -4.437539354E-02 -8.841511902E-02
 6.202040315E-01 -4.223181680E-02 -5.759024696E-02
 6.342239380E-01 -4.004389420E-02 -3.037918281E-02
 6.484313011E-01 -3.781541437E-02 -4.152839704E-03
 6.613100171E-01 -3.579131886E-02 1.671637337E-02
 6.746592522E-01 -3.365572169E-02 4.808846417E-02
 6.869906187E-01 -3.170683235E-02 6.768966781E-02
 6.990769506E-01 -2.979495749E-02 8.989180302E-02
 7.139026523E-01 -2.745381743E-02 1.158287165E-01
 7.269757986E-01 -2.540529706E-02 1.390433021E-01
 7.385004163E-01 -2.363803424E-02 1.523601528E-01
 7.516663671E-01 -2.158104070E-02 1.847019081E-01
 7.646240592E-01 -1.966532320E-02 1.916572816E-01
 7.778336406E-01 -1.766595431E-02 2.224092360E-01
 7.901996374E-01 -1.586767659E-02 2.374596951E-01
 8.032020926E-01 -1.401439961E-02 2.543531443E-01
 8.138889670E-01 -1.247062068E-02 2.842774553E-01
 8.253620863E-01 -1.093504764E-02 2.913789547E-01
 8.374722600E-01 -9.304652922E-03 3.206131961E-01
 8.499080539E-01 -7.748687640E-03 3.364045436E-01
 8.623030782E-01 -6.297625136E-03 3.513766603E-01
 8.730881214E-01 -5.094450433E-03 3.705898256E-01
 8.842890263E-01 -3.948041238E-03 3.847076465E-01
 8.968963027E-01 -2.797632478E-03 3.960233843E-01
 9.067124724E-01 -1.977879088E-03 4.092731386E-01
 9.173934460E-01 -1.234948169E-03 4.161898512E-01
 9.271094203E-01 -6.570941769E-04 4.215619037E-01
 9.363296032E-01 -2.026402071E-04 4.284887187E-01
 9.481860399E-01 2.382814273E-04 4.304365621E-01
 9.617168903E-01 5.618670257E-04 4.336520837E-01
 9.764229059E-01 7.054938469E-04 4.417901708E-01
 9.893611670E-01 6.545677315E-04 4.657014699E-01
 -5.000000000E-01 -1.000000000E+00 1.783502453E-02
 3.500000000E+00 -1.000000000E+00 6.937285234E-03
 3.500000000E+00 1.000000000E+00 -3.177195675E-02
 -5.000000000E-01 1.000000000E+00 1.711917745E-02
 9.925130904E-01 1.995329832E-03 3.430471172E-01
 9.785567224E-01 4.838451627E-03 2.205338648E-01
 9.636198580E-01 7.893164642E-03 1.599399880E-01
 9.480724633E-01 1.108347671E-02 9.268178264E-02
 9.340975583E-01 1.389465434E-02 6.745894562E-02
 9.217568338E-01 1.636092085E-02 3.156769577E-02
 9.104749858E-01 1.865834557E-02 -1.939127999E-02
 8.988653123E-01 2.094444819E-02 -3.925660164E-02
 8.869743943E-01 2.324060444E-02 -6.154604127E-02
 8.751213253E-01 2.554209437E-02 -1.120731469E-01
 8.630124032E-01 2.782570291E-02 -1.332751857E-01
 8.507109582E-01 3.007495683E-02 -1.675833019E-01
 8.388763070E-01 3.218227904E-02 -1.734907471E-01
 8.274081349E-01 3.419346362E-02 -2.118741914E-01
 8.153883517E-01 3.625778481E-02 -2.246683472E-01
 8.027762175E-01 3.836130351E-02 -2.455172700E-01
 7.905047536E-01 4.038426094E-02 -2.699031362E-01
 7.784918845E-01 4.231828079E-02 -2.931971039E-01
 7.668134868E-01 4.415542819E-02 -3.102544697E-01
 7.548888624E-01 4.599097744E-02 -3.339481060E-01
 7.419076860E-01 4.794290289E-02 -3.536068099E-01
 7.299731970E-01 4.969738796E-02 -3.782036942E-01
 7.192726135E-01 5.123580433E-02 -3.998806953E-01
 7.080470920E-01 5.280842632E-02 -4.270135621E-01
 6.958281100E-01 5.446209945E-02 -4.468175490E-01
 6.832051277E-01 5.610745586E-02 -4.658103144E-01
 6.717445254E-01 5.755262636E-02 -4.877844943E-01
 6.607457101E-01 5.888589099E-02 -4.936508586E-01
 6.495141387E-01 6.020482443E-02 -5.227826932E-01
 6.381245852E-01 6.147807464E-02 -5.144507933E-01
 6.265701950E-01 6.270701438E-02 -4.520163856E-01
 6.157240570E-01 6.380479038E-02 -4.748711998E-01
 6.047217846E-01 6.486352161E-02 -9.293520454E-01
 5.930417776E-01 6.591793522E-02 -9.659870611E-01
 5.804940760E-01 6.695321202E-02 -9.304423780E-01
 5.675100982E-01 6.797062233E-02 -9.429090453E-01
 5.548899770E-01 6.886332482E-02 -9.099467756E-01
 5.429798067E-01 6.960451603E-02 -8.967014670E-01
 5.314597487E-01 7.025911659E-02 -8.981385729E-01
 5.192685127E-01 7.089215145E-02 -8.886762872E-01
 5.075016618E-01 7.141038030E-02 -8.494768891E-01
 4.954677373E-01 7.186226547E-02 -8.599630196E-01
 4.822932482E-01 7.227664068E-02 -8.244355176E-01
 4.687042981E-01 7.259818539E-02 -8.159339078E-01
 4.549432844E-01 7.285178453E-02 -8.080993944E-01
 4.416690022E-01 7.300563902E-02 -7.774342491E-01
 4.288314134E-01 7.307122275E-02 -7.683770291E-01
 4.160211831E-01 7.304972410E-02 -7.332205586E-01
 4.031187743E-01 7.293958217E-02 -7.221834635E-01
 3.906371444E-01 7.277505100E-02 -7.188527091E-01
 3.787362128E-01 7.254356146E-02 -6.881674347E-01
 3.660497963E-01 7.221791893E-02 -6.761305384E-01
 3.528646380E-01 7.181524485E-02 -6.765471916E-01
 3.398135602E-01 7.133236900E-02 -6.632649182E-01
 3.279221803E-01 7.082148269E-02 -6.513730753E-01
 3.163346201E-01 7.025234029E-02 -6.361220659E-01
 3.035934567E-01 6.955027580E-02 -6.168849258E-01
 2.902832478E-01 6.872827560E-02 -6.030360065E-01
 2.772623599E-01 6.784041598E-02 -5.857568109E-01
 2.651706785E-01 6.693157181E-02 -5.652459477E-01
 2.530497089E-01 6.595095992E-02 -5.622308193E-01
 2.406753898E-01 6.486399099E-02 -5.419198039E-01
 2.283518761E-01 6.368977204E-02 -5.273056135E-01
 2.162844986E-01 6.245563366E-02 -5.148739563E-01
 2.044170201E-01 6.114700250E-02 -4.941152545E-01
 1.923282444E-01 5.971730687E-02 -4.721915578E-01
 1.802726090E-01 5.820110999E-02 -4.603766461E-01
 1.686023697E-01 5.662994273E-02 -4.406160352E-01
 1.569858566E-01 5.495684408E-02 -4.159494307E-01
 1.457872763E-01 5.324898288E-02 -4.068354982E-01
 1.347852647E-01 5.145373754E-02 -3.813092755E-01
 1.236052290E-01 4.950281233E-02 -3.546376781E-01
 1.127731688E-01 4.749548063E-02 -3.354499251E-01
 9.241634980E-02 4.334105924E-02 -2.872524375E-01
 8.142177388E-02 4.084769823E-02 -2.489269460E-01
 7.075668126E-02 3.824600019E-02 -2.184526692E-01
 6.090371497E-02 3.563560545E-02 -1.872410623E-01
 7.356461510E-02 -4.042349011E-02 -2.807719960E-01
 9.370394424E-02 -4.504160956E-02 -3.337796496E-01
 1.044983529E-01 -4.723492265E-02 -3.526621391E-01
 1.157605574E-01 -4.935943894E-02 -3.726311715E-01
 1.273185611E-01 -5.138903670E-02 -3.981235714E-01
 1.382479966E-01 -5.318222567E-02 -4.216676501E-01
 1.489850804E-01 -5.482181720E-02 -4.376125594E-01
 1.605564356E-01 -5.647656135E-02 -4.556744644E-01
 1.722080708E-01 -5.803522468E-02 -4.798984759E-01
 1.837568134E-01 -5.947123282E-02 -4.985477024E-01
 1.948307604E-01 -6.075716391E-02 -5.178314457E-01
 2.056681365E-01 -6.193254516E-02 -5.399149184E-01
 2.173013836E-01 -6.309565902E-02 -5.670071020E-01
 2.294360399E-01 -6.420630962E-02 -5.845543632E-01
 2.413957492E-01 -6.519913673E-02 -6.143565229E-01
 2.533065900E-01 -6.608505547E-02 -6.272247411E-01
 2.647908181E-01 -6.685370579E-02 -6.569710597E-01
 2.764447927E-01 -6.752922013E-02 -6.804547295E-01
 2.886315435E-01 -6.813823432E-02 -7.069262600E-01
 3.011158407E-01 -6.863979250E-02 -7.432665568E-01
 3.134321421E-01 -6.902167201E-02 -7.637808676E-01
 3.256566525E-01 -6.927994639E-02 -7.924542253E-01
 3.373930305E-01 -6.941632554E-02 -8.251133949E-01
 3.485600352E-01 -6.943285093E-02 -8.450136135E-01
 3.598824888E-01 -6.934906170E-02 -8.704682625E-01
 3.707448244E-01 -6.916002557E-02 -8.961579005E-01
 3.820689917E-01 -6.885687634E-02 -9.028501131E-01
 3.946353048E-01 -6.839191541E-02 -9.397033506E-01
 4.074736387E-01 -6.777802110E-02 -9.663852617E-01
 4.201104939E-01 -6.704434380E-02 -6.806863215E-01
 4.328158498E-01 -6.616403162E-02 -4.915886720E-01
 4.454851300E-01 -6.514883414E-02 -5.305286429E-01
 4.579639286E-01 -6.402884424E-02 -5.244955305E-01
 4.702323377E-01 -6.281723268E-02 -4.729889211E-01
 4.824917316E-01 -6.150503270E-02 -4.422470971E-01
 4.949692041E-01 -6.007288396E-02 -3.940906044E-01
 5.082718432E-01 -5.845737271E-02 -3.616363101E-01
 5.218251944E-01 -5.670560710E-02 -3.161594466E-01
 5.348151922E-01 -5.495401286E-02 -2.724793693E-01
 5.477886200E-01 -5.314767733E-02 -2.426418986E-01
 5.610330403E-01 -5.122690089E-02 -2.033930313E-01
 5.741999149E-01 -4.926748388E-02 -1.605543029E-01
 5.871248543E-01 -4.732284509E-02 -1.319821035E-01
 5.999524593E-01 -4.536637105E-02 -1.028209073E-01
 6.133060157E-01 -4.330360517E-02 -7.356825240E-02
 6.272139847E-01 -4.113785550E-02 -4.357746218E-02
 6.413276196E-01 -3.892965429E-02 -1.693087703E-02
 6.548706591E-01 -3.680336662E-02 6.730638473E-03
 6.679846346E-01 -3.472352028E-02 3.094063197E-02
 6.808249354E-01 -3.268127702E-02 5.959283523E-02
 6.930337846E-01 -3.075089492E-02 7.814789990E-02
 7.064898014E-01 -2.862438746E-02 1.018644400E-01
 7.204392254E-01 -2.642955724E-02 1.280307022E-01
 7.327381074E-01 -2.452166565E-02 1.474485102E-01
 7.450833917E-01 -2.260953747E-02 1.655128846E-01
 7.581452131E-01 -2.062318195E-02 1.917506479E-01
 7.712288499E-01 -1.866563875E-02 2.037696072E-01
 7.840166390E-01 -1.676681545E-02 2.319342062E-01
 7.967008650E-01 -1.494103810E-02 2.458841199E-01
 8.085455298E-01 -1.324251015E-02 2.666875349E-01
 8.196255267E-01 -1.170283416E-02 2.906605812E-01
 8.314171731E-01 -1.011985028E-02 3.028614138E-01
 8.436901569E-01 -8.526670281E-03 3.293351113E-01
 8.561055660E-01 -7.023156388E-03 3.445737703E-01
 8.676955998E-01 -5.696037784E-03 3.607628504E-01
 8.786885738E-01 -4.521245835E-03 3.773762790E-01
 8.905926645E-01 -3.372836858E-03 3.904547686E-01
 9.120529592E-01 -1.606413629E-03 4.176144686E-01
 9.422578216E-01 1.782061008E-05 4.290606033E-01
 9.549514651E-01 4.000742265E-04 4.307272206E-01
 9.690698981E-01 6.336804363E-04 4.355546623E-01
 9.828920364E-01 6.800307892E-04 4.504984248E-01
 9.946053028E-01 5.828399153E-04 5.133774137E-01
 -5.000000000E-01 9.500000000E-01 2.797199970E-02
 -5.000000000E-01 9.000000000E-01 4.214494361E-02
 -5.000000000E-01 8.500000000E-01 5.288274552E-02
 -5.000000000E-01 8.000000000E-01 6.265761639E-02
 -5.000000000E-01 7.500000000E-01 7.176259184E-02
 -5.000000000E-01 7.000000000E-01 8.077780229E-02
 -5.000000000E-01 6.500000000E-01 9.005162026E-02
 -5.000000000E-01 6.000000000E-01 9.930177524E-02
 -5.000000000E-01 5.500000000E-01 1.090272022E-01
 -5.000000000E-01 5.000000000E-01 1.188524968E-01
 -5.000000000E-01 4.500000000E-01 1.289947655E-01
 -5.000000000E-01 4.000000000E-01 1.389543153E-01
 -5.000000000E-01 3.500000000E-01 1.490407144E-01
 -5.000000000E-01 3.000000000E-01 1.584509685E-01
 -5.000000000E-01 2.500000000E-01 1.675117436E-01
 -5.000000000E-01 2.000000000E-01 1.752076368E-01
 -5.000000000E-01 1.500000000E-01 1.819890401E-01
 -5.000000000E-01 1.000000000E-01 1.870465134E-01
 -5.000000000E-01 5.000000000E-02 1.902297306E-01
 -5.000000000E-01 2.752242878E-12 1.915326916E-01
 -5.000000000E-01 -5.000000000E-02 1.904862483E-01
 -5.000000000E-01 -1.000000000E-01 1.877062242E-01
 -5.000000000E-01 -1.500000000E-01 1.830616475E-01
 -5.000000000E-01 -2.000000000E-01 1.765170267E-01
 -5.000000000E-01 -2.500000000E-01 1.689165705E-01
 -5.000000000E-01 -3.000000000E-01 1.603140303E-01
 -5.000000000E-01 -3.500000000E-01 1.510598236E-01
 -5.000000000E-01 -4.000000000E-01 1.411491900E-01
 -5.000000000E-01 -4.500000000E-01 1.313665714E-01
 -5.000000000E-01 -5.000000000E-01 1.213480067E-01
 -5.000000000E-01 -5.500000000E-01 1.115793723E-01
 -5.000000000E-01 -6.000000000E-01 1.020447944E-01
 -5.000000000E-01 -6.500000000E-01 9.262866947E-02
 -5.000000000E-01 -7.000000000E-01 8.338793719E-02
 -5.000000000E-01 -7.500000000E-01 7.423063180E-02
 -5.000000000E-01 -8.000000000E-01 6.495768224E-02
 -5.000000000E-01 -8.500000000E-01 5.510337292E-02
 -5.000000000E-01 -9.000000000E-01 4.390589062E-02
 -5.000000000E-01 -9.500000000E-01 2.905050444E-02
 -4.500000000E-01 -1.000000000E+00 2.411293575E-02
 -4.000000000E-01 -1.000000000E+00 3.564274750E-02
 -3.500000000E-01 -1.000000000E+00 4.289746882E-02
 -3.000000000E-01 -1.000000000E+00 4.751830984E-02
 -2.500000000E-01 -1.000000000E+00 5.019247213E-02
 -2.000000000E-01 -1.000000000E+00 5.123833867E-02
 -1.500000000E-01 -1.000000000E+00 5.030706501E-02
 -1.000000000E-01 -1.000000000E+00 4.749719024E-02
 -5.000000000E-02 -1.000000000E+00 4.296662114E-02
 -9.424683256E-13 -1.000000000E+00 3.663947639E-02
 5.000000000E-02 -1.000000000E+00 2.860681786E-02
 1.000000000E-01 -1.000000000E+00 1.940631005E-02
 1.500000000E-01 -1.000000000E+00 9.054616959E-03
 2.000000000E-01 -1.000000000E+00 -1.972376773E-03
 2.500000000E-01 -1.000000000E+00 -1.297500730E-02
 3.000000000E-01 -1.000000000E+00 -2.336360546E-02
 3.500000000E-01 -1.000000000E+00 -3.334426888E-02
 4.000000000E-01 -1.000000000E+00 -4.159053906E-02
 4.500000000E-01 -1.000000000E+00 -4.792119504E-02
 5.000000000E-01 -1.000000000E+00 -5.227870818E-02
 5.500000000E-01 -1.000000000E+00 -5.437745688E-02
 6.000000000E-01 -1.000000000E+00 -5.396983650E-02
 6.500000000E-01 -1.000000000E+00 -5.160707527E-02
 7.000000000E-01 -1.000000000E+00 -4.720699342E-02
 7.500000000E-01 -1.000000000E+00 -4.129000820E-02
 8.000000000E-01 -1.000000000E+00 -3.434139401E-02
 8.500000000E-01 -1.000000000E+00 -2.656794489E-02
 9.000000000E-01 -1.000000000E+00 -1.869410170E-02
 9.500000000E-01 -1.000000000E+00 -1.055875156E-02
 1.000000000E+00 -1.000000000E+00 -3.018030617E-03
 1.050000000E+00 -1.000000000E+00 4.117909467E-03
 1.100000000E+00 -1.000000000E+00 1.050928574E-02
 1.150000000E+00 -1.000000000E+00 1.610247682E-02
 1.200000000E+00 -1.000000000E+00 2.091180399E-02
 1.250000000E+00 -1.000000000E+00 2.493015691E-02
 1.300000000E+00 -1.000000000E+00 2.816112027E-02
 1.350000000E+00 -1.000000000E+00 3.069253782E-02
 1.400000000E+00 -1.000000000E+00 3.261799261E-02
 1.450000000E+00 -1.000000000E+00 3.402798747E-02
 1.500000000E+00 -1.000000000E+00 3.494618749E-02
 1.550000000E+00 -1.000000000E+00 3.547312097E-02
 1.600000000E+00 -1.000000000E+00 3.560408519E-02
 1.650000000E+00 -1.000000000E+00 3.552838586E-02
 1.700000000E+00 -1.000000000E+00 3.514275205E-02
 1.750000000E+00 -1.000000000E+00 3.464408685E-02
 1.800000000E+00 -1.000000000E+00 3.404174843E-02
 1.850000000E+00 -1.000000000E+00 3.330062714E-02
 1.900000000E+00 -1.000000000E+00 3.245531783E-02
 1.950000000E+00 -1.000000000E+00 3.163320026E-02
 2.000000000E+00 -1.000000000E+00 3.068958386E-02
 2.050000000E+00 -1.000000000E+00 2.984149503E-02
 2.100000000E+00 -1.000000000E+00 2.892893065E-02
 2.150000000E+00 -1.000000000E+00 2.801009248E-02
 2.200000000E+00 -1.000000000E+00 2.713005143E-02
 2.250000000E+00 -1.000000000E+00 2.626950161E-02
 2.300000000E+00 -1.000000000E+00 2.541567593E-02
 2.350000000E+00 -1.000000000E+00 2.470410292E-02
 2.400000000E+00 -1.000000000E+00 2.388474663E-02
 2.450000000E+00 -1.000000000E+00 2.323702947E-02
 2.500000000E+00 -1.000000000E+00 2.253427960E-02
 2.550000000E+00 -1.000000000E+00 2.194319108E-02
 2.600000000E+00 -1.000000000E+00 2.136883880E-02
 2.650000000E+00 -1.000000000E+00 2.085788620E-02
 2.700000000E+00 -1.000000000E+00 2.036242430E-02
 2.750000000E+00 -1.000000000E+00 1.997585606E-02
 2.800000000E+00 -1.000000000E+00 1.959115863E-02
 2.850000000E+00 -1.000000000E+00 1.927680966E-02
 2.900000000E+00 -1.000000000E+00 1.899554830E-02
 2.950000000E+00 -1.000000000E+00 1.875566157E-02
 3.000000000E+00 -1.000000000E+00 1.850690702E-02
 3.050000000E+00 -1.000000000E+00 1.834927285E-02
 3.100000000E+00 -1.000000000E+00 1.809958941E-02
 3.150000000E+00 -1.000000000E+00 1.793815959E-02
 3.200000000E+00 -1.000000000E+00 1.765353199E-02
 3.250000000E+00 -1.000000000E+00 1.734275314E-02
 3.300000000E+00 -1.000000000E+00 1.687606939E-02
 3.350000000E+00 -1.000000000E+00 1.615505344E-02
 3.400000000E+00 -1.000000000E+00 1.470631816E-02
 3.450000000E+00 -1.000000000E+00 1.147250993E-02
 3.500000000E+00 -9.500000000E-01 5.002260371E-03
 3.500000000E+00 -9.000000000E-01 7.393555339E-03
 3.500000000E+00 -8.500000000E-01 9.441770497E-03
 3.500000000E+00 -8.000000000E-01 1.134331161E-02
 3.500000000E+00 -7.500000000E-01 1.298806470E-02
 3.500000000E+00 -7.000000000E-01 1.441526322E-02
 3.500000000E+00 -6.500000000E-01 1.593102265E-02
 3.500000000E+00 -6.000000000E-01 1.755668509E-02
 3.500000000E+00 -5.500000000E-01 1.922095665E-02
 3.500000000E+00 -5.000000000E-01 2.092376977E-02
 3.500000000E+00 -4.500000000E-01 2.262657036E-02
 3.500000000E+00 -4.000000000E-01 2.444284345E-02
 3.500000000E+00 -3.500000000E-01 2.623766984E-02
 3.500000000E+00 -3.000000000E-01 2.791184318E-02
 3.500000000E+00 -2.500000000E-01 2.913424378E-02
 3.500000000E+00 -2.000000000E-01 2.972245650E-02
 3.500000000E+00 -1.500000000E-01 2.954011577E-02
 3.500000000E+00 -1.000000000E-01 2.896919102E-02
 3.500000000E+00 -5.000000000E-02 2.859852819E-02
 3.500000000E+00 -2.752242878E-12 2.869460613E-02
 3.500000000E+00 5.000000000E-02 2.911978105E-02
 3.500000000E+00 1.000000000E-01 2.935537006E-02
 3.500000000E+00 1.500000000E-01 2.886361697E-02
 3.500000000E+00 2.000000000E-01 2.789703312E-02
 3.500000000E+00 2.500000000E-01 2.626993985E-02
 3.500000000E+00 3.000000000E-01 2.448444391E-02
 3.500000000E+00 3.500000000E-01 2.271813753E-02
 3.500000000E+00 4.000000000E-01 2.109042290E-02
 3.500000000E+00 4.500000000E-01 1.913218573E-02
 3.500000000E+00 5.000000000E-01 1.722055879E-02
 3.500000000E+00 5.500000000E-01 1.573374303E-02
 3.500000000E+00 6.000000000E-01 1.477007380E-02
 3.500000000E+00 6.500000000E-01 1.436440811E-02
 3.500000000E+00 7.000000000E-01 1.360769445E-02
 3.500000000E+00 7.500000000E-01 1.055829182E-02
 3.500000000E+00 8.000000000E-01 3.357844736E-03
 3.500000000E+00 8.500000000E-01 -8.531992242E-03
 3.500000000E+00 9.000000000E-01 -2.368834427E-02
 3.500000000E+00 9.500000000E-01 -3.680848486E-02
 3.450000000E+00 1.000000000E+00 -1.583631578E-02
 3.400000000E+00 1.000000000E+00 -4.890622765E-03
 3.350000000E+00 1.000000000E+00 -1.359664951E-03
 3.300000000E+00 1.000000000E+00 -7.233558869E-05
 3.250000000E+00 1.000000000E+00 -3.596339517E-04
 3.200000000E+00 1.000000000E+00 -5.933107411E-04
 3.150000000E+00 1.000000000E+00 -1.172155195E-03
 3.100000000E+00 1.000000000E+00 -2.022641346E-03
 3.050000000E+00 1.000000000E+00 -2.781634910E-03
 3.000000000E+00 1.000000000E+00 -3.728994525E-03
 2.950000000E+00 1.000000000E+00 -4.706678729E-03
 2.900000000E+00 1.000000000E+00 -5.824916717E-03
 2.850000000E+00 1.000000000E+00 -6.875506820E-03
 2.800000000E+00 1.000000000E+00 -8.160138424E-03
 2.750000000E+00 1.000000000E+00 -9.275654334E-03
 2.700000000E+00 1.000000000E+00 -1.048199102E-02
 2.650000000E+00 1.000000000E+00 -1.170979595E-02
 2.600000000E+00 1.000000000E+00 -1.301531349E-02
 2.550000000E+00 1.000000000E+00 -1.430348686E-02
 2.500000000E+00 1.000000000E+00 -1.568741567E-02
 2.450000000E+00 1.000000000E+00 -1.714331969E-02
 2.400000000E+00 1.000000000E+00 -1.879314357E-02
 2.350000000E+00 1.000000000E+00 -2.033957172E-02
 2.300000000E+00 1.000000000E+00 -2.207258514E-02
 2.250000000E+00 1.000000000E+00 -2.374745503E-02
 2.200000000E+00 1.000000000E+00 -2.577913131E-02
 2.150000000E+00 1.000000000E+00 -2.779718511E-02
 2.100000000E+00 1.000000000E+00 -3.002152234E-02
 2.050000000E+00 1.000000000E+00 -3.244576373E-02
 2.000000000E+00 1.000000000E+00 -3.483895622E-02
 1.950000000E+00 1.000000000E+00 -3.746124407E-02
 1.900000000E+00 1.000000000E+00 -4.051589699E-02
 1.850000000E+00 1.000000000E+00 -4.370889441E-02
 1.800000000E+00 1.000000000E+00 -4.716917487E-02
 1.750000000E+00 1.000000000E+00 -5.085669482E-02
 1.700000000E+00 1.000000000E+00 -5.508039154E-02
 1.650000000E+00 1.000000000E+00 -5.935954489E-02
 1.600000000E+00 1.000000000E+00 -6.452456112E-02
 1.550000000E+00 1.000000000E+00 -6.974506954E-02
 1.500000000E+00 1.000000000E+00 -7.585907545E-02
 1.450000000E+00 1.000000000E+00 -8.223007233E-02
 1.400000000E+00 1.000000000E+00 -8.928442496E-02
 1.350000000E+00 1.000000000E+00 -9.697112250E-02
 1.300000000E+00 1.000000000E+00 -1.048768433E-01
 1.250000000E+00 1.000000000E+00 -1.135051724E-01
 1.200000000E+00 1.000000000E+00 -1.223959499E-01
 1.150000000E+00 1.000000000E+00 -1.313107269E-01
 1.100000000E+00 1.000000000E+00 -1.408198659E-01
 1.050000000E+00 1.000000000E+00 -1.493305457E-01
 1.000000000E+00 1.000000000E+00 -1.570532482E-01
 9.500000000E-01 1.000000000E+00 -1.643441723E-01
 9.000000000E-01 1.000000000E+00 -1.682171210E-01
 8.500000000E-01 1.000000000E+00 -1.728665254E-01
 8.000000000E-01 1.000000000E+00 -1.720288336E-01
 7.500000000E-01 1.000000000E+00 -1.720265916E-01
 7.000000000E-01 1.000000000E+00 -1.668860041E-01
 6.500000000E-01 1.000000000E+00 -1.596860569E-01
 6.000000000E-01 1.000000000E+00 -1.490381735E-01
 5.500000000E-01 1.000000000E+00 -1.365842908E-01
 5.000000000E-01 1.000000000E+00 -1.219511306E-01
 4.500000000E-01 1.000000000E+00 -1.052298816E-01
 4.000000000E-01 1.000000000E+00 -8.855894771E-02
 3.500000000E-01 1.000000000E+00 -7.066585761E-02
 3.000000000E-01 1.000000000E+00 -5.331330057E-02
 2.500000000E-01 1.000000000E+00 -3.654212143E-02
 2.000000000E-01 1.000000000E+00 -2.043819426E-02
 1.500000000E-01 1.000000000E+00 -5.691338664E-03
 1.000000000E-01 1.000000000E+00 7.667311621E-03
 5.000000000E-02 1.000000000E+00 1.930926531E-02
 1.733724275E-12 1.000000000E+00 2.911105268E-02
 -5.000000000E-02 1.000000000E+00 3.675201063E-02
 -1.000000000E-01 1.000000000E+00 4.246514354E-02
 -1.500000000E-01 1.000000000E+00 4.607297234E-02
 -2.000000000E-01 1.000000000E+00 4.777862786E-02
 -2.500000000E-01 1.000000000E+00 4.742212942E-02
 -3.000000000E-01 1.000000000E+00 4.518985785E-02
 -3.500000000E-01 1.000000000E+00 4.105777894E-02
 -4.000000000E-01 1.000000000E+00 3.430189247E-02
 -4.500000000E-01 1.000000000E+00 2.313990591E-02
 9.456010112E-01 -5.288616631E-03 4.213435994E-01
 8.595790904E-01 -1.147334194E-02 3.434759592E-01
 7.878282781E-01 -2.196285937E-02 2.317330453E-01
 7.178516630E-01 -3.281819818E-02 1.205320003E-01
 6.457993207E-01 -4.423697582E-02 -9.925841814E-03
 5.795324234E-01 -5.364968411E-02 -1.490999046E-01
 5.195822086E-01 -6.243099599E-02 -3.196623448E-01
 4.553705785E-01 -6.924119012E-02 -5.225891214E-01
 3.981860884E-01 -7.381079233E-02 -9.359532317E-01
 3.403438401E-01 -7.418582195E-02 -8.193730945E-01
 2.854044776E-01 -7.317906042E-02 -6.872995673E-01
 2.255034693E-01 -6.859099092E-02 -5.697437898E-01