TITLE     = "Visualization of the solution"
VARIABLES = "x"
"y"
"Pressure_Coefficient"
ZONE T="Zone"
 STRANDID=0, SOLUTIONTIME=0
 Nodes=12298, Elements=24016, ZONETYPE=FEQuadrilateral
 DATAPACKING=POINT
 DT=(DOUBLE DOUBLE DOUBLE )
 1.000295043E+00 5.270749680E-04 3.056835978E-01
 9.874089360E-01 2.839064458E-03 2.035337911E-01
 9.754825234E-01 5.015036091E-03 1.340137267E-01
 9.617788196E-01 7.503588684E-03 7.459645347E-02
 9.487056732E-01 9.846454486E-03 2.494675801E-02
 9.361338019E-01 1.204878744E-02 -1.290830142E-02
 9.252824783E-01 1.392732561E-02 -4.936458246E-02
 9.127800465E-01 1.603408344E-02 -8.270992999E-02
 9.015190005E-01 1.790857315E-02 -1.246773189E-01
 8.892726302E-01 1.984974742E-02 -1.579990243E-01
 8.766426444E-01 2.172067389E-02 -1.673594166E-01
 8.645254970E-01 2.347349189E-02 -1.837243426E-01
 8.521096706E-01 2.524549328E-02 -2.169664108E-01
 8.400934935E-01 2.683587559E-02 -2.157337197E-01
 8.279462457E-01 2.841216512E-02 -2.205910036E-01
 8.150184155E-01 3.009574302E-02 -2.469739445E-01
 8.016319871E-01 3.175221384E-02 -2.538336301E-01
 7.895209193E-01 3.321975842E-02 -2.607681741E-01
 7.771590352E-01 3.471964970E-02 -2.839563355E-01
 7.646026015E-01 3.619165719E-02 -2.975021597E-01
 7.513797283E-01 3.770016134E-02 -3.101800730E-01
 7.372567058E-01 3.928061575E-02 -3.298345995E-01
 7.260624170E-01 4.049229249E-02 -3.399296115E-01
 7.146789432E-01 4.171107337E-02 -3.586911289E-01
 7.027446628E-01 4.294934869E-02 -3.739747863E-01
 6.886642575E-01 4.437136650E-02 -3.972714775E-01
 6.753381491E-01 4.565396160E-02 -4.120190950E-01
 6.650981903E-01 4.660882428E-02 -4.271269942E-01
 6.533491611E-01 4.767988250E-02 -4.494815493E-01
 6.421403885E-01 4.863577336E-02 -4.552443686E-01
 6.302956939E-01 4.963805154E-02 -4.874743028E-01
 6.189993620E-01 5.052503198E-02 -5.003343558E-01
 6.078720093E-01 5.135290697E-02 -5.116623454E-01
 5.952622294E-01 5.224212259E-02 -5.309917882E-01
 5.832805634E-01 5.303326994E-02 -5.538800115E-01
 5.696665645E-01 5.386061966E-02 -5.781353985E-01
 5.567777157E-01 5.455146730E-02 -5.861425285E-01
 5.442690253E-01 5.515557900E-02 -5.949365205E-01
 5.331888199E-01 5.563120916E-02 -6.090166579E-01
 5.214808583E-01 5.609159917E-02 -6.218703024E-01
 5.083577633E-01 5.650244281E-02 -6.155003307E-01
 4.973255992E-01 5.679852888E-02 -6.204373101E-01
 4.842844605E-01 5.708648637E-02 -6.325037234E-01
 4.712926745E-01 5.728558823E-02 -6.165765625E-01
 4.565481842E-01 5.740304291E-02 -6.015305856E-01
 4.428369105E-01 5.745693296E-02 -6.057140322E-01
 4.296889901E-01 5.741716176E-02 -5.932794535E-01
 4.165724814E-01 5.729984492E-02 -5.797119890E-01
 4.043287039E-01 5.713018402E-02 -5.689688842E-01
 3.918167651E-01 5.689024180E-02 -5.552734804E-01
 3.795927167E-01 5.659358576E-02 -5.451832515E-01
 3.687697649E-01 5.628640205E-02 -5.332998373E-01
 3.559209406E-01 5.585404858E-02 -5.197035933E-01
 3.441292346E-01 5.540899560E-02 -5.107682693E-01
 3.318684697E-01 5.487927794E-02 -4.998078837E-01
 3.215266466E-01 5.438827723E-02 -4.864004633E-01
 3.094374239E-01 5.375349894E-02 -4.693678354E-01
 2.964710295E-01 5.302215368E-02 -4.576324806E-01
 2.826015651E-01 5.215998366E-02 -4.414857331E-01
 2.696874142E-01 5.129721388E-02 -4.308943680E-01
 2.576282918E-01 5.043121427E-02 -4.177544647E-01
 2.448981404E-01 4.944996908E-02 -4.019543163E-01
 2.317416668E-01 4.837144539E-02 -3.891077968E-01
 2.193098217E-01 4.728529975E-02 -3.756064515E-01
 2.074581385E-01 4.619111121E-02 -3.641823944E-01
 1.961271465E-01 4.508243129E-02 -3.480492374E-01
 1.833961755E-01 4.377596453E-02 -3.366369580E-01
 1.713915020E-01 4.247172549E-02 -3.242116285E-01
 1.594192088E-01 4.109643772E-02 -3.086524370E-01
 1.474183649E-01 3.964354843E-02 -2.957201195E-01
 1.364527792E-01 3.824683279E-02 -2.827812127E-01
 1.250889450E-01 3.672180325E-02 -2.691217969E-01
 1.135599986E-01 3.508421406E-02 -2.568629224E-01
 1.028807089E-01 3.347914666E-02 -2.399507989E-01
 9.300382435E-02 3.190779313E-02 -2.286035445E-01
 8.192024380E-02 3.003196418E-02 -2.103703083E-01
 7.005485147E-02 2.787517011E-02 -1.937851201E-01
 6.046485528E-02 2.598777786E-02 -1.726914097E-01
 5.087648332E-02 2.394248359E-02 -1.547519619E-01
 4.211464152E-02 2.190796845E-02 -1.376246757E-01
 3.469634429E-02 2.000868507E-02 -1.112393982E-01
 2.827101387E-02 1.819095388E-02 -8.407897661E-02
 2.282496169E-02 1.648752764E-02 -6.046779469E-02
 1.892561279E-02 1.514640357E-02 -2.699642329E-02
 1.528346259E-02 1.376325078E-02 2.310768015E-04
 1.270147692E-02 1.269375253E-02 3.129906213E-02
 1.045395620E-02 1.167046931E-02 6.565730026E-02
 8.801409975E-03 1.085187402E-02 9.910497442E-02
 7.265958935E-03 1.002746914E-02 1.300089826E-01
 5.829954520E-03 9.186442941E-03 1.990882739E-01
 3.936623223E-03 7.931699045E-03 2.900575294E-01
 2.298410982E-03 6.652055308E-03 3.998486691E-01
 8.618369466E-04 5.269262474E-03 5.946402938E-01
 -5.287494860E-04 3.447638592E-03 8.116551067E-01
 -1.236949232E-03 1.995578874E-03 9.908150699E-01
 -1.564727980E-03 8.303049835E-04 1.121647160E+00
 -1.677274122E-03 -5.947665195E-04 1.181921205E+00
 -1.429075724E-03 -2.272304147E-03 1.151411131E+00
 -6.848213379E-04 -4.141170066E-03 9.822992628E-01
 6.336400984E-04 -6.148033775E-03 8.112309902E-01
 2.613940975E-03 -8.271185681E-03 6.139189904E-01
 4.389279522E-03 -9.784963913E-03 4.700950172E-01
 6.481366698E-03 -1.130642276E-02 3.774665498E-01
 8.009132929E-03 -1.229202654E-02 2.882512303E-01
 9.954933077E-03 -1.344169118E-02 2.389620733E-01
 1.228144206E-02 -1.469173562E-02 1.697644922E-01
 1.538980938E-02 -1.619249023E-02 1.157716213E-01
 1.843267307E-02 -1.753099076E-02 5.671942007E-02
 2.230369300E-02 -1.908133551E-02 8.257755073E-03
 2.767323703E-02 -2.100447193E-02 -3.674548379E-02
 3.334015608E-02 -2.283350565E-02 -8.291103028E-02
 4.066343233E-02 -2.495433018E-02 -1.147534698E-01
 4.822808504E-02 -2.693773247E-02 -1.491943436E-01
 5.692975968E-02 -2.900514193E-02 -1.733561668E-01
 6.560669839E-02 -3.089140169E-02 -1.954345715E-01
 7.586910576E-02 -3.294879571E-02 -2.165701118E-01
 8.589911461E-02 -3.480396420E-02 -2.347428908E-01
 9.657400846E-02 -3.664219752E-02 -2.511828256E-01
 1.074996740E-01 -3.839999437E-02 -2.681940257E-01
 1.193273813E-01 -4.017372429E-02 -2.820313477E-01
 1.307630688E-01 -4.178804159E-02 -3.002781785E-01
 1.414618194E-01 -4.320944473E-02 -3.163393165E-01
 1.525346190E-01 -4.459537938E-02 -3.278433416E-01
 1.644615084E-01 -4.601483792E-02 -3.473957985E-01
 1.763108224E-01 -4.733686149E-02 -3.649307502E-01
 1.884043068E-01 -4.860205203E-02 -3.812454022E-01
 1.990552247E-01 -4.965110496E-02 -3.997839421E-01
 2.105761468E-01 -5.071566999E-02 -4.162565931E-01
 2.231042832E-01 -5.178585276E-02 -4.304005385E-01
 2.359627783E-01 -5.281926692E-02 -4.605303058E-01
 2.482797652E-01 -5.369739234E-02 -4.738416762E-01
 2.612079382E-01 -5.454631895E-02 -4.933194251E-01
 2.725934982E-01 -5.522260815E-02 -5.249187307E-01
 2.856011987E-01 -5.588304996E-02 -5.372495154E-01
 2.984272540E-01 -5.645310879E-02 -5.664796357E-01
 3.113926351E-01 -5.690617859E-02 -5.865178039E-01
 3.231163621E-01 -5.722997338E-02 -6.100807201E-01
 3.355774879E-01 -5.746535584E-02 -6.292314235E-01
 3.462343812E-01 -5.756819248E-02 -6.406862204E-01
 3.575834632E-01 -5.760537088E-02 -6.594351638E-01
 3.686472774E-01 -5.752921849E-02 -6.728833150E-01
 3.792479336E-01 -5.736217275E-02 -6.677712206E-01
 3.907040954E-01 -5.708418787E-02 -6.598776224E-01
 4.031044543E-01 -5.665563047E-02 -6.488939149E-01
 4.151433110E-01 -5.608560145E-02 -6.060568443E-01
 4.283140600E-01 -5.535003915E-02 -5.713223673E-01
 4.407353997E-01 -5.451454222E-02 -5.430999778E-01
 4.536482692E-01 -5.352195352E-02 -5.079989522E-01
 4.659865797E-01 -5.243429542E-02 -4.670768686E-01
 4.781998992E-01 -5.124366283E-02 -4.227007934E-01
 4.897211790E-01 -5.001131818E-02 -3.726270752E-01
 5.019196272E-01 -4.866116866E-02 -3.436112759E-01
 5.152922869E-01 -4.706197977E-02 -2.993890852E-01
 5.288667679E-01 -4.534710571E-02 -2.542569317E-01
 5.420614481E-01 -4.359493032E-02 -2.066130645E-01
 5.557842851E-01 -4.176126048E-02 -1.798867215E-01
 5.681541562E-01 -4.001720622E-02 -1.350417065E-01
 5.813063383E-01 -3.816803545E-02 -1.066762745E-01
 5.932604074E-01 -3.645426407E-02 -7.494484417E-02
 6.053937078E-01 -3.472603112E-02 -5.459753666E-02
 6.183611751E-01 -3.283517063E-02 -2.065251378E-02
 6.325175166E-01 -3.078666143E-02 6.659357215E-03
 6.460568309E-01 -2.884714678E-02 2.741750444E-02
 6.594609618E-01 -2.691127360E-02 5.375300775E-02
 6.728068590E-01 -2.499130927E-02 7.976835579E-02
 6.853659153E-01 -2.322869003E-02 9.558939143E-02
 6.978145242E-01 -2.148005925E-02 1.175674107E-01
 7.122214437E-01 -1.948285662E-02 1.400793414E-01
 7.251824141E-01 -1.774237119E-02 1.524659162E-01
 7.363891006E-01 -1.620496064E-02 1.813403810E-01
 7.485094666E-01 -1.462570671E-02 1.953230958E-01
 7.615149617E-01 -1.300741732E-02 2.029994545E-01
 7.741094232E-01 -1.143302675E-02 2.238919761E-01
 7.858399153E-01 -1.001049578E-02 2.391743234E-01
 7.981259227E-01 -8.544870652E-03 2.614543325E-01
 8.092755675E-01 -7.292138413E-03 2.748236767E-01
 8.209536076E-01 -6.048868876E-03 2.868262110E-01
 8.333186507E-01 -4.786667880E-03 3.040033322E-01
 8.459187150E-01 -3.608506406E-03 3.144258639E-01
 8.578221798E-01 -2.562019741E-03 3.295720102E-01
 8.697794676E-01 -1.598640811E-03 3.450165067E-01
 8.820918202E-01 -7.388753584E-04 3.543370190E-01
 8.957576752E-01 5.333589797E-05 3.603155935E-01
 9.060578942E-01 5.464717397E-04 3.664278626E-01
 9.161353111E-01 9.418092668E-04 3.704417244E-01
 9.261146784E-01 1.221126993E-03 3.722191277E-01
 9.350408912E-01 1.404945389E-03 3.733177060E-01
 9.477648735E-01 1.529392088E-03 3.714010710E-01
 9.617604017E-01 1.503653475E-03 3.699276934E-01
 9.767084718E-01 1.286152983E-03 3.705634759E-01
 9.894868731E-01 9.401118732E-04 3.836394767E-01
 -5.000000000E-01 -1.000000000E+00 1.334386867E-02
 3.500000000E+00 -1.000000000E+00 5.905368208E-03
 3.500000000E+00 1.000000000E+00 -2.097026902E-02
 -5.000000000E-01 1.000000000E+00 1.219856758E-02
 9.938519895E-01 1.683069713E-03 2.808015865E-01
 9.814457297E-01 3.927050275E-03 1.665195301E-01
 9.686306715E-01 6.259312388E-03 1.028471204E-01
 9.552422464E-01 8.675021585E-03 4.775522501E-02
 9.424197376E-01 1.094762096E-02 5.586594965E-03
 9.307081401E-01 1.298805652E-02 -3.274990443E-02
 9.190312624E-01 1.498070452E-02 -6.454866833E-02
 9.071495235E-01 1.697132830E-02 -1.051304840E-01
 8.953958154E-01 1.887916028E-02 -1.452142945E-01
 8.829576373E-01 2.078521065E-02 -1.615616170E-01
 8.705840707E-01 2.259708289E-02 -1.722459558E-01
 8.583175838E-01 2.435949259E-02 -2.055798313E-01
 8.461015821E-01 2.604068443E-02 -2.158114972E-01
 8.340198696E-01 2.762402035E-02 -2.140405259E-01
 8.214823306E-01 2.925395407E-02 -2.372469898E-01
 8.083252013E-01 3.092397843E-02 -2.505284118E-01
 7.955764532E-01 3.248598613E-02 -2.545528322E-01
 7.833399773E-01 3.396970406E-02 -2.737568693E-01
 7.708808184E-01 3.545565344E-02 -2.913152150E-01
 7.579911649E-01 3.694590926E-02 -3.028014931E-01
 7.443182170E-01 3.849038854E-02 -3.208330888E-01
 7.316595614E-01 3.988645412E-02 -3.335495559E-01
 7.203706801E-01 4.110168293E-02 -3.502098867E-01
 7.087118030E-01 4.233021103E-02 -3.656258326E-01
 6.957044601E-01 4.366035759E-02 -3.866005760E-01
 6.820012033E-01 4.501266405E-02 -4.044930764E-01
 6.702181697E-01 4.613139294E-02 -4.173761755E-01
 6.592236757E-01 4.714435339E-02 -4.424426952E-01
 6.477447748E-01 4.815782793E-02 -4.476352729E-01
 6.362180412E-01 4.913691245E-02 -4.737843004E-01
 6.246475279E-01 5.008154176E-02 -4.944409511E-01
 6.134356856E-01 5.093896948E-02 -5.056948727E-01
 6.015671194E-01 5.179751478E-02 -5.205866744E-01
 5.892713964E-01 5.263769627E-02 -5.422363548E-01
 5.764735639E-01 5.344694480E-02 -5.683995167E-01
 5.632221401E-01 5.420604348E-02 -5.820206643E-01
 5.505233705E-01 5.485352315E-02 -5.904618126E-01
 5.387289226E-01 5.539339408E-02 -5.986270773E-01
 5.273348391E-01 5.586140417E-02 -6.217601945E-01
 5.149193108E-01 5.629702099E-02 -6.161518652E-01
 5.028416812E-01 5.665048584E-02 -6.167378502E-01
 4.908050299E-01 5.694250762E-02 -6.287433972E-01
 4.777885675E-01 5.718603730E-02 -6.290831754E-01
 4.639204293E-01 5.734431557E-02 -6.035396490E-01
 4.496925473E-01 5.742998794E-02 -6.056720390E-01
 4.362629503E-01 5.743704736E-02 -6.006782789E-01
 4.231307358E-01 5.735850334E-02 -5.849786625E-01
 4.104505926E-01 5.721501447E-02 -5.750142588E-01
 3.980727345E-01 5.701021291E-02 -5.621376683E-01
 3.857047409E-01 5.674191378E-02 -5.484314707E-01
 3.741812408E-01 5.643999390E-02 -5.417858996E-01
 3.623453528E-01 5.607022531E-02 -5.244419871E-01
 3.500250876E-01 5.563152209E-02 -5.168259321E-01
 3.379988521E-01 5.514413677E-02 -5.036328701E-01
 3.266975582E-01 5.463377759E-02 -4.952145284E-01
 3.154820353E-01 5.407088809E-02 -4.765440281E-01
 3.029542267E-01 5.338782631E-02 -4.653519735E-01
 2.895362973E-01 5.259106867E-02 -4.485682104E-01
 2.761444896E-01 5.172859877E-02 -4.355756591E-01
 2.636578530E-01 5.086421408E-02 -4.252871983E-01
 2.512632161E-01 4.994059168E-02 -4.096639698E-01
 2.383199036E-01 4.891070724E-02 -3.956130563E-01
 2.255257443E-01 4.782837257E-02 -3.818645102E-01
 2.133839801E-01 4.673820548E-02 -3.700813299E-01
 2.017926425E-01 4.563677125E-02 -3.563779086E-01
 1.897616610E-01 4.442919791E-02 -3.421335422E-01
 1.773938388E-01 4.312384501E-02 -3.308801668E-01
 1.654053554E-01 4.178408161E-02 -3.165250769E-01
 1.534187868E-01 4.036999308E-02 -3.013202771E-01
 1.419355720E-01 3.894519061E-02 -2.897388749E-01
 1.307708621E-01 3.748431802E-02 -2.766334891E-01
 1.193244718E-01 3.590300865E-02 -2.620793735E-01
 1.082203537E-01 3.428168036E-02 -2.512101379E-01
 8.746203408E-02 3.096987866E-02 -2.204673805E-01
 7.598754764E-02 2.895356715E-02 -2.043605816E-01
 7.073790208E-02 -3.192009870E-02 -2.078390854E-01
 8.088411018E-02 -3.387637995E-02 -2.274699957E-01
 9.123656154E-02 -3.572308086E-02 -2.426085496E-01
 1.020368412E-01 -3.752109595E-02 -2.598669436E-01
 1.134135276E-01 -3.928685933E-02 -2.750916751E-01
 1.250452250E-01 -4.098088294E-02 -2.913754316E-01
 1.361124441E-01 -4.249874316E-02 -3.096399472E-01
 1.469982192E-01 -4.390241206E-02 -3.221119250E-01
 1.584980637E-01 -4.530510865E-02 -3.359861600E-01
 1.703861654E-01 -4.667584971E-02 -3.570439457E-01
 1.823575646E-01 -4.796945676E-02 -3.731292537E-01
 1.937297657E-01 -4.912657849E-02 -3.911727197E-01
 2.048156857E-01 -5.018338747E-02 -4.073049004E-01
 2.168402150E-01 -5.125076137E-02 -4.235183175E-01
 2.295335308E-01 -5.230255984E-02 -4.425191677E-01
 2.421212718E-01 -5.325832963E-02 -4.713540632E-01
 2.547438517E-01 -5.412185565E-02 -4.802049591E-01
 2.669007182E-01 -5.488446355E-02 -5.100603508E-01
 2.790973485E-01 -5.555282906E-02 -5.319540692E-01
 2.920142263E-01 -5.616807938E-02 -5.487273333E-01
 3.049099445E-01 -5.667964369E-02 -5.794272649E-01
 3.172544986E-01 -5.706807598E-02 -5.972175698E-01
 3.293469250E-01 -5.734766461E-02 -6.201518170E-01
 3.409059346E-01 -5.751677416E-02 -6.381129299E-01
 3.519089222E-01 -5.758678168E-02 -6.455024920E-01
 3.631153703E-01 -5.756729469E-02 -6.702576310E-01
 3.739476055E-01 -5.744569562E-02 -6.719409516E-01
 3.849760145E-01 -5.722318031E-02 -6.622549460E-01
 3.969042748E-01 -5.686990917E-02 -6.549278845E-01
 4.091238827E-01 -5.637061596E-02 -6.335165859E-01
 4.217286855E-01 -5.571782030E-02 -5.826541106E-01
 4.345247298E-01 -5.493229069E-02 -5.604599366E-01
 4.471918344E-01 -5.401824787E-02 -5.243796078E-01
 4.598174244E-01 -5.297812447E-02 -4.901040910E-01
 4.720932394E-01 -5.183897913E-02 -4.444718404E-01
 4.839605391E-01 -5.062749051E-02 -3.996818392E-01
 4.958204031E-01 -4.933624342E-02 -3.543526017E-01
 5.086059570E-01 -4.786157422E-02 -3.238717517E-01
 5.220795274E-01 -4.620454274E-02 -2.767277349E-01
 5.354641080E-01 -4.447101802E-02 -2.316238341E-01
 5.489228666E-01 -4.267809540E-02 -1.899888222E-01
 5.619692206E-01 -4.088923335E-02 -1.617161832E-01
 5.747302473E-01 -3.909262083E-02 -1.181330837E-01
 5.872833729E-01 -3.731114976E-02 -9.197658779E-02
 5.993270576E-01 -3.559014760E-02 -6.313652388E-02
 6.118774414E-01 -3.378060088E-02 -3.975359770E-02
 6.254393458E-01 -3.181091603E-02 -6.288325695E-03
 6.392871737E-01 -2.981690411E-02 1.794349827E-02
 6.527588964E-01 -2.787921019E-02 3.967177260E-02
 6.661339104E-01 -2.595129143E-02 6.648910079E-02
 6.790863872E-01 -2.410999965E-02 8.928448748E-02
 6.915902197E-01 -2.235437464E-02 1.053257346E-01
 7.050179839E-01 -2.048145793E-02 1.284918513E-01
 7.187019289E-01 -1.861261390E-02 1.483339383E-01
 7.307857573E-01 -1.697366592E-02 1.639313117E-01
 7.424492836E-01 -1.541533368E-02 1.896613278E-01
 7.550122142E-01 -1.381656202E-02 2.004130666E-01
 7.678121924E-01 -1.222022204E-02 2.119600325E-01
 7.799746692E-01 -1.072176127E-02 2.321245506E-01
 7.919829190E-01 -9.277683217E-03 2.489013089E-01
 8.037007451E-01 -7.918504532E-03 2.696183646E-01
 8.151145875E-01 -6.670503644E-03 2.806891439E-01
 8.271361291E-01 -5.417768378E-03 2.938872338E-01
 8.396186829E-01 -4.197587143E-03 3.100756924E-01
 8.518704474E-01 -3.085263073E-03 3.214773168E-01
 8.638008237E-01 -2.080330276E-03 3.362742891E-01
 8.759356439E-01 -1.168758085E-03 3.495544050E-01
 8.889247477E-01 -3.427697302E-04 3.571047693E-01
 9.009077847E-01 2.999038188E-04 3.659798422E-01
 9.414028823E-01 1.467168739E-03 3.722293994E-01
 9.547626376E-01 1.516522781E-03 3.698105290E-01
 9.692344368E-01 1.394903229E-03 3.692096695E-01
 9.830976725E-01 1.113132428E-03 3.750962826E-01
 9.948909581E-01 7.335934206E-04 4.166824183E-01
 -5.000000000E-01 9.500000000E-01 1.998435715E-02
 -5.000000000E-01 9.000000000E-01 3.031479813E-02
 -5.000000000E-01 8.500000000E-01 3.803489209E-02
 -5.000000000E-01 8.000000000E-01 4.503986513E-02
 -5.000000000E-01 7.500000000E-01 5.176398090E-02
 -5.000000000E-01 7.000000000E-01 5.828758770E-02
 -5.000000000E-01 6.500000000E-01 6.516338923E-02
 -5.000000000E-01 6.000000000E-01 7.199528037E-02
 -5.000000000E-01 5.500000000E-01 7.924819289E-02
 -5.000000000E-01 5.000000000E-01 8.649492295E-02
 -5.000000000E-01 4.500000000E-01 9.406314717E-02
 -5.000000000E-01 4.000000000E-01 1.015917731E-01
 -5.000000000E-01 3.500000000E-01 1.090194457E-01
 -5.000000000E-01 3.000000000E-01 1.162442406E-01
 -5.000000000E-01 2.500000000E-01 1.229416259E-01
 -5.000000000E-01 2.000000000E-01 1.289160122E-01
 -5.000000000E-01 1.500000000E-01 1.339731389E-01
 -5.000000000E-01 1.000000000E-01 1.380571115E-01
 -5.000000000E-01 5.000000000E-02 1.405605512E-01
 -5.000000000E-01 2.752242878E-12 1.416529729E-01
 -5.000000000E-01 -5.000000000E-02 1.411394167E-01
 -5.000000000E-01 -1.000000000E-01 1.393737012E-01
 -5.000000000E-01 -1.500000000E-01 1.360100578E-01
 -5.000000000E-01 -2.000000000E-01 1.314899605E-01
 -5.000000000E-01 -2.500000000E-01 1.260170512E-01
 -5.000000000E-01 -3.000000000E-01 1.197293617E-01
 -5.000000000E-01 -3.500000000E-01 1.128784494E-01
 -5.000000000E-01 -4.000000000E-01 1.058096976E-01
 -5.000000000E-01 -4.500000000E-01 9.843402559E-02
 -5.000000000E-01 -5.000000000E-01 9.110170303E-02
 -5.000000000E-01 -5.500000000E-01 8.382194161E-02
 -5.000000000E-01 -6.000000000E-01 7.669737277E-02
 -5.000000000E-01 -6.500000000E-01 6.964434017E-02
 -5.000000000E-01 -7.000000000E-01 6.272586432E-02
 -5.000000000E-01 -7.500000000E-01 5.586650961E-02
 -5.000000000E-01 -8.000000000E-01 4.887572001E-02
 -5.000000000E-01 -8.500000000E-01 4.144470749E-02
 -5.000000000E-01 -9.000000000E-01 3.301307991E-02
 -5.000000000E-01 -9.500000000E-01 2.181297125E-02
 -4.500000000E-01 -1.000000000E+00 1.800324668E-02
 -4.000000000E-01 -1.000000000E+00 2.682237708E-02
 -3.500000000E-01 -1.000000000E+00 3.240466027E-02
 -3.000000000E-01 -1.000000000E+00 3.594285224E-02
 -2.500000000E-01 -1.000000000E+00 3.806523164E-02
 -2.000000000E-01 -1.000000000E+00 3.884832496E-02
 -1.500000000E-01 -1.000000000E+00 3.824798452E-02
 -1.000000000E-01 -1.000000000E+00 3.623794943E-02
 -5.000000000E-02 -1.000000000E+00 3.292908692E-02
 -9.424683256E-13 -1.000000000E+00 2.826767389E-02
 5.000000000E-02 -1.000000000E+00 2.245415520E-02
 1.000000000E-01 -1.000000000E+00 1.562231167E-02
 1.500000000E-01 -1.000000000E+00 8.087137344E-03
 2.000000000E-01 -1.000000000E+00 7.713313796E-06
 2.500000000E-01 -1.000000000E+00 -8.015860555E-03
 3.000000000E-01 -1.000000000E+00 -1.570067545E-02
 3.500000000E-01 -1.000000000E+00 -2.258824174E-02
 4.000000000E-01 -1.000000000E+00 -2.831625993E-02
 4.500000000E-01 -1.000000000E+00 -3.262567025E-02
 5.000000000E-01 -1.000000000E+00 -3.527663736E-02
 5.500000000E-01 -1.000000000E+00 -3.615336171E-02
 6.000000000E-01 -1.000000000E+00 -3.536804403E-02
 6.500000000E-01 -1.000000000E+00 -3.291038609E-02
 7.000000000E-01 -1.000000000E+00 -2.907176863E-02
 7.500000000E-01 -1.000000000E+00 -2.407270689E-02
 8.000000000E-01 -1.000000000E+00 -1.827061955E-02
 8.500000000E-01 -1.000000000E+00 -1.211522781E-02
 9.000000000E-01 -1.000000000E+00 -5.779826103E-03
 9.500000000E-01 -1.000000000E+00 5.402027438E-04
 1.000000000E+00 -1.000000000E+00 6.521357695E-03
 1.050000000E+00 -1.000000000E+00 1.192524968E-02
 1.100000000E+00 -1.000000000E+00 1.680927450E-02
 1.150000000E+00 -1.000000000E+00 2.086777375E-02
 1.200000000E+00 -1.000000000E+00 2.435734638E-02
 1.250000000E+00 -1.000000000E+00 2.726976720E-02
 1.300000000E+00 -1.000000000E+00 2.949943683E-02
 1.350000000E+00 -1.000000000E+00 3.113315864E-02
 1.400000000E+00 -1.000000000E+00 3.232134538E-02
 1.450000000E+00 -1.000000000E+00 3.305491389E-02
 1.500000000E+00 -1.000000000E+00 3.342331858E-02
 1.550000000E+00 -1.000000000E+00 3.348384559E-02
 1.600000000E+00 -1.000000000E+00 3.332965544E-02
 1.650000000E+00 -1.000000000E+00 3.293835719E-02
 1.700000000E+00 -1.000000000E+00 3.236862301E-02
 1.750000000E+00 -1.000000000E+00 3.172096947E-02
 1.800000000E+00 -1.000000000E+00 3.092655356E-02
 1.850000000E+00 -1.000000000E+00 3.017117879E-02
 1.900000000E+00 -1.000000000E+00 2.921158008E-02
 1.950000000E+00 -1.000000000E+00 2.837797120E-02
 2.000000000E+00 -1.000000000E+00 2.740806385E-02
 2.050000000E+00 -1.000000000E+00 2.649692755E-02
 2.100000000E+00 -1.000000000E+00 2.560892862E-02
 2.150000000E+00 -1.000000000E+00 2.473303322E-02
 2.200000000E+00 -1.000000000E+00 2.384632671E-02
 2.250000000E+00 -1.000000000E+00 2.303846661E-02
 2.300000000E+00 -1.000000000E+00 2.223770386E-02
 2.350000000E+00 -1.000000000E+00 2.147547394E-02
 2.400000000E+00 -1.000000000E+00 2.075748728E-02
 2.450000000E+00 -1.000000000E+00 2.007677207E-02
 2.500000000E+00 -1.000000000E+00 1.942249870E-02
 2.550000000E+00 -1.000000000E+00 1.886900519E-02
 2.600000000E+00 -1.000000000E+00 1.827103319E-02
 2.650000000E+00 -1.000000000E+00 1.779104078E-02
 2.700000000E+00 -1.000000000E+00 1.730845404E-02
 2.750000000E+00 -1.000000000E+00 1.687137537E-02
 2.800000000E+00 -1.000000000E+00 1.649249429E-02
 2.850000000E+00 -1.000000000E+00 1.613415925E-02
 2.900000000E+00 -1.000000000E+00 1.583625695E-02
 2.950000000E+00 -1.000000000E+00 1.551578249E-02
 3.000000000E+00 -1.000000000E+00 1.529907240E-02
 3.050000000E+00 -1.000000000E+00 1.499774852E-02
 3.100000000E+00 -1.000000000E+00 1.478492185E-02
 3.150000000E+00 -1.000000000E+00 1.450364851E-02
 3.200000000E+00 -1.000000000E+00 1.422493407E-02
 3.250000000E+00 -1.000000000E+00 1.389584063E-02
 3.300000000E+00 -1.000000000E+00 1.343952169E-02
 3.350000000E+00 -1.000000000E+00 1.280999047E-02
 3.400000000E+00 -1.000000000E+00 1.164790753E-02
 3.450000000E+00 -1.000000000E+00 9.226200884E-03
 3.500000000E+00 -9.500000000E-01 4.356867822E-03
 3.500000000E+00 -9.000000000E-01 5.809442190E-03
 3.500000000E+00 -8.500000000E-01 7.088656913E-03
 3.500000000E+00 -8.000000000E-01 8.411877155E-03
 3.500000000E+00 -7.500000000E-01 9.630189158E-03
 3.500000000E+00 -7.000000000E-01 1.072759584E-02
 3.500000000E+00 -6.500000000E-01 1.181496936E-02
 3.500000000E+00 -6.000000000E-01 1.299268973E-02
 3.500000000E+00 -5.500000000E-01 1.423519604E-02
 3.500000000E+00 -5.000000000E-01 1.548214761E-02
 3.500000000E+00 -4.500000000E-01 1.672505747E-02
 3.500000000E+00 -4.000000000E-01 1.797509979E-02
 3.500000000E+00 -3.500000000E-01 1.920504095E-02
 3.500000000E+00 -3.000000000E-01 2.040336671E-02
 3.500000000E+00 -2.500000000E-01 2.134922343E-02
 3.500000000E+00 -2.000000000E-01 2.184311350E-02
 3.500000000E+00 -1.500000000E-01 2.184311861E-02
 3.500000000E+00 -1.000000000E-01 2.157549136E-02
 3.500000000E+00 -5.000000000E-02 2.137829160E-02
 3.500000000E+00 -2.752242878E-12 2.140993877E-02
 3.500000000E+00 5.000000000E-02 2.154791216E-02
 3.500000000E+00 1.000000000E-01 2.157178926E-02
 3.500000000E+00 1.500000000E-01 2.124090788E-02
 3.500000000E+00 2.000000000E-01 2.042504281E-02
 3.500000000E+00 2.500000000E-01 1.920640866E-02
 3.500000000E+00 3.000000000E-01 1.795282756E-02
 3.500000000E+00 3.500000000E-01 1.662932509E-02
 3.500000000E+00 4.000000000E-01 1.536065951E-02
 3.500000000E+00 4.500000000E-01 1.406604731E-02
 3.500000000E+00 5.000000000E-01 1.263933146E-02
 3.500000000E+00 5.500000000E-01 1.143367038E-02
 3.500000000E+00 6.000000000E-01 1.062150074E-02
 3.500000000E+00 6.500000000E-01 1.024567247E-02
 3.500000000E+00 7.000000000E-01 9.939518074E-03
 3.500000000E+00 7.500000000E-01 8.478981026E-03
 3.500000000E+00 8.000000000E-01 4.363936308E-03
 3.500000000E+00 8.500000000E-01 -2.695603582E-03
 3.500000000E+00 9.000000000E-01 -1.274811166E-02
 3.500000000E+00 9.500000000E-01 -2.364177041E-02
 3.450000000E+00 1.000000000E+00 -9.822301686E-03
 3.400000000E+00 1.000000000E+00 -2.876396236E-03
 3.350000000E+00 1.000000000E+00 -6.130611468E-04
 3.300000000E+00 1.000000000E+00 -5.373172020E-04
 3.250000000E+00 1.000000000E+00 -6.990173600E-04
 3.200000000E+00 1.000000000E+00 -1.248009211E-03
 3.150000000E+00 1.000000000E+00 -1.767787171E-03
 3.100000000E+00 1.000000000E+00 -2.501749282E-03
 3.050000000E+00 1.000000000E+00 -3.192517648E-03
 3.000000000E+00 1.000000000E+00 -4.112755741E-03
 2.950000000E+00 1.000000000E+00 -4.952535026E-03
 2.900000000E+00 1.000000000E+00 -5.869776880E-03
 2.850000000E+00 1.000000000E+00 -6.819284375E-03
 2.800000000E+00 1.000000000E+00 -7.778011476E-03
 2.750000000E+00 1.000000000E+00 -8.691625825E-03
 2.700000000E+00 1.000000000E+00 -9.785027468E-03
 2.650000000E+00 1.000000000E+00 -1.087330236E-02
 2.600000000E+00 1.000000000E+00 -1.194209571E-02
 2.550000000E+00 1.000000000E+00 -1.315444844E-02
 2.500000000E+00 1.000000000E+00 -1.435081319E-02
 2.450000000E+00 1.000000000E+00 -1.558644466E-02
 2.400000000E+00 1.000000000E+00 -1.683484788E-02
 2.350000000E+00 1.000000000E+00 -1.829524997E-02
 2.300000000E+00 1.000000000E+00 -1.961486392E-02
 2.250000000E+00 1.000000000E+00 -2.119075382E-02
 2.200000000E+00 1.000000000E+00 -2.285504493E-02
 2.150000000E+00 1.000000000E+00 -2.458375572E-02
 2.100000000E+00 1.000000000E+00 -2.644544924E-02
 2.050000000E+00 1.000000000E+00 -2.846491697E-02
 2.000000000E+00 1.000000000E+00 -3.051654943E-02
 1.950000000E+00 1.000000000E+00 -3.285823940E-02
 1.900000000E+00 1.000000000E+00 -3.528440985E-02
 1.850000000E+00 1.000000000E+00 -3.791949662E-02
 1.800000000E+00 1.000000000E+00 -4.077819983E-02
 1.750000000E+00 1.000000000E+00 -4.406813460E-02
 1.700000000E+00 1.000000000E+00 -4.723060414E-02
 1.650000000E+00 1.000000000E+00 -5.089019580E-02
 1.600000000E+00 1.000000000E+00 -5.516797855E-02
 1.550000000E+00 1.000000000E+00 -5.930099893E-02
 1.500000000E+00 1.000000000E+00 -6.395059470E-02
 1.450000000E+00 1.000000000E+00 -6.921249426E-02
 1.400000000E+00 1.000000000E+00 -7.444707524E-02
 1.350000000E+00 1.000000000E+00 -8.036577139E-02
 1.300000000E+00 1.000000000E+00 -8.625206425E-02
 1.250000000E+00 1.000000000E+00 -9.234025516E-02
 1.200000000E+00 1.000000000E+00 -9.919699958E-02
 1.150000000E+00 1.000000000E+00 -1.059266539E-01
 1.100000000E+00 1.000000000E+00 -1.118032738E-01
 1.050000000E+00 1.000000000E+00 -1.182652927E-01
 1.000000000E+00 1.000000000E+00 -1.231921617E-01
 9.500000000E-01 1.000000000E+00 -1.277113619E-01
 9.000000000E-01 1.000000000E+00 -1.306695133E-01
 8.500000000E-01 1.000000000E+00 -1.325570538E-01
 8.000000000E-01 1.000000000E+00 -1.322453008E-01
 7.500000000E-01 1.000000000E+00 -1.309137906E-01
 7.000000000E-01 1.000000000E+00 -1.267609661E-01
 6.500000000E-01 1.000000000E+00 -1.213130217E-01
 6.000000000E-01 1.000000000E+00 -1.136917399E-01
 5.500000000E-01 1.000000000E+00 -1.044486588E-01
 5.000000000E-01 1.000000000E+00 -9.380202342E-02
 4.500000000E-01 1.000000000E+00 -8.209769148E-02
 4.000000000E-01 1.000000000E+00 -6.965516407E-02
 3.500000000E-01 1.000000000E+00 -5.691303566E-02
 3.000000000E-01 1.000000000E+00 -4.397365923E-02
 2.500000000E-01 1.000000000E+00 -3.131930448E-02
 2.000000000E-01 1.000000000E+00 -1.926330202E-02
 1.500000000E-01 1.000000000E+00 -7.844779603E-03
 1.000000000E-01 1.000000000E+00 2.280685748E-03
 5.000000000E-02 1.000000000E+00 1.126812433E-02
 1.733724275E-12 1.000000000E+00 1.892381492E-02
 -5.000000000E-02 1.000000000E+00 2.506124083E-02
 -1.000000000E-01 1.000000000E+00 2.956128288E-02
 -1.500000000E-01 1.000000000E+00 3.241580924E-02
 -2.000000000E-01 1.000000000E+00 3.383070872E-02
 -2.500000000E-01 1.000000000E+00 3.374234498E-02
 -3.000000000E-01 1.000000000E+00 3.224506407E-02
 -3.500000000E-01 1.000000000E+00 2.934694192E-02
 -4.000000000E-01 1.000000000E+00 2.443175874E-02
 -4.500000000E-01 1.000000000E+00 1.640637649E-02
 1.975954954E+00 -9.592743683E-01 2.743596981E-02
 1.975944009E+00 9.574636925E-01 -3.002339085E-02
 9.032716661E-01 -4.201764969E-03 3.602357353E-01
 8.248690816E-01 -1.097339993E-02 2.874426866E-01
 9.860050815E-01 -3.987347078E-03 3.722063729E-01
 7.532970094E-01 -1.905251108E-02 1.956728120E-01
 6.826001052E-01 -2.997908712E-02 9.031341762E-02
 6.159380748E-01 -3.892296381E-02 -2.939877637E-02
 5.538256000E-01 -4.779760357E-02 -1.793256265E-01
 4.875815768E-01 -5.530548415E-02 -3.771489941E-01
 4.315763512E-01 -6.079940106E-02 -5.531108426E-01
 3.713489123E-01 -6.181538454E-02 -6.627175357E-01
 3.138605831E-01 -6.230667632E-02 -5.819283211E-01