TITLE     = "Visualization of the solution"
VARIABLES = "x"
"y"
"Pressure_Coefficient"
ZONE T="Zone"
 STRANDID=0, SOLUTIONTIME=0
 Nodes=11942, Elements=23304, ZONETYPE=FEQuadrilateral
 DATAPACKING=POINT
 DT=(DOUBLE DOUBLE DOUBLE )
 9.999197125E-01 5.203022738E-04 3.286307989E-01
 9.868363738E-01 2.948033856E-03 2.111419921E-01
 9.743579030E-01 5.219350569E-03 1.542730893E-01
 9.595863223E-01 7.969243452E-03 8.806966200E-02
 9.453727603E-01 1.054383721E-02 4.839419012E-02
 9.322143793E-01 1.294284314E-02 5.540061928E-03
 9.209880233E-01 1.499337144E-02 -4.313546166E-02
 9.083703756E-01 1.719174907E-02 -7.223005395E-02
 8.967117667E-01 1.918318309E-02 -1.023486473E-01
 8.845874667E-01 2.120873518E-02 -1.369424948E-01
 8.721032739E-01 2.319947258E-02 -1.577182604E-01
 8.599521518E-01 2.507381141E-02 -1.728825612E-01
 8.477416039E-01 2.694839053E-02 -2.105474154E-01
 8.359870911E-01 2.863409184E-02 -2.140156686E-01
 8.241268396E-01 3.029848635E-02 -2.209759349E-01
 8.113687634E-01 3.208250552E-02 -2.456319425E-01
 7.982633114E-01 3.385426477E-02 -2.612119108E-01
 7.859255075E-01 3.545767069E-02 -2.627566837E-01
 7.736681700E-01 3.709437698E-02 -3.043179189E-01
 7.613101602E-01 3.861417249E-02 -2.964767375E-01
 7.483291626E-01 4.023343325E-02 -3.195018813E-01
 7.345813513E-01 4.191576689E-02 -3.483390844E-01
 7.235980034E-01 4.319917783E-02 -3.557420859E-01
 7.124493122E-01 4.449736327E-02 -3.816491384E-01
 7.007376552E-01 4.581231251E-02 -3.975515635E-01
 6.870121360E-01 4.729110375E-02 -4.138067235E-01
 6.739386916E-01 4.867911339E-02 -4.492201611E-01
 6.635705233E-01 4.970320314E-02 -4.526211942E-01
 6.520473361E-01 5.082599446E-02 -4.740132609E-01
 6.407043338E-01 5.187800527E-02 -4.882164846E-01
 6.289994717E-01 5.293184146E-02 -5.211782086E-01
 6.177308559E-01 5.389100686E-02 -5.398086614E-01
 6.068158746E-01 5.474294722E-02 -5.359583898E-01
 5.944043398E-01 5.569162965E-02 -5.677541419E-01
 5.826953650E-01 5.652891099E-02 -5.955557271E-01
 5.692848563E-01 5.740389600E-02 -6.117206578E-01
 5.566262007E-01 5.814122781E-02 -6.235795218E-01
 5.442322493E-01 5.881367251E-02 -6.480742388E-01
 5.329727530E-01 5.934314430E-02 -6.540512803E-01
 5.212170482E-01 5.983712897E-02 -6.808012521E-01
 5.085008740E-01 6.032096222E-02 -6.890467897E-01
 4.971951246E-01 6.064045057E-02 -6.562782928E-01
 4.839977920E-01 6.097349897E-02 -6.596745992E-01
 4.707581103E-01 6.122386456E-02 -6.648176055E-01
 4.565570951E-01 6.142201647E-02 -6.681194350E-01
 4.427874386E-01 6.150395796E-02 -6.486816395E-01
 4.297410548E-01 6.150946394E-02 -6.388282749E-01
 4.168887436E-01 6.144587696E-02 -6.300176522E-01
 4.046134651E-01 6.131238863E-02 -6.129723712E-01
 3.920874298E-01 6.111010537E-02 -5.994523073E-01
 3.799914718E-01 6.085889786E-02 -5.976928596E-01
 3.690334260E-01 6.057782471E-02 -5.855000385E-01
 3.558461964E-01 6.015964225E-02 -5.669724769E-01
 3.437102437E-01 5.970996618E-02 -5.473038545E-01
 3.311537504E-01 5.918836594E-02 -5.419798167E-01
 3.206540048E-01 5.870983750E-02 -5.337929764E-01
 3.082005084E-01 5.806349963E-02 -5.141834084E-01
 2.952159047E-01 5.732981861E-02 -5.000861840E-01
 2.813277841E-01 5.646840110E-02 -4.896345494E-01
 2.686960399E-01 5.561073497E-02 -4.763758519E-01
 2.567069530E-01 5.472279713E-02 -4.580536791E-01
 2.441466600E-01 5.373550206E-02 -4.445573390E-01
 2.312595397E-01 5.264138058E-02 -4.283633221E-01
 2.189325690E-01 5.154010653E-02 -4.208963153E-01
 2.070985138E-01 5.039453506E-02 -4.018237221E-01
 1.956853420E-01 4.923686758E-02 -3.894279062E-01
 1.830721945E-01 4.787729308E-02 -3.760093407E-01
 1.710932553E-01 4.650314525E-02 -3.606864106E-01
 1.594267339E-01 4.508600384E-02 -3.440079097E-01
 1.473817527E-01 4.354207963E-02 -3.310805832E-01
 1.365623474E-01 4.207277671E-02 -3.160471113E-01
 1.249938756E-01 4.040798172E-02 -2.974749179E-01
 1.134137735E-01 3.864359111E-02 -2.829405460E-01
 1.027595177E-01 3.692127019E-02 -2.648993851E-01
 9.303961694E-02 3.525751084E-02 -2.521936482E-01
 8.194071800E-02 3.322948515E-02 -2.298663598E-01
 7.022655010E-02 3.092714585E-02 -2.076440816E-01
 6.045222655E-02 2.883849293E-02 -1.849495596E-01
 5.087294802E-02 2.662777714E-02 -1.617207606E-01
 4.209687561E-02 2.440653183E-02 -1.361890148E-01
 3.465272859E-02 2.234147117E-02 -1.072513862E-01
 2.812348679E-02 2.034283802E-02 -7.922594069E-02
 2.267367393E-02 1.850190014E-02 -5.065316854E-02
 1.872126944E-02 1.702393033E-02 -1.192842976E-02
 1.504613832E-02 1.552154031E-02 1.892588717E-02
 1.237226836E-02 1.431378163E-02 5.929019872E-02
 9.987149388E-03 1.313250605E-02 1.001467470E-01
 8.238575421E-03 1.218326483E-02 1.359945938E-01
 6.666021887E-03 1.125843823E-02 1.774779086E-01
 5.232776981E-03 1.032747515E-02 2.543200608E-01
 3.356126137E-03 8.950310759E-03 3.506202999E-01
 1.731088734E-03 7.518299390E-03 4.548138819E-01
 3.298764059E-04 5.968614947E-03 6.676339789E-01
 -9.796562372E-04 3.893508110E-03 9.119079371E-01
 -1.574775088E-03 2.264376730E-03 1.064062695E+00
 -1.790024224E-03 9.600872872E-04 1.157334325E+00
 -1.757143764E-03 -6.062123575E-04 1.193699795E+00
 -1.361093833E-03 -2.369997790E-03 1.134208722E+00
 -4.610492906E-04 -4.389819689E-03 1.005452015E+00
 9.837107500E-04 -6.530573126E-03 8.326162643E-01
 3.046796657E-03 -8.788457140E-03 6.418192372E-01
 4.922683351E-03 -1.045951061E-02 5.020793547E-01
 7.082526106E-03 -1.211753022E-02 4.117238559E-01
 8.714470081E-03 -1.324009430E-02 3.246160635E-01
 1.074377261E-02 -1.451882068E-02 2.670474165E-01
 1.314168889E-02 -1.589589566E-02 1.996564858E-01
 1.638850383E-02 -1.759027317E-02 1.342306480E-01
 1.943999156E-02 -1.903175563E-02 6.856203167E-02
 2.337100543E-02 -2.073262446E-02 1.838196292E-02
 2.873035148E-02 -2.282309905E-02 -3.285693136E-02
 3.448047116E-02 -2.484383062E-02 -8.905938567E-02
 4.170412943E-02 -2.711878903E-02 -1.305707885E-01
 4.922405258E-02 -2.926272899E-02 -1.667923050E-01
 5.793913454E-02 -3.151982278E-02 -1.959295699E-01
 6.665627658E-02 -3.357593715E-02 -2.261316420E-01
 7.686167955E-02 -3.579097614E-02 -2.518945599E-01
 8.660029620E-02 -3.773412108E-02 -2.689542717E-01
 9.692168236E-02 -3.964689001E-02 -2.925640894E-01
 1.077531204E-01 -4.151286185E-02 -3.083668105E-01
 1.191865280E-01 -4.335038364E-02 -3.265814102E-01
 1.306653321E-01 -4.507499933E-02 -3.464979721E-01
 1.411718279E-01 -4.654924572E-02 -3.624977227E-01
 1.520410478E-01 -4.798297584E-02 -3.741512569E-01
 1.638026386E-01 -4.945657775E-02 -3.987793361E-01
 1.753319651E-01 -5.078988522E-02 -4.123331314E-01
 1.870891303E-01 -5.207258463E-02 -4.314990042E-01
 1.975241303E-01 -5.313431099E-02 -4.511419861E-01
 2.085647136E-01 -5.418593064E-02 -4.677741492E-01
 2.206760794E-01 -5.524916947E-02 -4.842110204E-01
 2.331103832E-01 -5.625693500E-02 -5.067452422E-01
 2.453185767E-01 -5.714907870E-02 -5.248110214E-01
 2.580475211E-01 -5.799838528E-02 -5.540358623E-01
 2.692584991E-01 -5.865127593E-02 -5.792349744E-01
 2.819709480E-01 -5.929673091E-02 -5.990393012E-01
 2.944737673E-01 -5.981311947E-02 -6.150765875E-01
 3.074518144E-01 -6.025782228E-02 -6.412527594E-01
 3.192081153E-01 -6.054511666E-02 -6.656100985E-01
 3.317272663E-01 -6.074686721E-02 -6.792040253E-01
 3.425410986E-01 -6.082803383E-02 -7.035320838E-01
 3.539305627E-01 -6.080856919E-02 -7.116361719E-01
 3.649662137E-01 -6.069919840E-02 -7.189493287E-01
 3.757044375E-01 -6.048763171E-02 -7.097301371E-01
 3.872696459E-01 -6.016755104E-02 -6.934763209E-01
 3.999395669E-01 -5.966338888E-02 -6.526168441E-01
 4.124267995E-01 -5.904950947E-02 -6.185563068E-01
 4.254367352E-01 -5.826098844E-02 -5.807552487E-01
 4.381120205E-01 -5.737678334E-02 -5.522366399E-01
 4.506846368E-01 -5.635586381E-02 -5.084263515E-01
 4.630100429E-01 -5.523253977E-02 -4.568533907E-01
 4.758118689E-01 -5.398790166E-02 -4.264699574E-01
 4.875786602E-01 -5.272575840E-02 -3.833269903E-01
 5.001512170E-01 -5.131131783E-02 -3.483665643E-01
 5.137306452E-01 -4.965620488E-02 -2.964980580E-01
 5.275325179E-01 -4.790613055E-02 -2.527380168E-01
 5.410156250E-01 -4.615782574E-02 -2.257693045E-01
 5.544064045E-01 -4.431840777E-02 -1.784728281E-01
 5.674521923E-01 -4.251516610E-02 -1.493612773E-01
 5.805565715E-01 -4.065182433E-02 -1.132874905E-01
 5.930104852E-01 -3.888149187E-02 -9.056754725E-02
 6.054853797E-01 -3.707535937E-02 -6.257739639E-02
 6.189777851E-01 -3.509285301E-02 -3.035946816E-02
 6.333293319E-01 -3.299405053E-02 -4.608377460E-03
 6.470964551E-01 -3.095792048E-02 2.711852010E-02
 6.606097817E-01 -2.901094966E-02 4.175712465E-02
 6.741319895E-01 -2.703106590E-02 6.864283265E-02
 6.865710020E-01 -2.521594055E-02 9.266773248E-02
 6.989431977E-01 -2.343937010E-02 1.122186595E-01
 7.136657238E-01 -2.134755626E-02 1.362616742E-01
 7.267041206E-01 -1.954614185E-02 1.519771660E-01
 7.384854555E-01 -1.793935522E-02 1.678483921E-01
 7.511628270E-01 -1.623447239E-02 1.841429504E-01
 7.637202740E-01 -1.455599442E-02 2.053802220E-01
 7.766126394E-01 -1.287862565E-02 2.237324520E-01
 7.884590030E-01 -1.138014253E-02 2.409091046E-01
 8.011044860E-01 -9.822805412E-03 2.598596917E-01
 8.123774529E-01 -8.510467596E-03 2.697751737E-01
 8.235867023E-01 -7.213140838E-03 2.918037303E-01
 8.359172344E-01 -5.874632392E-03 3.071722228E-01
 8.483445048E-01 -4.625024740E-03 3.200772967E-01
 8.603643179E-01 -3.488207702E-03 3.371835774E-01
 8.722757101E-01 -2.485047327E-03 3.459050754E-01
 8.840960860E-01 -1.571853412E-03 3.601659700E-01
 8.972298503E-01 -7.077420596E-04 3.686388757E-01
 9.074344039E-01 -1.466587128E-04 3.759437013E-01
 9.177132845E-01 3.172750585E-04 3.790749775E-01
 9.272246361E-01 6.572165294E-04 3.812354092E-01
 9.361428618E-01 9.003113955E-04 3.843507603E-01
 9.485689998E-01 1.106392010E-03 3.826184285E-01
 9.621649981E-01 1.177193248E-03 3.832398625E-01
 9.769404531E-01 1.076252782E-03 3.878813899E-01
 9.893165827E-01 8.359256899E-04 4.025375064E-01
 -5.000000000E-01 -1.000000000E+00 1.418205023E-02
 3.500000000E+00 -1.000000000E+00 6.158818563E-03
 3.500000000E+00 1.000000000E+00 -2.328766956E-02
 -5.000000000E-01 1.000000000E+00 1.331918212E-02
 9.933780432E-01 1.734168065E-03 2.900731845E-01
 9.805971384E-01 4.083692213E-03 1.828851404E-01
 9.669721127E-01 6.594297010E-03 1.171310837E-01
 9.524795413E-01 9.256540332E-03 6.851561477E-02
 9.387935698E-01 1.174334018E-02 2.796328741E-02
 9.266012013E-01 1.396810729E-02 -2.282924729E-02
 9.146791995E-01 1.609256025E-02 -5.690056820E-02
 9.025410712E-01 1.818746608E-02 -8.683220517E-02
 8.906496167E-01 2.019595914E-02 -1.218412596E-01
 8.783453703E-01 2.220410388E-02 -1.485006106E-01
 8.660277128E-01 2.413664199E-02 -1.614059539E-01
 8.538468778E-01 2.601110097E-02 -1.966351729E-01
 8.418643475E-01 2.779124118E-02 -2.117923285E-01
 8.300569654E-01 2.946628910E-02 -2.146572736E-01
 8.177478015E-01 3.119049594E-02 -2.339730651E-01
 8.048160374E-01 3.296838515E-02 -2.570119565E-01
 7.920944095E-01 3.465596773E-02 -2.539543975E-01
 7.797968388E-01 3.627602383E-02 -2.923155697E-01
 7.674891651E-01 3.785427473E-02 -2.959535483E-01
 7.548196614E-01 3.942380287E-02 -3.065336468E-01
 7.414552569E-01 4.107460007E-02 -3.370196929E-01
 7.290896773E-01 4.255747236E-02 -3.493976819E-01
 7.180236578E-01 4.384827055E-02 -3.693376043E-01
 7.065934837E-01 4.515483789E-02 -3.923715178E-01
 6.938748956E-01 4.655170813E-02 -4.009153790E-01
 6.804754138E-01 4.798510857E-02 -4.361703550E-01
 6.687546074E-01 4.919115826E-02 -4.479551233E-01
 6.578089297E-01 5.026459880E-02 -4.649543155E-01
 6.463758349E-01 5.135199986E-02 -4.793030377E-01
 6.348519027E-01 5.240492336E-02 -5.035954832E-01
 6.233651638E-01 5.341142416E-02 -5.363086394E-01
 6.122733653E-01 5.431697704E-02 -5.333147402E-01
 6.006101072E-01 5.521728843E-02 -5.504587675E-01
 5.885498524E-01 5.611027032E-02 -5.840374729E-01
 5.759901106E-01 5.696640350E-02 -6.059663657E-01
 5.629555285E-01 5.777256191E-02 -6.140183516E-01
 5.504292250E-01 5.847745016E-02 -6.384297886E-01
 5.386025012E-01 5.907840841E-02 -6.504231877E-01
 5.270949006E-01 5.959013663E-02 -6.636891716E-01
 5.148589611E-01 6.007904559E-02 -6.960234609E-01
 5.028479993E-01 6.048070639E-02 -6.667912004E-01
 4.905964583E-01 6.080697477E-02 -6.582168928E-01
 4.773779511E-01 6.109868176E-02 -6.603971350E-01
 4.636576027E-01 6.132294051E-02 -6.710342807E-01
 4.496722668E-01 6.146298721E-02 -6.568310865E-01
 4.362642467E-01 6.150671095E-02 -6.427743735E-01
 4.233148992E-01 6.147767045E-02 -6.353802669E-01
 4.107511044E-01 6.137913279E-02 -6.218429825E-01
 3.983504474E-01 6.121124700E-02 -6.046772867E-01
 3.860394508E-01 6.098450162E-02 -5.975882232E-01
 3.745124489E-01 6.071836129E-02 -5.948093302E-01
 3.624398112E-01 6.036873348E-02 -5.757004898E-01
 3.497782201E-01 5.993480422E-02 -5.566775199E-01
 3.374319971E-01 5.944916606E-02 -5.417683533E-01
 3.259038776E-01 5.894910172E-02 -5.418203807E-01
 3.144272566E-01 5.838666856E-02 -5.230421696E-01
 3.017082065E-01 5.769665912E-02 -5.073717956E-01
 2.882718444E-01 5.689910986E-02 -4.942788028E-01
 2.750119120E-01 5.603956804E-02 -4.838860467E-01
 2.627014965E-01 5.516676605E-02 -4.660598883E-01
 2.504268065E-01 5.422914959E-02 -4.528916970E-01
 2.377030998E-01 5.318844132E-02 -4.340742110E-01
 2.250960544E-01 5.209074356E-02 -4.268449784E-01
 2.130155414E-01 5.096732080E-02 -4.098266494E-01
 2.013919279E-01 4.981570132E-02 -3.965257160E-01
 1.893787682E-01 4.855708033E-02 -3.830539696E-01
 1.770827249E-01 4.719021916E-02 -3.682863337E-01
 1.652599946E-01 4.579457454E-02 -3.523353614E-01
 1.534042433E-01 4.431404173E-02 -3.371814416E-01
 1.419720501E-01 4.280742817E-02 -3.246632506E-01
 1.307781115E-01 4.124037921E-02 -3.069261609E-01
 1.192038245E-01 3.952578641E-02 -2.892962235E-01
 1.080866456E-01 3.778243065E-02 -2.759170121E-01
 8.749016747E-02 3.424349800E-02 -2.419420008E-01
 7.608363405E-02 3.207831550E-02 -2.230442009E-01
 7.175897807E-02 -3.468345664E-02 -2.424508324E-01
 9.176098928E-02 -3.869050555E-02 -2.853301366E-01
 1.023374014E-01 -4.057987593E-02 -3.002160306E-01
 1.134698242E-01 -4.243162274E-02 -3.171774428E-01
 1.249259301E-01 -4.421269149E-02 -3.366286497E-01
 1.359185800E-01 -4.581212252E-02 -3.565812178E-01
 1.466064379E-01 -4.726611078E-02 -3.679602566E-01
 1.579218432E-01 -4.871977679E-02 -3.843670922E-01
 1.695673019E-01 -5.012323149E-02 -4.085873144E-01
 1.812105477E-01 -5.143123493E-02 -4.197668058E-01
 1.923066303E-01 -5.260344781E-02 -4.433898095E-01
 2.030444220E-01 -5.366012082E-02 -4.583497620E-01
 2.146203965E-01 -5.471755005E-02 -4.757807848E-01
 2.268932313E-01 -5.575305223E-02 -4.943951379E-01
 2.392144799E-01 -5.670300685E-02 -5.171944294E-01
 2.516830489E-01 -5.757373199E-02 -5.361680538E-01
 2.636530101E-01 -5.832483061E-02 -5.702176472E-01
 2.756147236E-01 -5.897400342E-02 -5.867804030E-01
 2.882223576E-01 -5.955492519E-02 -6.093187441E-01
 3.009627908E-01 -6.003547087E-02 -6.243034678E-01
 3.133299649E-01 -6.040146947E-02 -6.575355885E-01
 3.254676908E-01 -6.064599194E-02 -6.709147133E-01
 3.371341825E-01 -6.078745052E-02 -6.921442977E-01
 3.482358307E-01 -6.081830151E-02 -7.095141586E-01
 3.594483882E-01 -6.075388379E-02 -7.146555531E-01
 3.703353256E-01 -6.059341505E-02 -7.186805129E-01
 3.814870417E-01 -6.032759137E-02 -6.992324310E-01
 3.936046064E-01 -5.991546996E-02 -6.771310630E-01
 4.061831832E-01 -5.935644917E-02 -6.324658964E-01
 4.189317673E-01 -5.865524895E-02 -6.014784544E-01
 4.317743778E-01 -5.781888589E-02 -5.647180116E-01
 4.443983287E-01 -5.686632358E-02 -5.338803723E-01
 4.568473399E-01 -5.579420179E-02 -4.827127016E-01
 4.694109559E-01 -5.461022072E-02 -4.383163797E-01
 4.816952646E-01 -5.335683003E-02 -4.093640570E-01
 4.938649386E-01 -5.201853812E-02 -3.627478943E-01
 5.069409311E-01 -5.048376136E-02 -3.257410180E-01
 5.206315815E-01 -4.878116772E-02 -2.728638751E-01
 5.342740715E-01 -4.703197815E-02 -2.377438511E-01
 5.477110147E-01 -4.523811676E-02 -2.049854426E-01
 5.609292984E-01 -4.341678694E-02 -1.613773563E-01
 5.740043819E-01 -4.158349521E-02 -1.330410447E-01
 5.867835283E-01 -3.976665810E-02 -9.986492878E-02
 5.992479324E-01 -3.797842562E-02 -7.764412675E-02
 6.122315824E-01 -3.608410619E-02 -4.713764300E-02
 6.261535585E-01 -3.404345177E-02 -1.675264236E-02
 6.402128935E-01 -3.197598550E-02 9.888149350E-03
 6.538531184E-01 -2.998443507E-02 3.715124302E-02
 6.673708856E-01 -2.802100778E-02 5.345852779E-02
 6.803514957E-01 -2.612350322E-02 8.071927198E-02
 6.927570999E-01 -2.432765532E-02 1.028373677E-01
 7.063044608E-01 -2.239346318E-02 1.233373944E-01
 7.201849222E-01 -2.044684906E-02 1.457767764E-01
 7.325947881E-01 -1.874274854E-02 1.600147513E-01
 7.448241413E-01 -1.708691381E-02 1.757529323E-01
 7.574415505E-01 -1.539523341E-02 1.940400032E-01
 7.701664567E-01 -1.371731004E-02 2.147294747E-01
 7.825358212E-01 -1.212938409E-02 2.324912336E-01
 7.947817445E-01 -1.060147397E-02 2.496301059E-01
 8.067409694E-01 -9.166636504E-03 2.667223919E-01
 8.179820776E-01 -7.861804217E-03 2.784643369E-01
 8.297519684E-01 -6.543886615E-03 2.993458258E-01
 8.421308696E-01 -5.249828566E-03 3.146382779E-01
 8.543544114E-01 -4.056616221E-03 3.280433569E-01
 8.663200140E-01 -2.986627514E-03 3.426468861E-01
 8.781858981E-01 -2.028450370E-03 3.522201183E-01
 8.906629682E-01 -1.139797736E-03 3.641656260E-01
 9.023321271E-01 -4.272003862E-04 3.746441621E-01
 9.125738442E-01 8.530817286E-05 3.779363979E-01
 9.423559308E-01 1.003351703E-03 3.834082810E-01
 9.553669989E-01 1.141792629E-03 3.822482841E-01
 9.695527256E-01 1.126723015E-03 3.836044383E-01
 9.831285179E-01 9.560892358E-04 3.948494616E-01
 9.946181476E-01 6.781139818E-04 4.466112006E-01
 -5.000000000E-01 9.500000000E-01 2.187225355E-02
 -5.000000000E-01 9.000000000E-01 3.307429885E-02
 -5.000000000E-01 8.500000000E-01 4.185833727E-02
 -5.000000000E-01 8.000000000E-01 4.935492238E-02
 -5.000000000E-01 7.500000000E-01 5.658491075E-02
 -5.000000000E-01 7.000000000E-01 6.394557303E-02
 -5.000000000E-01 6.500000000E-01 7.128425602E-02
 -5.000000000E-01 6.000000000E-01 7.885566790E-02
 -5.000000000E-01 5.500000000E-01 8.661715739E-02
 -5.000000000E-01 5.000000000E-01 9.475248750E-02
 -5.000000000E-01 4.500000000E-01 1.029290638E-01
 -5.000000000E-01 4.000000000E-01 1.112130229E-01
 -5.000000000E-01 3.500000000E-01 1.191617530E-01
 -5.000000000E-01 3.000000000E-01 1.270909741E-01
 -5.000000000E-01 2.500000000E-01 1.344103714E-01
 -5.000000000E-01 2.000000000E-01 1.410269207E-01
 -5.000000000E-01 1.500000000E-01 1.466527855E-01
 -5.000000000E-01 1.000000000E-01 1.508359887E-01
 -5.000000000E-01 5.000000000E-02 1.535656744E-01
 -5.000000000E-01 2.752242878E-12 1.548045568E-01
 -5.000000000E-01 -5.000000000E-02 1.542835593E-01
 -5.000000000E-01 -1.000000000E-01 1.521029906E-01
 -5.000000000E-01 -1.500000000E-01 1.484373247E-01
 -5.000000000E-01 -2.000000000E-01 1.434377899E-01
 -5.000000000E-01 -2.500000000E-01 1.373181565E-01
 -5.000000000E-01 -3.000000000E-01 1.303661058E-01
 -5.000000000E-01 -3.500000000E-01 1.228738850E-01
 -5.000000000E-01 -4.000000000E-01 1.149838431E-01
 -5.000000000E-01 -4.500000000E-01 1.069756566E-01
 -5.000000000E-01 -5.000000000E-01 9.891033278E-02
 -5.000000000E-01 -5.500000000E-01 9.095993132E-02
 -5.000000000E-01 -6.000000000E-01 8.313426287E-02
 -5.000000000E-01 -6.500000000E-01 7.548721506E-02
 -5.000000000E-01 -7.000000000E-01 6.790797038E-02
 -5.000000000E-01 -7.500000000E-01 6.049121585E-02
 -5.000000000E-01 -8.000000000E-01 5.293647742E-02
 -5.000000000E-01 -8.500000000E-01 4.491607054E-02
 -5.000000000E-01 -9.000000000E-01 3.568522124E-02
 -5.000000000E-01 -9.500000000E-01 2.367409216E-02
 -4.500000000E-01 -1.000000000E+00 1.947427963E-02
 -4.000000000E-01 -1.000000000E+00 2.900181392E-02
 -3.500000000E-01 -1.000000000E+00 3.501821475E-02
 -3.000000000E-01 -1.000000000E+00 3.879926624E-02
 -2.500000000E-01 -1.000000000E+00 4.098829110E-02
 -2.000000000E-01 -1.000000000E+00 4.176400931E-02
 -1.500000000E-01 -1.000000000E+00 4.096031007E-02
 -1.000000000E-01 -1.000000000E+00 3.876845223E-02
 -5.000000000E-02 -1.000000000E+00 3.502303339E-02
 -9.424683256E-13 -1.000000000E+00 2.982125655E-02
 5.000000000E-02 -1.000000000E+00 2.332455643E-02
 1.000000000E-01 -1.000000000E+00 1.570914393E-02
 1.500000000E-01 -1.000000000E+00 7.468118026E-03
 2.000000000E-01 -1.000000000E+00 -1.332155477E-03
 2.500000000E-01 -1.000000000E+00 -1.010175110E-02
 3.000000000E-01 -1.000000000E+00 -1.857158386E-02
 3.500000000E-01 -1.000000000E+00 -2.597829904E-02
 4.000000000E-01 -1.000000000E+00 -3.240639108E-02
 4.500000000E-01 -1.000000000E+00 -3.730266943E-02
 5.000000000E-01 -1.000000000E+00 -4.018111571E-02
 5.500000000E-01 -1.000000000E+00 -4.140686923E-02
 6.000000000E-01 -1.000000000E+00 -4.049618943E-02
 6.500000000E-01 -1.000000000E+00 -3.808548359E-02
 7.000000000E-01 -1.000000000E+00 -3.397825499E-02
 7.500000000E-01 -1.000000000E+00 -2.878934129E-02
 8.000000000E-01 -1.000000000E+00 -2.277043665E-02
 8.500000000E-01 -1.000000000E+00 -1.636446933E-02
 9.000000000E-01 -1.000000000E+00 -9.383982515E-03
 9.500000000E-01 -1.000000000E+00 -2.685511393E-03
 1.000000000E+00 -1.000000000E+00 3.693891416E-03
 1.050000000E+00 -1.000000000E+00 9.529357105E-03
 1.100000000E+00 -1.000000000E+00 1.476819011E-02
 1.150000000E+00 -1.000000000E+00 1.929077256E-02
 1.200000000E+00 -1.000000000E+00 2.310787790E-02
 1.250000000E+00 -1.000000000E+00 2.623569721E-02
 1.300000000E+00 -1.000000000E+00 2.873114806E-02
 1.350000000E+00 -1.000000000E+00 3.060786360E-02
 1.400000000E+00 -1.000000000E+00 3.199755590E-02
 1.450000000E+00 -1.000000000E+00 3.286740684E-02
 1.500000000E+00 -1.000000000E+00 3.340530294E-02
 1.550000000E+00 -1.000000000E+00 3.358328394E-02
 1.600000000E+00 -1.000000000E+00 3.352658790E-02
 1.650000000E+00 -1.000000000E+00 3.322889452E-02
 1.700000000E+00 -1.000000000E+00 3.275750932E-02
 1.750000000E+00 -1.000000000E+00 3.212319404E-02
 1.800000000E+00 -1.000000000E+00 3.151058405E-02
 1.850000000E+00 -1.000000000E+00 3.054904447E-02
 1.900000000E+00 -1.000000000E+00 2.986912142E-02
 1.950000000E+00 -1.000000000E+00 2.886301354E-02
 2.000000000E+00 -1.000000000E+00 2.797350236E-02
 2.050000000E+00 -1.000000000E+00 2.708655191E-02
 2.100000000E+00 -1.000000000E+00 2.619201814E-02
 2.150000000E+00 -1.000000000E+00 2.533400122E-02
 2.200000000E+00 -1.000000000E+00 2.446533339E-02
 2.250000000E+00 -1.000000000E+00 2.367070426E-02
 2.300000000E+00 -1.000000000E+00 2.285337682E-02
 2.350000000E+00 -1.000000000E+00 2.210529442E-02
 2.400000000E+00 -1.000000000E+00 2.137451522E-02
 2.450000000E+00 -1.000000000E+00 2.067818890E-02
 2.500000000E+00 -1.000000000E+00 2.007525670E-02
 2.550000000E+00 -1.000000000E+00 1.948265404E-02
 2.600000000E+00 -1.000000000E+00 1.893580464E-02
 2.650000000E+00 -1.000000000E+00 1.844859555E-02
 2.700000000E+00 -1.000000000E+00 1.797004933E-02
 2.750000000E+00 -1.000000000E+00 1.756999412E-02
 2.800000000E+00 -1.000000000E+00 1.721985448E-02
 2.850000000E+00 -1.000000000E+00 1.681966731E-02
 2.900000000E+00 -1.000000000E+00 1.656090859E-02
 2.950000000E+00 -1.000000000E+00 1.625691936E-02
 3.000000000E+00 -1.000000000E+00 1.601587146E-02
 3.050000000E+00 -1.000000000E+00 1.578393464E-02
 3.100000000E+00 -1.000000000E+00 1.556042172E-02
 3.150000000E+00 -1.000000000E+00 1.534160470E-02
 3.200000000E+00 -1.000000000E+00 1.506279163E-02
 3.250000000E+00 -1.000000000E+00 1.473244005E-02
 3.300000000E+00 -1.000000000E+00 1.427375358E-02
 3.350000000E+00 -1.000000000E+00 1.362386530E-02
 3.400000000E+00 -1.000000000E+00 1.239235927E-02
 3.450000000E+00 -1.000000000E+00 9.775089480E-03
 3.500000000E+00 -9.500000000E-01 4.499133490E-03
 3.500000000E+00 -9.000000000E-01 6.196503402E-03
 3.500000000E+00 -8.500000000E-01 7.668327809E-03
 3.500000000E+00 -8.000000000E-01 9.114235819E-03
 3.500000000E+00 -7.500000000E-01 1.042468216E-02
 3.500000000E+00 -7.000000000E-01 1.159479990E-02
 3.500000000E+00 -6.500000000E-01 1.284043032E-02
 3.500000000E+00 -6.000000000E-01 1.413478770E-02
 3.500000000E+00 -5.500000000E-01 1.548112206E-02
 3.500000000E+00 -5.000000000E-01 1.684330075E-02
 3.500000000E+00 -4.500000000E-01 1.823171768E-02
 3.500000000E+00 -4.000000000E-01 1.966533809E-02
 3.500000000E+00 -3.500000000E-01 2.100681237E-02
 3.500000000E+00 -3.000000000E-01 2.234039176E-02
 3.500000000E+00 -2.500000000E-01 2.336732997E-02
 3.500000000E+00 -2.000000000E-01 2.389205688E-02
 3.500000000E+00 -1.500000000E-01 2.400402442E-02
 3.500000000E+00 -1.000000000E-01 2.375511247E-02
 3.500000000E+00 -5.000000000E-02 2.353549027E-02
 3.500000000E+00 -2.752242878E-12 2.359390373E-02
 3.500000000E+00 5.000000000E-02 2.377849182E-02
 3.500000000E+00 1.000000000E-01 2.372421498E-02
 3.500000000E+00 1.500000000E-01 2.332675766E-02
 3.500000000E+00 2.000000000E-01 2.238422772E-02
 3.500000000E+00 2.500000000E-01 2.102366819E-02
 3.500000000E+00 3.000000000E-01 1.959673246E-02
 3.500000000E+00 3.500000000E-01 1.819111680E-02
 3.500000000E+00 4.000000000E-01 1.678440826E-02
 3.500000000E+00 4.500000000E-01 1.534055295E-02
 3.500000000E+00 5.000000000E-01 1.386472081E-02
 3.500000000E+00 5.500000000E-01 1.250760471E-02
 3.500000000E+00 6.000000000E-01 1.156851963E-02
 3.500000000E+00 6.500000000E-01 1.128589162E-02
 3.500000000E+00 7.000000000E-01 1.110017937E-02
 3.500000000E+00 7.500000000E-01 9.295130115E-03
 3.500000000E+00 8.000000000E-01 4.783351692E-03
 3.500000000E+00 8.500000000E-01 -3.972248689E-03
 3.500000000E+00 9.000000000E-01 -1.495765680E-02
 3.500000000E+00 9.500000000E-01 -2.639644238E-02
 3.450000000E+00 1.000000000E+00 -1.112790484E-02
 3.400000000E+00 1.000000000E+00 -3.033095833E-03
 3.350000000E+00 1.000000000E+00 -6.672883061E-04
 3.300000000E+00 1.000000000E+00 -5.221370234E-05
 3.250000000E+00 1.000000000E+00 -4.224551406E-04
 3.200000000E+00 1.000000000E+00 -8.320915680E-04
 3.150000000E+00 1.000000000E+00 -1.484404724E-03
 3.100000000E+00 1.000000000E+00 -2.220874866E-03
 3.050000000E+00 1.000000000E+00 -2.979461353E-03
 3.000000000E+00 1.000000000E+00 -3.792091651E-03
 2.950000000E+00 1.000000000E+00 -4.787389747E-03
 2.900000000E+00 1.000000000E+00 -5.654312853E-03
 2.850000000E+00 1.000000000E+00 -6.662198699E-03
 2.800000000E+00 1.000000000E+00 -7.702210249E-03
 2.750000000E+00 1.000000000E+00 -8.707633464E-03
 2.700000000E+00 1.000000000E+00 -9.741062251E-03
 2.650000000E+00 1.000000000E+00 -1.080653214E-02
 2.600000000E+00 1.000000000E+00 -1.206260201E-02
 2.550000000E+00 1.000000000E+00 -1.317972946E-02
 2.500000000E+00 1.000000000E+00 -1.461412098E-02
 2.450000000E+00 1.000000000E+00 -1.561493160E-02
 2.400000000E+00 1.000000000E+00 -1.727582214E-02
 2.350000000E+00 1.000000000E+00 -1.838279369E-02
 2.300000000E+00 1.000000000E+00 -2.015149508E-02
 2.250000000E+00 1.000000000E+00 -2.165281410E-02
 2.200000000E+00 1.000000000E+00 -2.329117275E-02
 2.150000000E+00 1.000000000E+00 -2.507770532E-02
 2.100000000E+00 1.000000000E+00 -2.702958249E-02
 2.050000000E+00 1.000000000E+00 -2.903431228E-02
 2.000000000E+00 1.000000000E+00 -3.144445663E-02
 1.950000000E+00 1.000000000E+00 -3.369631083E-02
 1.900000000E+00 1.000000000E+00 -3.632846581E-02
 1.850000000E+00 1.000000000E+00 -3.905302900E-02
 1.800000000E+00 1.000000000E+00 -4.199654792E-02
 1.750000000E+00 1.000000000E+00 -4.466771747E-02
 1.700000000E+00 1.000000000E+00 -4.924596975E-02
 1.650000000E+00 1.000000000E+00 -5.205037189E-02
 1.600000000E+00 1.000000000E+00 -5.715620662E-02
 1.550000000E+00 1.000000000E+00 -6.139124400E-02
 1.500000000E+00 1.000000000E+00 -6.642878474E-02
 1.450000000E+00 1.000000000E+00 -7.152143483E-02
 1.400000000E+00 1.000000000E+00 -7.731458740E-02
 1.350000000E+00 1.000000000E+00 -8.350474117E-02
 1.300000000E+00 1.000000000E+00 -9.028531511E-02
 1.250000000E+00 1.000000000E+00 -9.680995062E-02
 1.200000000E+00 1.000000000E+00 -1.043291769E-01
 1.150000000E+00 1.000000000E+00 -1.105805379E-01
 1.100000000E+00 1.000000000E+00 -1.183557897E-01
 1.050000000E+00 1.000000000E+00 -1.242705897E-01
 1.000000000E+00 1.000000000E+00 -1.314624157E-01
 9.500000000E-01 1.000000000E+00 -1.357843822E-01
 9.000000000E-01 1.000000000E+00 -1.398000339E-01
 8.500000000E-01 1.000000000E+00 -1.413544606E-01
 8.000000000E-01 1.000000000E+00 -1.419004002E-01
 7.500000000E-01 1.000000000E+00 -1.399663611E-01
 7.000000000E-01 1.000000000E+00 -1.363541443E-01
 6.500000000E-01 1.000000000E+00 -1.302108786E-01
 6.000000000E-01 1.000000000E+00 -1.218622199E-01
 5.500000000E-01 1.000000000E+00 -1.121690254E-01
 5.000000000E-01 1.000000000E+00 -1.010353349E-01
 4.500000000E-01 1.000000000E+00 -8.841292799E-02
 4.000000000E-01 1.000000000E+00 -7.488833532E-02
 3.500000000E-01 1.000000000E+00 -6.079261091E-02
 3.000000000E-01 1.000000000E+00 -4.684563344E-02
 2.500000000E-01 1.000000000E+00 -3.339017920E-02
 2.000000000E-01 1.000000000E+00 -2.032353670E-02
 1.500000000E-01 1.000000000E+00 -8.108323660E-03
 1.000000000E-01 1.000000000E+00 3.053206283E-03
 5.000000000E-02 1.000000000E+00 1.278855424E-02
 1.733724275E-12 1.000000000E+00 2.098641434E-02
 -5.000000000E-02 1.000000000E+00 2.752142454E-02
 -1.000000000E-01 1.000000000E+00 3.233831127E-02
 -1.500000000E-01 1.000000000E+00 3.555589639E-02
 -2.000000000E-01 1.000000000E+00 3.706263274E-02
 -2.500000000E-01 1.000000000E+00 3.699820465E-02
 -3.000000000E-01 1.000000000E+00 3.531419585E-02
 -3.500000000E-01 1.000000000E+00 3.200537767E-02
 -4.000000000E-01 1.000000000E+00 2.668025550E-02
 -4.500000000E-01 1.000000000E+00 1.799443819E-02
 1.975568748E+00 -9.572656417E-01 2.788151149E-02
 1.975966193E+00 9.611876713E-01 -3.093786162E-02
 9.051262217E-01 -4.705630877E-03 3.687009333E-01
 8.261276740E-01 -1.176744837E-02 2.894463403E-01
 9.859130813E-01 -3.765228983E-03 3.935515869E-01
 7.541997719E-01 -2.201531448E-02 1.862220493E-01
 6.842912385E-01 -3.108137356E-02 8.570462529E-02
 6.165675494E-01 -4.130552139E-02 -3.808620733E-02
 5.454141825E-01 -5.141171799E-02 -2.086509444E-01
 4.787821636E-01 -5.848990285E-02 -4.104774561E-01
 4.231116596E-01 -6.429961163E-02 -5.763577538E-01
 3.626016040E-01 -6.559618712E-02 -7.050246389E-01
 3.104208365E-01 -6.523002347E-02 -6.391611922E-01