TITLE     = "Visualization of the solution"
VARIABLES = "x"
"y"
"Pressure_Coefficient"
ZONE T="Zone"
 STRANDID=0, SOLUTIONTIME=0
 Nodes=12103, Elements=23624, ZONETYPE=FEQuadrilateral
 DATAPACKING=POINT
 DT=(DOUBLE DOUBLE DOUBLE )
 1.000164986E+00 5.107618636E-04 3.622976309E-01
 9.878599048E-01 3.055758076E-03 2.512581023E-01
 9.744470119E-01 5.707096308E-03 1.957512383E-01
 9.583522677E-01 9.044820443E-03 1.155074189E-01
 9.433614016E-01 1.203165110E-02 8.080932063E-02
 9.288727045E-01 1.499241590E-02 2.590021810E-02
 9.172452092E-01 1.730076224E-02 -1.321283757E-03
 9.055081010E-01 1.963375509E-02 -3.101383317E-02
 8.941797018E-01 2.192145959E-02 -9.002957781E-02
 8.821246624E-01 2.418757230E-02 -9.875541415E-02
 8.700453043E-01 2.647782117E-02 -1.362721587E-01
 8.576560020E-01 2.873292752E-02 -1.519947868E-01
 8.456491232E-01 3.093131259E-02 -1.929855959E-01
 8.346395493E-01 3.285852447E-02 -2.067511156E-01
 8.231388330E-01 3.484296426E-02 -2.251284453E-01
 8.109298944E-01 3.694359586E-02 -2.647747450E-01
 7.984445095E-01 3.900482506E-02 -2.882259670E-01
 7.858934402E-01 4.098086059E-02 -2.907029153E-01
 7.738580704E-01 4.289920628E-02 -3.287283523E-01
 7.620359659E-01 4.468704760E-02 -3.363496843E-01
 7.490450144E-01 4.664475098E-02 -3.658287898E-01
 7.355365753E-01 4.860691726E-02 -3.878718168E-01
 7.250288725E-01 5.011012033E-02 -4.186771253E-01
 7.138479352E-01 5.164790154E-02 -4.348203600E-01
 7.021468282E-01 5.319367722E-02 -4.443964315E-01
 6.888418794E-01 5.492925271E-02 -4.762467166E-01
 6.759111881E-01 5.653343350E-02 -4.989870531E-01
 6.657034755E-01 5.776248127E-02 -5.144497004E-01
 6.540375352E-01 5.909724161E-02 -5.314966439E-01
 6.425657272E-01 6.038073450E-02 -5.461547271E-01
 6.307604313E-01 6.158857420E-02 -4.712530610E-01
 6.193329692E-01 6.272795051E-02 -4.947548100E-01
 6.086715460E-01 6.371912360E-02 -8.895622777E-01
 5.964402556E-01 6.480436027E-02 -9.656875872E-01
 5.849856138E-01 6.575375795E-02 -9.184959523E-01
 5.716440678E-01 6.674896926E-02 -9.097959929E-01
 5.593558550E-01 6.758304685E-02 -8.975295050E-01
 5.471639037E-01 6.832618266E-02 -8.900505627E-01
 5.363261700E-01 6.893890351E-02 -8.724416638E-01
 5.245373249E-01 6.950165331E-02 -8.495975940E-01
 5.123534203E-01 7.003017515E-02 -8.539808819E-01
 5.014664531E-01 7.046351582E-02 -8.305190668E-01
 4.882577062E-01 7.085397840E-02 -7.970437977E-01
 4.749012887E-01 7.116102427E-02 -7.858976930E-01
 4.610951245E-01 7.139594853E-02 -7.743914448E-01
 4.478257895E-01 7.154113799E-02 -7.540152725E-01
 4.350478351E-01 7.158967108E-02 -7.302947060E-01
 4.222154617E-01 7.156696171E-02 -7.199700133E-01
 4.099153578E-01 7.148323953E-02 -7.037169105E-01
 3.972728550E-01 7.130926847E-02 -6.821859710E-01
 3.848575056E-01 7.107693702E-02 -6.806867832E-01
 3.730493486E-01 7.080390304E-02 -6.746049192E-01
 3.598249257E-01 7.040732354E-02 -6.498839640E-01
 3.469420969E-01 6.994014233E-02 -6.247266044E-01
 3.338907361E-01 6.939528883E-02 -6.160905867E-01
 3.228419423E-01 6.888530403E-02 -6.127881043E-01
 3.102433383E-01 6.822960079E-02 -5.951251383E-01
 2.967444360E-01 6.742984802E-02 -5.764633473E-01
 2.828789949E-01 6.653679907E-02 -5.702398855E-01
 2.705541253E-01 6.564111263E-02 -5.456487379E-01
 2.588732243E-01 6.473173201E-02 -5.354145050E-01
 2.464421690E-01 6.369777769E-02 -5.269239404E-01
 2.340876162E-01 6.255668402E-02 -4.984068776E-01
 2.217885703E-01 6.135537475E-02 -4.862267868E-01
 2.100750953E-01 6.013949215E-02 -4.765560253E-01
 1.982022077E-01 5.880810320E-02 -4.577234837E-01
 1.859474927E-01 5.734576657E-02 -4.423568427E-01
 1.740984917E-01 5.582132936E-02 -4.191995723E-01
 1.626262665E-01 5.426611379E-02 -4.048362665E-01
 1.507223696E-01 5.253937468E-02 -3.882714254E-01
 1.399828494E-01 5.087448657E-02 -3.651129017E-01
 1.281999648E-01 4.892333969E-02 -3.393628924E-01
 1.169408262E-01 4.693983868E-02 -3.177076492E-01
 1.062932760E-01 4.493672401E-02 -2.892781327E-01
 9.639796615E-02 4.295919836E-02 -2.694459573E-01
 8.536313474E-02 4.059003294E-02 -2.370853694E-01
 7.374656200E-02 3.789032251E-02 -1.923215669E-01
 6.395883113E-02 3.542970493E-02 -1.665436631E-01
 5.411891639E-02 3.273580596E-02 -1.174726502E-01
 4.552386701E-02 3.018002212E-02 -7.589813002E-02
 3.808256984E-02 2.775732987E-02 -2.724576693E-02
 3.147525713E-02 2.541145869E-02 1.866043067E-02
 2.582448535E-02 2.322680689E-02 6.400902562E-02
 2.169555798E-02 2.148278803E-02 1.151385511E-01
 1.775434241E-02 1.968490332E-02 1.636679074E-01
 1.466348860E-02 1.814345829E-02 2.227371583E-01
 1.178878080E-02 1.659014635E-02 2.695773575E-01
 9.693900123E-03 1.535388269E-02 3.222560470E-01
 7.867123932E-03 1.419149153E-02 3.657299275E-01
 6.155055948E-03 1.300103124E-02 4.463168183E-01
 3.920137882E-03 1.124082040E-02 5.540489415E-01
 1.996233827E-03 9.438377805E-03 6.664048220E-01
 4.296718980E-04 7.602345198E-03 8.573833698E-01
 -1.091821236E-03 5.019140895E-03 1.047854502E+00
 -1.706252107E-03 3.080717288E-03 1.152669869E+00
 -1.873744535E-03 1.539529883E-03 1.189131148E+00
 -1.735747093E-03 -1.281019795E-04 1.151405155E+00
 -1.275711227E-03 -1.783151878E-03 1.047186064E+00
 -3.026040795E-04 -3.776220139E-03 8.772733690E-01
 1.165271737E-03 -5.822112784E-03 6.894658284E-01
 3.165251808E-03 -7.925881073E-03 5.245887981E-01
 4.981966689E-03 -9.489949793E-03 3.823495902E-01
 7.067640778E-03 -1.104104053E-02 2.986772141E-01
 8.746444248E-03 -1.216074824E-02 2.165440373E-01
 1.086162589E-02 -1.344495732E-02 1.637665061E-01
 1.324193086E-02 -1.476235967E-02 1.034148416E-01
 1.655884832E-02 -1.642026566E-02 4.524914191E-02
 1.954550669E-02 -1.776812039E-02 -1.124011591E-02
 2.337238565E-02 -1.936166361E-02 -4.919080650E-02
 2.872908674E-02 -2.136540040E-02 -9.043261359E-02
 3.445911407E-02 -2.330207080E-02 -1.365098774E-01
 4.146756232E-02 -2.542763203E-02 -1.683402183E-01
 4.910502210E-02 -2.752853185E-02 -1.960141672E-01
 5.812098458E-02 -2.976941690E-02 -2.177654905E-01
 6.691201031E-02 -3.177169338E-02 -2.406934105E-01
 7.712120563E-02 -3.390254080E-02 -2.594486553E-01
 8.719308674E-02 -3.584762663E-02 -2.770144270E-01
 9.750009328E-02 -3.769479319E-02 -2.913859243E-01
 1.086495370E-01 -3.955634683E-02 -3.047943541E-01
 1.198700443E-01 -4.131205380E-02 -3.217534787E-01
 1.315594614E-01 -4.301957041E-02 -3.353710140E-01
 1.423536986E-01 -4.450671002E-02 -3.528316355E-01
 1.535850465E-01 -4.595876485E-02 -3.659902473E-01
 1.658381075E-01 -4.745510593E-02 -3.844309370E-01
 1.776321530E-01 -4.879771918E-02 -4.014193979E-01
 1.895617396E-01 -5.006899685E-02 -4.165630839E-01
 2.004370689E-01 -5.115914345E-02 -4.366533047E-01
 2.118337303E-01 -5.222137645E-02 -4.517507260E-01
 2.242263705E-01 -5.329549685E-02 -4.703492660E-01
 2.367180735E-01 -5.428398401E-02 -4.879818587E-01
 2.489760369E-01 -5.518030748E-02 -5.152613573E-01
 2.612184584E-01 -5.597491190E-02 -5.373242272E-01
 2.723595798E-01 -5.661490560E-02 -5.553851265E-01
 2.850371599E-01 -5.725014955E-02 -5.724419991E-01
 2.975099981E-01 -5.777692050E-02 -5.957973221E-01
 3.101821244E-01 -5.820214376E-02 -6.155960545E-01
 3.219640553E-01 -5.849815905E-02 -6.330636998E-01
 3.346474171E-01 -5.871856585E-02 -6.576487808E-01
 3.454495668E-01 -5.879073963E-02 -6.715568118E-01
 3.569163382E-01 -5.878390744E-02 -6.745661430E-01
 3.678295910E-01 -5.867196992E-02 -6.750401256E-01
 3.786939681E-01 -5.846877769E-02 -6.640262056E-01
 3.903122842E-01 -5.814763531E-02 -6.509042981E-01
 4.034354687E-01 -5.764683336E-02 -6.283081710E-01
 4.159338176E-01 -5.701624230E-02 -5.901857712E-01
 4.287676811E-01 -5.624229088E-02 -5.487813524E-01
 4.412881434E-01 -5.535973236E-02 -5.106793607E-01
 4.534702301E-01 -5.439401790E-02 -4.768321334E-01
 4.652710855E-01 -5.336586386E-02 -4.499842480E-01
 4.775846601E-01 -5.215251073E-02 -3.948509106E-01
 4.893340766E-01 -5.094066262E-02 -3.668922841E-01
 5.019430518E-01 -4.952150211E-02 -3.173867957E-01
 5.159530044E-01 -4.788522795E-02 -2.830461273E-01
 5.291851759E-01 -4.622973502E-02 -2.376479536E-01
 5.423924327E-01 -4.452553764E-02 -2.007436510E-01
 5.551127195E-01 -4.282921180E-02 -1.636047770E-01
 5.685989261E-01 -4.101125896E-02 -1.358280393E-01
 5.815967917E-01 -3.919940442E-02 -1.008726863E-01
 5.939376950E-01 -3.746598586E-02 -7.427262314E-02
 6.064546108E-01 -3.566853330E-02 -4.063430553E-02
 6.208018661E-01 -3.362624720E-02 -1.548542416E-02
 6.351211667E-01 -3.156606480E-02 1.464397917E-02
 6.499581337E-01 -2.945210598E-02 3.632856646E-02
 6.627903581E-01 -2.758763172E-02 6.803479404E-02
 6.763484478E-01 -2.567650937E-02 8.259343813E-02
 6.886195540E-01 -2.392235026E-02 1.086937912E-01
 7.009901404E-01 -2.218174376E-02 1.291825076E-01
 7.153881192E-01 -2.020390704E-02 1.456647530E-01
 7.284329534E-01 -1.841122098E-02 1.683839687E-01
 7.402130365E-01 -1.682152785E-02 1.863845124E-01
 7.536137104E-01 -1.505446900E-02 2.033633025E-01
 7.655375004E-01 -1.348276809E-02 2.293729518E-01
 7.791501880E-01 -1.181584876E-02 2.333335905E-01
 7.906978130E-01 -1.036506426E-02 2.615004333E-01
 8.033240438E-01 -8.863182738E-03 2.780465987E-01
 8.145400286E-01 -7.621075027E-03 2.838827721E-01
 8.255364895E-01 -6.369728595E-03 3.136030090E-01
 8.387681842E-01 -5.048170686E-03 3.158030246E-01
 8.508328795E-01 -3.850532463E-03 3.409195785E-01
 8.631456494E-01 -2.763939556E-03 3.513344158E-01
 8.745654821E-01 -1.846338855E-03 3.644530485E-01
 8.858747482E-01 -1.030781190E-03 3.770801719E-01
 8.989942670E-01 -2.470453328E-04 3.832199962E-01
 9.093497992E-01 2.609177609E-04 3.892546499E-01
 9.199656248E-01 6.810442428E-04 3.927381519E-01
 9.294679761E-01 9.696091875E-04 3.953058058E-01
 9.385615587E-01 1.158531057E-03 3.977943303E-01
 9.500700831E-01 1.293739886E-03 3.976874954E-01
 9.629844427E-01 1.303498517E-03 3.986042397E-01
 9.769299030E-01 1.156243379E-03 4.054613684E-01
 9.889669418E-01 8.837573696E-04 4.168489070E-01
 -5.000000000E-01 -1.000000000E+00 1.609129100E-02
 3.500000000E+00 -1.000000000E+00 7.938520420E-03
 3.500000000E+00 1.000000000E+00 -3.314814462E-02
 -5.000000000E-01 1.000000000E+00 1.517667871E-02
 9.940124452E-01 1.783259970E-03 3.433160440E-01
 9.811534584E-01 4.381427192E-03 2.263936834E-01
 9.663996398E-01 7.375958376E-03 1.491918591E-01
 9.508568347E-01 1.053823577E-02 1.006835362E-01
 9.361170530E-01 1.351203350E-02 4.998691278E-02
 9.230589569E-01 1.614658907E-02 1.215918405E-02
 9.113766551E-01 1.846725866E-02 -1.186329915E-02
 8.998439014E-01 2.077760734E-02 -6.938207190E-02
 8.881521821E-01 2.305451594E-02 -8.957485029E-02
 8.760849833E-01 2.533269674E-02 -1.212515557E-01
 8.638506532E-01 2.760537434E-02 -1.401646578E-01
 8.516525626E-01 2.983212005E-02 -1.759543717E-01
 8.401443362E-01 3.189491853E-02 -2.000052627E-01
 8.288891912E-01 3.385074437E-02 -2.128275843E-01
 8.170343637E-01 3.589328006E-02 -2.463500738E-01
 8.046872020E-01 3.797421046E-02 -2.814213487E-01
 7.921689749E-01 3.999284282E-02 -2.822350360E-01
 7.798757553E-01 4.194003344E-02 -3.156413272E-01
 7.679470181E-01 4.379312694E-02 -3.287607592E-01
 7.555404902E-01 4.566589929E-02 -3.530820568E-01
 7.422907948E-01 4.762583412E-02 -3.746194786E-01
 7.302827239E-01 4.935851879E-02 -4.048396566E-01
 7.194384038E-01 5.087901093E-02 -4.297291754E-01
 7.079973817E-01 5.242078938E-02 -4.354782174E-01
 6.954943538E-01 5.406146497E-02 -4.627098694E-01
 6.823765337E-01 5.573134311E-02 -4.855977044E-01
 6.708073318E-01 5.714795738E-02 -5.110360951E-01
 6.598705053E-01 5.842986144E-02 -5.166684385E-01
 6.483016312E-01 5.973898806E-02 -5.514845262E-01
 6.366630793E-01 6.098465435E-02 -5.126574986E-01
 6.250467002E-01 6.215826236E-02 -4.481374463E-01
 6.140022576E-01 6.322353706E-02 -6.777099355E-01
 6.025559008E-01 6.426174194E-02 -9.712182375E-01
 5.907129347E-01 6.527905911E-02 -9.386238541E-01
 5.783148408E-01 6.625136361E-02 -9.113966538E-01
 5.654999614E-01 6.716600806E-02 -9.051962136E-01
 5.532598794E-01 6.795461476E-02 -8.904612509E-01
 5.417450368E-01 6.863254309E-02 -8.876115935E-01
 5.304317474E-01 6.922027841E-02 -8.553909245E-01
 5.184453726E-01 6.976591423E-02 -8.505461176E-01
 5.069099367E-01 7.024684548E-02 -8.513267286E-01
 4.948620796E-01 7.065874711E-02 -8.092736879E-01
 4.815794975E-01 7.100750133E-02 -7.902672838E-01
 4.679982066E-01 7.127848640E-02 -7.809406682E-01
 4.544604570E-01 7.146854326E-02 -7.659286763E-01
 4.414368123E-01 7.156540453E-02 -7.400003412E-01
 4.286316484E-01 7.157831639E-02 -7.237312866E-01
 4.160654098E-01 7.152510062E-02 -7.151087274E-01
 4.035941064E-01 7.139625400E-02 -6.903469680E-01
 3.910651803E-01 7.119310275E-02 -6.789213877E-01
 3.789534271E-01 7.094042003E-02 -6.820414965E-01
 3.664371371E-01 7.060561329E-02 -6.628319853E-01
 3.533835113E-01 7.017373294E-02 -6.363303463E-01
 3.404164165E-01 6.966771558E-02 -6.169995327E-01
 3.283663392E-01 6.914029643E-02 -6.162680498E-01
 3.165426403E-01 6.855745241E-02 -6.072551344E-01
 3.034938872E-01 6.782972440E-02 -5.822613504E-01
 2.898117155E-01 6.698332354E-02 -5.761287021E-01
 2.767165601E-01 6.608895585E-02 -5.564464316E-01
 2.647136748E-01 6.518642232E-02 -5.383232814E-01
 2.526576966E-01 6.421475485E-02 -5.358465283E-01
 2.402648926E-01 6.312723085E-02 -5.107125553E-01
 2.279380932E-01 6.195602939E-02 -4.905211064E-01
 2.159318328E-01 6.074743345E-02 -4.836388098E-01
 2.041386515E-01 5.947379768E-02 -4.663861375E-01
 1.920748502E-01 5.807693489E-02 -4.518993713E-01
 1.800229922E-01 5.658354796E-02 -4.287958325E-01
 1.683623791E-01 5.504372157E-02 -4.134671146E-01
 1.566743180E-01 5.340274423E-02 -3.958975572E-01
 1.453526095E-01 5.170693062E-02 -3.785484269E-01
 1.340914071E-01 4.989891313E-02 -3.518383705E-01
 1.225703955E-01 4.793158919E-02 -3.280766804E-01
 1.116170511E-01 4.593828134E-02 -3.071731669E-01
 9.088055044E-02 4.177461565E-02 -2.552250802E-01
 7.955484837E-02 3.924017772E-02 -2.200535412E-01
 5.903887376E-02 3.408275545E-02 -1.486509301E-01
 7.201660797E-02 -3.283711709E-02 -2.542063650E-01
 8.215714619E-02 -3.487508371E-02 -2.688862599E-01
 9.234659001E-02 -3.677120991E-02 -2.848427171E-01
 1.030748151E-01 -3.862557001E-02 -2.977776018E-01
 1.142597906E-01 -4.043420032E-02 -3.133322272E-01
 1.257147528E-01 -4.216581210E-02 -3.291143226E-01
 1.369565800E-01 -4.376314022E-02 -3.442912201E-01
 1.479693726E-01 -4.523273744E-02 -3.597416735E-01
 1.597115770E-01 -4.670693539E-02 -3.735274307E-01
 1.717351303E-01 -4.812641256E-02 -3.945054756E-01
 1.835969463E-01 -4.943335801E-02 -4.086730112E-01
 1.949994043E-01 -5.061407015E-02 -4.266815076E-01
 2.061353996E-01 -5.169025995E-02 -4.443366538E-01
 2.180300504E-01 -5.275843665E-02 -4.598774089E-01
 2.304722220E-01 -5.378974043E-02 -4.799454427E-01
 2.428470552E-01 -5.473214574E-02 -4.995029857E-01
 2.550972477E-01 -5.557760969E-02 -5.280461391E-01
 2.667890191E-01 -5.629490875E-02 -5.471414344E-01
 2.786983699E-01 -5.693252757E-02 -5.622587210E-01
 2.912735790E-01 -5.751353502E-02 -5.841999039E-01
 3.038460612E-01 -5.798953213E-02 -6.058910029E-01
 3.160730898E-01 -5.835015140E-02 -6.253357924E-01
 3.283057362E-01 -5.860836245E-02 -6.421558061E-01
 3.400484920E-01 -5.875465274E-02 -6.707154994E-01
 3.511829525E-01 -5.878732353E-02 -6.708323210E-01
 3.623729646E-01 -5.872793868E-02 -6.775708431E-01
 3.732617795E-01 -5.857037380E-02 -6.697556315E-01
 3.845031261E-01 -5.830820650E-02 -6.571662333E-01
 3.968738765E-01 -5.789723434E-02 -6.395347436E-01
 4.096846431E-01 -5.733153783E-02 -6.129420220E-01
 4.223507494E-01 -5.662926659E-02 -5.677900549E-01
 4.350279123E-01 -5.580101162E-02 -5.306880185E-01
 4.473791867E-01 -5.487687513E-02 -4.931002413E-01
 4.593706578E-01 -5.387994088E-02 -4.631592318E-01
 4.714278728E-01 -5.275918730E-02 -4.261572024E-01
 4.834593683E-01 -5.154658668E-02 -3.768184854E-01
 4.956385642E-01 -5.023108236E-02 -3.454009401E-01
 5.089480281E-01 -4.870336503E-02 -2.967476350E-01
 5.225690901E-01 -4.705748148E-02 -2.634279761E-01
 5.357888043E-01 -4.537763633E-02 -2.176180204E-01
 5.487525761E-01 -4.367737472E-02 -1.831991968E-01
 5.618558228E-01 -4.192023538E-02 -1.479316076E-01
 5.750978589E-01 -4.010533169E-02 -1.198495737E-01
 5.877672434E-01 -3.833269514E-02 -8.652753854E-02
 6.001961529E-01 -3.656725958E-02 -5.895183536E-02
 6.136282384E-01 -3.464739025E-02 -2.688529728E-02
 6.279615164E-01 -3.259615600E-02 -1.004733845E-03
 6.425396502E-01 -3.050908539E-02 2.658490391E-02
 6.563742459E-01 -2.851986885E-02 5.022110858E-02
 6.695694029E-01 -2.663207054E-02 7.745631259E-02
 6.824840009E-01 -2.479942981E-02 9.377114950E-02
 6.948048472E-01 -2.305204701E-02 1.194257542E-01
 7.081891298E-01 -2.119282540E-02 1.377996520E-01
 7.219105363E-01 -1.930756401E-02 1.562878477E-01
 7.343229949E-01 -1.761637442E-02 1.779204370E-01
 7.469133735E-01 -1.593799843E-02 1.946088243E-01
 7.595756054E-01 -1.426861854E-02 2.149000854E-01
 7.723438442E-01 -1.264930842E-02 2.340627447E-01
 7.849240005E-01 -1.109045651E-02 2.445556388E-01
 7.970109284E-01 -9.614123497E-03 2.703775850E-01
 8.089320362E-01 -8.242128883E-03 2.837446189E-01
 8.200382590E-01 -6.995401811E-03 2.946251790E-01
 8.321523368E-01 -5.708949640E-03 3.167872600E-01
 8.448005319E-01 -4.449351574E-03 3.258851626E-01
 8.569892645E-01 -3.307236009E-03 3.470278258E-01
 8.688555658E-01 -2.305139205E-03 3.576720730E-01
 8.802201152E-01 -1.438560023E-03 3.704443504E-01
 8.924345076E-01 -6.389132614E-04 3.797945675E-01
 9.041720331E-01 6.936214049E-06 3.881731375E-01
 9.146577120E-01 4.709810019E-04 3.911904860E-01
 9.443158209E-01 1.226135471E-03 3.964626214E-01
 9.565272629E-01 1.298619201E-03 3.968590215E-01
 9.699571729E-01 1.229870948E-03 3.981055342E-01
 9.829484224E-01 1.020000374E-03 4.095682810E-01
 9.945659637E-01 6.972596166E-04 4.714024019E-01
 -5.000000000E-01 9.500000000E-01 2.485875997E-02
 -5.000000000E-01 9.000000000E-01 3.758375445E-02
 -5.000000000E-01 8.500000000E-01 4.718892778E-02
 -5.000000000E-01 8.000000000E-01 5.578219992E-02
 -5.000000000E-01 7.500000000E-01 6.400947162E-02
 -5.000000000E-01 7.000000000E-01 7.203470951E-02
 -5.000000000E-01 6.500000000E-01 8.035779116E-02
 -5.000000000E-01 6.000000000E-01 8.876321503E-02
 -5.000000000E-01 5.500000000E-01 9.751131328E-02
 -5.000000000E-01 5.000000000E-01 1.063514414E-01
 -5.000000000E-01 4.500000000E-01 1.152715835E-01
 -5.000000000E-01 4.000000000E-01 1.244533492E-01
 -5.000000000E-01 3.500000000E-01 1.332425230E-01
 -5.000000000E-01 3.000000000E-01 1.417853529E-01
 -5.000000000E-01 2.500000000E-01 1.496767031E-01
 -5.000000000E-01 2.000000000E-01 1.566485108E-01
 -5.000000000E-01 1.500000000E-01 1.625165359E-01
 -5.000000000E-01 1.000000000E-01 1.668716633E-01
 -5.000000000E-01 5.000000000E-02 1.695759758E-01
 -5.000000000E-01 2.752242878E-12 1.706061414E-01
 -5.000000000E-01 -5.000000000E-02 1.697337232E-01
 -5.000000000E-01 -1.000000000E-01 1.670324377E-01
 -5.000000000E-01 -1.500000000E-01 1.628141092E-01
 -5.000000000E-01 -2.000000000E-01 1.571316175E-01
 -5.000000000E-01 -2.500000000E-01 1.503656463E-01
 -5.000000000E-01 -3.000000000E-01 1.427831125E-01
 -5.000000000E-01 -3.500000000E-01 1.344984348E-01
 -5.000000000E-01 -4.000000000E-01 1.260091649E-01
 -5.000000000E-01 -4.500000000E-01 1.172525154E-01
 -5.000000000E-01 -5.000000000E-01 1.085343972E-01
 -5.000000000E-01 -5.500000000E-01 9.998467813E-02
 -5.000000000E-01 -6.000000000E-01 9.142945372E-02
 -5.000000000E-01 -6.500000000E-01 8.322948669E-02
 -5.000000000E-01 -7.000000000E-01 7.510754949E-02
 -5.000000000E-01 -7.500000000E-01 6.693044356E-02
 -5.000000000E-01 -8.000000000E-01 5.857525355E-02
 -5.000000000E-01 -8.500000000E-01 4.983467387E-02
 -5.000000000E-01 -9.000000000E-01 3.951507777E-02
 -5.000000000E-01 -9.500000000E-01 2.627749604E-02
 -4.500000000E-01 -1.000000000E+00 2.175703561E-02
 -4.000000000E-01 -1.000000000E+00 3.231884633E-02
 -3.500000000E-01 -1.000000000E+00 3.905954679E-02
 -3.000000000E-01 -1.000000000E+00 4.329925848E-02
 -2.500000000E-01 -1.000000000E+00 4.605744742E-02
 -2.000000000E-01 -1.000000000E+00 4.718393235E-02
 -1.500000000E-01 -1.000000000E+00 4.679349260E-02
 -1.000000000E-01 -1.000000000E+00 4.486530753E-02
 -5.000000000E-02 -1.000000000E+00 4.146718732E-02
 -9.424683256E-13 -1.000000000E+00 3.661740886E-02
 5.000000000E-02 -1.000000000E+00 3.049873609E-02
 1.000000000E-01 -1.000000000E+00 2.333336292E-02
 1.500000000E-01 -1.000000000E+00 1.538062258E-02
 2.000000000E-01 -1.000000000E+00 7.015413378E-03
 2.500000000E-01 -1.000000000E+00 -1.382324799E-03
 3.000000000E-01 -1.000000000E+00 -9.226312438E-03
 3.500000000E-01 -1.000000000E+00 -1.625631783E-02
 4.000000000E-01 -1.000000000E+00 -2.209587010E-02
 4.500000000E-01 -1.000000000E+00 -2.637056702E-02
 5.000000000E-01 -1.000000000E+00 -2.889830046E-02
 5.500000000E-01 -1.000000000E+00 -2.958675257E-02
 6.000000000E-01 -1.000000000E+00 -2.847467211E-02
 6.500000000E-01 -1.000000000E+00 -2.569983704E-02
 7.000000000E-01 -1.000000000E+00 -2.149799981E-02
 7.500000000E-01 -1.000000000E+00 -1.613337277E-02
 8.000000000E-01 -1.000000000E+00 -9.993588087E-03
 8.500000000E-01 -1.000000000E+00 -3.394487090E-03
 9.000000000E-01 -1.000000000E+00 3.290419705E-03
 9.500000000E-01 -1.000000000E+00 9.832583656E-03
 1.000000000E+00 -1.000000000E+00 1.590291971E-02
 1.050000000E+00 -1.000000000E+00 2.152359615E-02
 1.100000000E+00 -1.000000000E+00 2.655044681E-02
 1.150000000E+00 -1.000000000E+00 3.091967235E-02
 1.200000000E+00 -1.000000000E+00 3.446557068E-02
 1.250000000E+00 -1.000000000E+00 3.733867271E-02
 1.300000000E+00 -1.000000000E+00 3.956297030E-02
 1.350000000E+00 -1.000000000E+00 4.117092016E-02
 1.400000000E+00 -1.000000000E+00 4.225447321E-02
 1.450000000E+00 -1.000000000E+00 4.285009649E-02
 1.500000000E+00 -1.000000000E+00 4.307730121E-02
 1.550000000E+00 -1.000000000E+00 4.292048713E-02
 1.600000000E+00 -1.000000000E+00 4.254282154E-02
 1.650000000E+00 -1.000000000E+00 4.190856317E-02
 1.700000000E+00 -1.000000000E+00 4.112562704E-02
 1.750000000E+00 -1.000000000E+00 4.018237106E-02
 1.800000000E+00 -1.000000000E+00 3.917238768E-02
 1.850000000E+00 -1.000000000E+00 3.805502854E-02
 1.900000000E+00 -1.000000000E+00 3.691441349E-02
 1.950000000E+00 -1.000000000E+00 3.578095331E-02
 2.000000000E+00 -1.000000000E+00 3.453952508E-02
 2.050000000E+00 -1.000000000E+00 3.341023673E-02
 2.100000000E+00 -1.000000000E+00 3.220141505E-02
 2.150000000E+00 -1.000000000E+00 3.105839575E-02
 2.200000000E+00 -1.000000000E+00 3.000659981E-02
 2.250000000E+00 -1.000000000E+00 2.896312649E-02
 2.300000000E+00 -1.000000000E+00 2.791176122E-02
 2.350000000E+00 -1.000000000E+00 2.694013099E-02
 2.400000000E+00 -1.000000000E+00 2.601508009E-02
 2.450000000E+00 -1.000000000E+00 2.513082469E-02
 2.500000000E+00 -1.000000000E+00 2.432974145E-02
 2.550000000E+00 -1.000000000E+00 2.355701280E-02
 2.600000000E+00 -1.000000000E+00 2.283705217E-02
 2.650000000E+00 -1.000000000E+00 2.216337338E-02
 2.700000000E+00 -1.000000000E+00 2.156651747E-02
 2.750000000E+00 -1.000000000E+00 2.100405539E-02
 2.800000000E+00 -1.000000000E+00 2.049204977E-02
 2.850000000E+00 -1.000000000E+00 2.003528828E-02
 2.900000000E+00 -1.000000000E+00 1.960376833E-02
 2.950000000E+00 -1.000000000E+00 1.923172123E-02
 3.000000000E+00 -1.000000000E+00 1.887801539E-02
 3.050000000E+00 -1.000000000E+00 1.854876794E-02
 3.100000000E+00 -1.000000000E+00 1.822927146E-02
 3.150000000E+00 -1.000000000E+00 1.791549744E-02
 3.200000000E+00 -1.000000000E+00 1.754767985E-02
 3.250000000E+00 -1.000000000E+00 1.714419661E-02
 3.300000000E+00 -1.000000000E+00 1.657797648E-02
 3.350000000E+00 -1.000000000E+00 1.580688913E-02
 3.400000000E+00 -1.000000000E+00 1.443641860E-02
 3.450000000E+00 -1.000000000E+00 1.168258476E-02
 3.500000000E+00 -9.500000000E-01 6.076948883E-03
 3.500000000E+00 -9.000000000E-01 7.526442306E-03
 3.500000000E+00 -8.500000000E-01 8.853581283E-03
 3.500000000E+00 -8.000000000E-01 1.031825269E-02
 3.500000000E+00 -7.500000000E-01 1.173499201E-02
 3.500000000E+00 -7.000000000E-01 1.305736358E-02
 3.500000000E+00 -6.500000000E-01 1.447153630E-02
 3.500000000E+00 -6.000000000E-01 1.590595791E-02
 3.500000000E+00 -5.500000000E-01 1.736925291E-02
 3.500000000E+00 -5.000000000E-01 1.885444416E-02
 3.500000000E+00 -4.500000000E-01 2.041130959E-02
 3.500000000E+00 -4.000000000E-01 2.195206956E-02
 3.500000000E+00 -3.500000000E-01 2.352382489E-02
 3.500000000E+00 -3.000000000E-01 2.492259055E-02
 3.500000000E+00 -2.500000000E-01 2.597248930E-02
 3.500000000E+00 -2.000000000E-01 2.634421430E-02
 3.500000000E+00 -1.500000000E-01 2.605679814E-02
 3.500000000E+00 -1.000000000E-01 2.539421442E-02
 3.500000000E+00 -5.000000000E-02 2.494115012E-02
 3.500000000E+00 -2.752242878E-12 2.507724974E-02
 3.500000000E+00 5.000000000E-02 2.566591349E-02
 3.500000000E+00 1.000000000E-01 2.602207911E-02
 3.500000000E+00 1.500000000E-01 2.567333792E-02
 3.500000000E+00 2.000000000E-01 2.465577292E-02
 3.500000000E+00 2.500000000E-01 2.318354090E-02
 3.500000000E+00 3.000000000E-01 2.163280968E-02
 3.500000000E+00 3.500000000E-01 2.006325182E-02
 3.500000000E+00 4.000000000E-01 1.840205460E-02
 3.500000000E+00 4.500000000E-01 1.677317057E-02
 3.500000000E+00 5.000000000E-01 1.515680985E-02
 3.500000000E+00 5.500000000E-01 1.383883176E-02
 3.500000000E+00 6.000000000E-01 1.315908020E-02
 3.500000000E+00 6.500000000E-01 1.293205818E-02
 3.500000000E+00 7.000000000E-01 1.215421309E-02
 3.500000000E+00 7.500000000E-01 8.998850045E-03
 3.500000000E+00 8.000000000E-01 1.702760311E-03
 3.500000000E+00 8.500000000E-01 -1.002179745E-02
 3.500000000E+00 9.000000000E-01 -2.416733172E-02
 3.500000000E+00 9.500000000E-01 -3.789954758E-02
 3.450000000E+00 1.000000000E+00 -1.760326993E-02
 3.400000000E+00 1.000000000E+00 -7.128858723E-03
 3.350000000E+00 1.000000000E+00 -3.366770917E-03
 3.300000000E+00 1.000000000E+00 -2.348016642E-03
 3.250000000E+00 1.000000000E+00 -1.981970693E-03
 3.200000000E+00 1.000000000E+00 -2.815202738E-03
 3.150000000E+00 1.000000000E+00 -2.995716085E-03
 3.100000000E+00 1.000000000E+00 -3.992501579E-03
 3.050000000E+00 1.000000000E+00 -4.834349210E-03
 3.000000000E+00 1.000000000E+00 -5.818159049E-03
 2.950000000E+00 1.000000000E+00 -6.761760157E-03
 2.900000000E+00 1.000000000E+00 -8.189874881E-03
 2.850000000E+00 1.000000000E+00 -9.111759180E-03
 2.800000000E+00 1.000000000E+00 -1.035264025E-02
 2.750000000E+00 1.000000000E+00 -1.152938896E-02
 2.700000000E+00 1.000000000E+00 -1.259243078E-02
 2.650000000E+00 1.000000000E+00 -1.410372709E-02
 2.600000000E+00 1.000000000E+00 -1.555207289E-02
 2.550000000E+00 1.000000000E+00 -1.688058695E-02
 2.500000000E+00 1.000000000E+00 -1.852397410E-02
 2.450000000E+00 1.000000000E+00 -2.003836602E-02
 2.400000000E+00 1.000000000E+00 -2.174068035E-02
 2.350000000E+00 1.000000000E+00 -2.313517600E-02
 2.300000000E+00 1.000000000E+00 -2.545018956E-02
 2.250000000E+00 1.000000000E+00 -2.648670514E-02
 2.200000000E+00 1.000000000E+00 -2.914722263E-02
 2.150000000E+00 1.000000000E+00 -3.133314290E-02
 2.100000000E+00 1.000000000E+00 -3.348761759E-02
 2.050000000E+00 1.000000000E+00 -3.608844764E-02
 2.000000000E+00 1.000000000E+00 -3.869600454E-02
 1.950000000E+00 1.000000000E+00 -4.155608089E-02
 1.900000000E+00 1.000000000E+00 -4.482072539E-02
 1.850000000E+00 1.000000000E+00 -4.805995562E-02
 1.800000000E+00 1.000000000E+00 -5.149395675E-02
 1.750000000E+00 1.000000000E+00 -5.591599861E-02
 1.700000000E+00 1.000000000E+00 -5.949114992E-02
 1.650000000E+00 1.000000000E+00 -6.451890737E-02
 1.600000000E+00 1.000000000E+00 -6.957022371E-02
 1.550000000E+00 1.000000000E+00 -7.512442382E-02
 1.500000000E+00 1.000000000E+00 -8.102684631E-02
 1.450000000E+00 1.000000000E+00 -8.748849611E-02
 1.400000000E+00 1.000000000E+00 -9.459687264E-02
 1.350000000E+00 1.000000000E+00 -1.019797533E-01
 1.300000000E+00 1.000000000E+00 -1.101338123E-01
 1.250000000E+00 1.000000000E+00 -1.184573828E-01
 1.200000000E+00 1.000000000E+00 -1.269216026E-01
 1.150000000E+00 1.000000000E+00 -1.355869667E-01
 1.100000000E+00 1.000000000E+00 -1.447391927E-01
 1.050000000E+00 1.000000000E+00 -1.526335750E-01
 1.000000000E+00 1.000000000E+00 -1.605379307E-01
 9.500000000E-01 1.000000000E+00 -1.665142435E-01
 9.000000000E-01 1.000000000E+00 -1.711047290E-01
 8.500000000E-01 1.000000000E+00 -1.741353681E-01
 8.000000000E-01 1.000000000E+00 -1.744902088E-01
 7.500000000E-01 1.000000000E+00 -1.715624253E-01
 7.000000000E-01 1.000000000E+00 -1.678369194E-01
 6.500000000E-01 1.000000000E+00 -1.585531694E-01
 6.000000000E-01 1.000000000E+00 -1.492798301E-01
 5.500000000E-01 1.000000000E+00 -1.362241857E-01
 5.000000000E-01 1.000000000E+00 -1.214804729E-01
 4.500000000E-01 1.000000000E+00 -1.056729967E-01
 4.000000000E-01 1.000000000E+00 -8.863106164E-02
 3.500000000E-01 1.000000000E+00 -7.204690999E-02
 3.000000000E-01 1.000000000E+00 -5.526472683E-02
 2.500000000E-01 1.000000000E+00 -3.884618116E-02
 2.000000000E-01 1.000000000E+00 -2.348267104E-02
 1.500000000E-01 1.000000000E+00 -9.290481358E-03
 1.000000000E-01 1.000000000E+00 3.454383746E-03
 5.000000000E-02 1.000000000E+00 1.470553385E-02
 1.733724275E-12 1.000000000E+00 2.406003181E-02
 -5.000000000E-02 1.000000000E+00 3.147653358E-02
 -1.000000000E-01 1.000000000E+00 3.693704732E-02
 -1.500000000E-01 1.000000000E+00 4.043537956E-02
 -2.000000000E-01 1.000000000E+00 4.212492452E-02
 -2.500000000E-01 1.000000000E+00 4.198230511E-02
 -3.000000000E-01 1.000000000E+00 4.011757087E-02
 -3.500000000E-01 1.000000000E+00 3.644143895E-02
 -4.000000000E-01 1.000000000E+00 3.037851804E-02
 -4.500000000E-01 1.000000000E+00 2.044985013E-02
 8.898256651E-01 -5.647942943E-03 3.718050305E-01
 8.119817669E-01 -1.278154704E-02 2.808220535E-01
 9.803816340E-01 -3.893172185E-03 3.960262034E-01
 7.444387560E-01 -2.096000477E-02 1.892979423E-01
 6.737472929E-01 -3.174721155E-02 7.941273576E-02
 6.041037017E-01 -4.153787997E-02 -4.896438552E-02
 5.397232543E-01 -5.072873005E-02 -2.046862754E-01
 4.747536279E-01 -5.830929394E-02 -4.021305807E-01
 4.194729449E-01 -6.230586797E-02 -5.677667428E-01
 3.596931218E-01 -6.348150016E-02 -6.636322949E-01
 3.066641422E-01 -6.391534059E-02 -5.986417800E-01