TITLE     = "Visualization of the solution"
VARIABLES = "x"
"y"
"Pressure_Coefficient"
ZONE T="Zone"
 STRANDID=0, SOLUTIONTIME=0
 Nodes=11784, Elements=22989, ZONETYPE=FEQuadrilateral
 DATAPACKING=POINT
 DT=(DOUBLE DOUBLE DOUBLE )
 9.997377992E-01 5.157747655E-04 3.224249109E-01
 9.849011898E-01 3.337676171E-03 3.272101800E-01
 9.723618627E-01 5.812732503E-03 2.231337076E-01
 9.565712214E-01 8.757378906E-03 1.687472703E-01
 9.426719546E-01 1.140264701E-02 1.191486971E-01
 9.306898117E-01 1.372176409E-02 6.161175701E-02
 9.194584489E-01 1.582149789E-02 2.721761235E-02
 9.075698853E-01 1.802165806E-02 -1.882948257E-02
 8.957715631E-01 2.008117177E-02 -3.027723794E-02
 8.839528561E-01 2.220029198E-02 -8.515512279E-02
 8.718183041E-01 2.421352826E-02 -9.436776136E-02
 8.598999977E-01 2.619367838E-02 -1.255287457E-01
 8.478285670E-01 2.813711949E-02 -1.531371424E-01
 8.362566233E-01 2.992917411E-02 -1.701454835E-01
 8.245182037E-01 3.169273958E-02 -1.838506918E-01
 8.120638132E-01 3.352641314E-02 -2.010233785E-01
 7.990126014E-01 3.539085761E-02 -2.116939599E-01
 7.872609496E-01 3.708528355E-02 -2.456499527E-01
 7.746916413E-01 3.880460933E-02 -2.557174763E-01
 7.627383471E-01 4.042445868E-02 -2.773125010E-01
 7.496190071E-01 4.213852063E-02 -2.904697603E-01
 7.360358238E-01 4.388829321E-02 -3.135603154E-01
 7.250218987E-01 4.526716843E-02 -3.311153186E-01
 7.137641311E-01 4.666045681E-02 -3.574667964E-01
 7.019163370E-01 4.805197567E-02 -3.639714226E-01
 6.888037920E-01 4.958713427E-02 -3.996774691E-01
 6.760715842E-01 5.100813136E-02 -4.230524128E-01
 6.651980281E-01 5.215083063E-02 -4.245010036E-01
 6.538346410E-01 5.334571376E-02 -4.603413009E-01
 6.430216432E-01 5.443418398E-02 -4.844839299E-01
 6.309720278E-01 5.555894971E-02 -4.879054565E-01
 6.196482182E-01 5.659371987E-02 -5.190220414E-01
 6.092455387E-01 5.750208348E-02 -5.419494363E-01
 5.971757770E-01 5.847821385E-02 -5.592631556E-01
 5.854375958E-01 5.938057229E-02 -5.909292266E-01
 5.717371702E-01 6.034367904E-02 -6.062253710E-01
 5.586481690E-01 6.115241349E-02 -6.143066927E-01
 5.458093286E-01 6.190673634E-02 -6.517567449E-01
 5.343859792E-01 6.249652803E-02 -6.489287303E-01
 5.220906138E-01 6.304293126E-02 -6.497289205E-01
 5.092628002E-01 6.356132776E-02 -6.907061423E-01
 4.983205795E-01 6.394276768E-02 -7.056083879E-01
 4.850621521E-01 6.432316452E-02 -6.918674905E-01
 4.719148874E-01 6.459017098E-02 -6.692855354E-01
 4.577226937E-01 6.481371820E-02 -6.726251346E-01
 4.437648356E-01 6.493836641E-02 -6.651760152E-01
 4.305365682E-01 6.496737152E-02 -6.584930587E-01
 4.174790382E-01 6.493870169E-02 -6.485979045E-01
 4.049432874E-01 6.480389088E-02 -6.226125108E-01
 3.921012580E-01 6.462873518E-02 -6.254618057E-01
 3.800550997E-01 6.438700110E-02 -6.104463172E-01
 3.685909510E-01 6.409163773E-02 -5.956528207E-01
 3.552435935E-01 6.369460374E-02 -5.888572676E-01
 3.428139389E-01 6.323344260E-02 -5.660210081E-01
 3.304013610E-01 6.272480637E-02 -5.615282102E-01
 3.202421963E-01 6.225720793E-02 -5.531605441E-01
 3.080480695E-01 6.164081767E-02 -5.448177979E-01
 2.953405380E-01 6.091168523E-02 -5.250784667E-01
 2.817385495E-01 6.005711108E-02 -5.118926810E-01
 2.692028880E-01 5.919283256E-02 -4.988084424E-01
 2.573515177E-01 5.831434950E-02 -4.867953416E-01
 2.448474616E-01 5.730751157E-02 -4.690898307E-01
 2.321531028E-01 5.621566996E-02 -4.583896660E-01
 2.198482305E-01 5.508252233E-02 -4.470954097E-01
 2.080263793E-01 5.391029641E-02 -4.308744740E-01
 1.963835508E-01 5.269156024E-02 -4.193433873E-01
 1.840669811E-01 5.130549520E-02 -4.017549192E-01
 1.723645031E-01 4.991142824E-02 -3.864771194E-01
 1.606829017E-01 4.843204468E-02 -3.685197554E-01
 1.490229368E-01 4.687859118E-02 -3.593875202E-01
 1.381305754E-01 4.533259198E-02 -3.437348130E-01
 1.269709468E-01 4.364117980E-02 -3.211673050E-01
 1.158284992E-01 4.186278582E-02 -3.091266007E-01
 1.052594930E-01 4.006643593E-02 -2.866939536E-01
 9.548481554E-02 3.830451518E-02 -2.734318666E-01
 8.479057252E-02 3.624392673E-02 -2.514778479E-01
 7.341733575E-02 3.388423100E-02 -2.264342105E-01
 6.362489611E-02 3.169224784E-02 -2.019271467E-01
 5.405220389E-02 2.936555818E-02 -1.721015440E-01
 4.501558095E-02 2.696598135E-02 -1.449741491E-01
 3.725953773E-02 2.471584454E-02 -1.122009422E-01
 3.042214550E-02 2.253073826E-02 -7.919194938E-02
 2.465509064E-02 2.049676329E-02 -4.644855122E-02
 2.042122930E-02 1.885267347E-02 -3.157952212E-03
 1.637673192E-02 1.713495702E-02 3.247077536E-02
 1.340789534E-02 1.574521139E-02 7.391919194E-02
 1.082728803E-02 1.442643069E-02 1.090075763E-01
 8.885633200E-03 1.333763450E-02 1.562390903E-01
 7.132230792E-03 1.225800253E-02 1.926576724E-01
 5.531087518E-03 1.118384302E-02 2.731709071E-01
 3.466230817E-03 9.591087699E-03 3.745687923E-01
 1.758798026E-03 8.017997257E-03 4.988235438E-01
 3.264466068E-04 6.367098074E-03 6.899133938E-01
 -1.048433362E-03 4.108360037E-03 9.066179253E-01
 -1.679702429E-03 2.340327483E-03 1.060609223E+00
 -1.920366543E-03 9.067220963E-04 1.161548948E+00
 -1.898371032E-03 -8.487288142E-04 1.201793568E+00
 -1.460171421E-03 -2.908911789E-03 1.152620155E+00
 -4.602160479E-04 -5.241349805E-03 1.030542682E+00
 1.144236187E-03 -7.718610112E-03 8.603381680E-01
 3.364153206E-03 -1.027583238E-02 6.951949197E-01
 5.381650291E-03 -1.218475308E-02 5.553737719E-01
 7.724905852E-03 -1.410790067E-02 4.685206144E-01
 9.474811144E-03 -1.539353281E-02 3.761948797E-01
 1.162602007E-02 -1.685132273E-02 3.125417772E-01
 1.414661389E-02 -1.841952652E-02 2.397810038E-01
 1.746463403E-02 -2.029324882E-02 1.712488931E-01
 2.072680928E-02 -2.197378874E-02 1.011370326E-01
 2.483793348E-02 -2.391526662E-02 4.246454929E-02
 3.027862124E-02 -2.624699846E-02 -1.969975144E-02
 3.603604436E-02 -2.846700326E-02 -8.179798668E-02
 4.306599870E-02 -3.092952445E-02 -1.303037329E-01
 5.058453232E-02 -3.331653401E-02 -1.800634688E-01
 5.931105837E-02 -3.582580015E-02 -2.183317821E-01
 6.805250794E-02 -3.812588006E-02 -2.555603401E-01
 7.851051539E-02 -4.063640535E-02 -2.882070580E-01
 8.813987672E-02 -4.275356978E-02 -3.064962358E-01
 9.872306883E-02 -4.492252693E-02 -3.402119959E-01
 1.097873896E-01 -4.701412097E-02 -3.603719819E-01
 1.214077994E-01 -4.905799031E-02 -3.854516191E-01
 1.329633445E-01 -5.093190819E-02 -4.012368476E-01
 1.434496939E-01 -5.254117772E-02 -4.293424435E-01
 1.547074467E-01 -5.414469540E-02 -4.464534569E-01
 1.664061695E-01 -5.569994077E-02 -4.650422396E-01
 1.780674160E-01 -5.714861676E-02 -4.877333336E-01
 1.897126585E-01 -5.849077553E-02 -5.066060199E-01
 2.001724690E-01 -5.961997062E-02 -5.320103033E-01
 2.113576978E-01 -6.073579192E-02 -5.516820032E-01
 2.234620154E-01 -6.184826791E-02 -5.734924548E-01
 2.355329394E-01 -6.285157800E-02 -5.929971096E-01
 2.474167496E-01 -6.375105679E-02 -6.162325088E-01
 2.596167028E-01 -6.457097083E-02 -6.395715401E-01
 2.706565261E-01 -6.523804367E-02 -6.821038741E-01
 2.829503417E-01 -6.585565954E-02 -7.113632343E-01
 2.949352562E-01 -6.634963304E-02 -7.260048981E-01
 3.077546358E-01 -6.678038090E-02 -7.563458735E-01
 3.191804290E-01 -6.703019887E-02 -7.766693584E-01
 3.317205012E-01 -6.722436845E-02 -7.955056494E-01
 3.420704901E-01 -6.727038324E-02 -8.325013318E-01
 3.535102606E-01 -6.721664220E-02 -8.553208302E-01
 3.644655943E-01 -6.706569344E-02 -8.796745409E-01
 3.751689494E-01 -6.681978703E-02 -9.048428874E-01
 3.868319988E-01 -6.643855572E-02 -9.267880995E-01
 3.994393647E-01 -6.588027626E-02 -9.523834855E-01
 4.116332531E-01 -6.522467732E-02 -9.851876354E-01
 4.244160950E-01 -6.442532688E-02 -7.191681297E-01
 4.365399778E-01 -6.348790228E-02 -4.536077730E-01
 4.493797123E-01 -6.240487471E-02 -5.111968710E-01
 4.617676437E-01 -6.125448272E-02 -5.172945899E-01
 4.741104543E-01 -5.997039750E-02 -4.641336791E-01
 4.860439003E-01 -5.864556506E-02 -4.238107987E-01
 4.984552562E-01 -5.719716102E-02 -3.922214165E-01
 5.119706392E-01 -5.551700294E-02 -3.507193808E-01
 5.252589583E-01 -5.377517268E-02 -3.077208159E-01
 5.379354954E-01 -5.205318332E-02 -2.706166280E-01
 5.514306426E-01 -5.015707016E-02 -2.303365097E-01
 5.644809008E-01 -4.828936607E-02 -1.982755542E-01
 5.778421164E-01 -4.634094238E-02 -1.681322661E-01
 5.905611515E-01 -4.444450140E-02 -1.360231360E-01
 6.034688950E-01 -4.250529781E-02 -1.095239758E-01
 6.168385744E-01 -4.046829417E-02 -8.043059418E-02
 6.308081746E-01 -3.830690309E-02 -4.475082320E-02
 6.448558569E-01 -3.617552295E-02 -2.740890791E-02
 6.580060720E-01 -3.414343670E-02 2.167128059E-03
 6.717966199E-01 -3.203365579E-02 2.341985434E-02
 6.845138669E-01 -3.009084240E-02 4.446918576E-02
 6.968417764E-01 -2.820138820E-02 6.907170765E-02
 7.120128274E-01 -2.591464855E-02 8.978919818E-02
 7.253305912E-01 -2.393108979E-02 1.074603101E-01
 7.365888357E-01 -2.223356441E-02 1.347833170E-01
 7.498934865E-01 -2.031816728E-02 1.435000235E-01
 7.629508972E-01 -1.844451763E-02 1.600838033E-01
 7.759737968E-01 -1.655217446E-02 1.876572871E-01
 7.882763147E-01 -1.481112000E-02 2.094185747E-01
 8.011019230E-01 -1.306706853E-02 2.250037604E-01
 8.123413324E-01 -1.157702599E-02 2.422527323E-01
 8.237880468E-01 -1.012000628E-02 2.548257280E-01
 8.360266685E-01 -8.592884988E-03 2.749803007E-01
 8.484494686E-01 -7.121565286E-03 2.917666834E-01
 8.607755303E-01 -5.755192600E-03 3.045557582E-01
 8.715914488E-01 -4.590372089E-03 3.274790247E-01
 8.831663132E-01 -3.480757354E-03 3.365315173E-01
 8.959908485E-01 -2.370442497E-03 3.490266446E-01
 9.061871171E-01 -1.589981024E-03 3.598905869E-01
 9.169239402E-01 -8.934171638E-04 3.631710230E-01
 9.269414544E-01 -3.396191460E-04 3.669165696E-01
 9.365273714E-01 8.970010822E-05 3.720113353E-01
 9.490743279E-01 4.931458388E-04 3.676894678E-01
 9.630350471E-01 7.559889345E-04 3.628799571E-01
 9.774590731E-01 8.284691139E-04 3.561630888E-01
 9.899761081E-01 7.188521558E-04 3.758020448E-01
 -5.000000000E-01 -1.000000000E+00 1.546899675E-02
 3.500000000E+00 -1.000000000E+00 3.470597829E-03
 3.500000000E+00 1.000000000E+00 -1.861375690E-02
 -5.000000000E-01 1.000000000E+00 1.516569658E-02
 9.923194945E-01 1.926725468E-03 4.188320431E-01
 9.786315262E-01 4.575204337E-03 2.635180930E-01
 9.644665420E-01 7.285055704E-03 1.939972222E-01
 9.496215880E-01 1.008001296E-02 1.441696304E-01
 9.366808832E-01 1.256220555E-02 8.626641937E-02
 9.250741303E-01 1.477163099E-02 4.559498107E-02
 9.135141671E-01 1.692157798E-02 -7.971203016E-04
 9.016707242E-01 1.905141491E-02 -1.767721346E-02
 8.898622096E-01 2.114073187E-02 -6.477648232E-02
 8.778855801E-01 2.320691012E-02 -8.595388915E-02
 8.658591509E-01 2.520360332E-02 -1.104842739E-01
 8.538642824E-01 2.716539893E-02 -1.403762315E-01
 8.420425951E-01 2.903314680E-02 -1.621204236E-01
 8.303874135E-01 3.081095684E-02 -1.759902244E-01
 8.182910085E-01 3.260957636E-02 -1.943372647E-01
 8.055382073E-01 3.445863537E-02 -2.018092079E-01
 7.931367755E-01 3.623807058E-02 -2.333913762E-01
 7.809762955E-01 3.794494644E-02 -2.481719931E-01
 7.687149942E-01 3.961453401E-02 -2.686185723E-01
 7.561786771E-01 4.128148966E-02 -2.822321636E-01
 7.428274155E-01 4.301340692E-02 -3.028311474E-01
 7.305288613E-01 4.457773082E-02 -3.199677417E-01
 7.193930149E-01 4.596381262E-02 -3.489212171E-01
 7.078402340E-01 4.735621624E-02 -3.567304765E-01
 6.953600645E-01 4.881955497E-02 -3.819075824E-01
 6.824376881E-01 5.029763281E-02 -4.155590574E-01
 6.706348062E-01 5.157948099E-02 -4.189749796E-01
 6.595163345E-01 5.274827220E-02 -4.415212182E-01
 6.484281421E-01 5.388994887E-02 -4.786077941E-01
 6.369968355E-01 5.499656685E-02 -4.822298808E-01
 6.253101230E-01 5.607633479E-02 -5.020829539E-01
 6.144468784E-01 5.704790168E-02 -5.345828031E-01
 6.032106578E-01 5.799014866E-02 -5.475079762E-01
 5.913066864E-01 5.892939307E-02 -5.764460592E-01
 5.785873830E-01 5.986212566E-02 -6.034688740E-01
 5.651926696E-01 6.074804626E-02 -6.031790681E-01
 5.522287488E-01 6.152957492E-02 -6.362442435E-01
 5.400976539E-01 6.220163219E-02 -6.553157766E-01
 5.282382965E-01 6.276972964E-02 -6.424801927E-01
 5.156767070E-01 6.330212951E-02 -6.694971158E-01
 5.037916899E-01 6.375204772E-02 -7.033923098E-01
 4.916913658E-01 6.413296610E-02 -7.035953358E-01
 4.784885198E-01 6.445666775E-02 -6.756122064E-01
 4.648187906E-01 6.470194459E-02 -6.716677246E-01
 4.507437646E-01 6.487604231E-02 -6.703299052E-01
 4.371507019E-01 6.495286897E-02 -6.586629426E-01
 4.240078032E-01 6.495303661E-02 -6.595810643E-01
 4.112111628E-01 6.487129629E-02 -6.295127596E-01
 3.985222727E-01 6.471631303E-02 -6.257650288E-01
 3.860781789E-01 6.450786814E-02 -6.192847334E-01
 3.743230253E-01 6.423931941E-02 -6.004510829E-01
 3.619172722E-01 6.389312074E-02 -5.958056308E-01
 3.490287662E-01 6.346402317E-02 -5.748459741E-01
 3.366076499E-01 6.297912449E-02 -5.628527791E-01
 3.253217787E-01 6.249100715E-02 -5.573236735E-01
 3.141451329E-01 6.194901280E-02 -5.516245872E-01
 3.016943038E-01 6.127625145E-02 -5.345052093E-01
 2.885395437E-01 6.048439816E-02 -5.183533896E-01
 2.754707187E-01 5.962497182E-02 -5.039783336E-01
 2.632772028E-01 5.875359103E-02 -4.944006866E-01
 2.510994896E-01 5.781093054E-02 -4.773165937E-01
 2.385002822E-01 5.676159076E-02 -4.631118129E-01
 2.260006666E-01 5.564909615E-02 -4.540605036E-01
 2.139373049E-01 5.449640937E-02 -4.373768677E-01
 2.022049651E-01 5.330092832E-02 -4.271381273E-01
 1.902252659E-01 5.199852772E-02 -4.095228155E-01
 1.782157421E-01 5.060846172E-02 -3.949306185E-01
 1.665237024E-01 4.917173646E-02 -3.765999737E-01
 1.548529193E-01 4.765531793E-02 -3.638887500E-01
 1.435767561E-01 4.610559158E-02 -3.536356143E-01
 1.325507611E-01 4.448688589E-02 -3.313675647E-01
 1.213997230E-01 4.275198281E-02 -3.146600051E-01
 1.105439961E-01 4.096461087E-02 -3.009934475E-01
 9.013769403E-02 3.727422096E-02 -2.643977810E-01
 7.910395414E-02 3.506407887E-02 -2.412130303E-01
 7.328151166E-02 -3.938114271E-02 -2.774921367E-01
 9.343147278E-02 -4.383804835E-02 -3.262377852E-01
 1.042552292E-01 -4.596832395E-02 -3.508816858E-01
 1.155975945E-01 -4.803605564E-02 -3.719979352E-01
 1.271855719E-01 -4.999494925E-02 -3.960186876E-01
 1.382065192E-01 -5.173654296E-02 -4.138403362E-01
 1.490785703E-01 -5.334293656E-02 -4.393452648E-01
 1.605568081E-01 -5.492231809E-02 -4.547877176E-01
 1.722367927E-01 -5.642427877E-02 -4.764458095E-01
 1.838900372E-01 -5.781969614E-02 -4.978560530E-01
 1.949425638E-01 -5.905537307E-02 -5.192250362E-01
 2.057650834E-01 -6.017788127E-02 -5.421295590E-01
 2.174098566E-01 -6.129202992E-02 -5.612684859E-01
 2.294974774E-01 -6.234992296E-02 -5.843908989E-01
 2.414748445E-01 -6.330131739E-02 -6.034290860E-01
 2.535167262E-01 -6.416101381E-02 -6.281618460E-01
 2.651366144E-01 -6.490450725E-02 -6.582342115E-01
 2.768034339E-01 -6.554685161E-02 -6.994819315E-01
 2.889427990E-01 -6.610264629E-02 -7.200650883E-01
 3.013449460E-01 -6.656500697E-02 -7.358621138E-01
 3.134675324E-01 -6.690528989E-02 -7.743128542E-01
 3.254504651E-01 -6.712728366E-02 -7.791514811E-01
 3.368954957E-01 -6.724737585E-02 -8.176361504E-01
 3.477903754E-01 -6.724351272E-02 -8.438106607E-01
 3.589879274E-01 -6.714116782E-02 -8.676288761E-01
 3.698172718E-01 -6.694274023E-02 -8.924126075E-01
 3.810004741E-01 -6.662917137E-02 -9.146897064E-01
 3.931356817E-01 -6.615941599E-02 -9.373138967E-01
 4.055363089E-01 -6.555247679E-02 -9.776938144E-01
 4.180246741E-01 -6.482500210E-02 -9.147262897E-01
 4.304780364E-01 -6.395661458E-02 -5.203035855E-01
 4.429598451E-01 -6.294638850E-02 -4.746380526E-01
 4.555736780E-01 -6.182967871E-02 -5.256017495E-01
 4.679390490E-01 -6.061244011E-02 -4.934797183E-01
 4.800771773E-01 -5.930798128E-02 -4.422582027E-01
 4.922495782E-01 -5.792136304E-02 -4.072006538E-01
 5.052129477E-01 -5.635708198E-02 -3.729042492E-01
 5.186147988E-01 -5.464608781E-02 -3.293412178E-01
 5.315972269E-01 -5.291417800E-02 -2.889990513E-01
 5.446830690E-01 -5.110512674E-02 -2.509976861E-01
 5.579557717E-01 -4.922321811E-02 -2.132984183E-01
 5.711615086E-01 -4.731515422E-02 -1.831456534E-01
 5.842016339E-01 -4.539272189E-02 -1.527467915E-01
 5.970150232E-01 -4.347489960E-02 -1.218773787E-01
 6.101537347E-01 -4.148679599E-02 -9.551700226E-02
 6.238233745E-01 -3.938759863E-02 -6.337435252E-02
 6.378320158E-01 -3.724121302E-02 -3.347570044E-02
 6.514309645E-01 -3.515947983E-02 -1.457090387E-02
 6.649013460E-01 -3.308854625E-02 1.385002983E-02
 6.781552434E-01 -3.106224909E-02 3.401236304E-02
 6.906778216E-01 -2.914611530E-02 5.582795647E-02
 7.044273019E-01 -2.705801837E-02 7.960307023E-02
 7.186717093E-01 -2.492286917E-02 9.943395444E-02
 7.309597135E-01 -2.308232710E-02 1.188900031E-01
 7.432411611E-01 -2.127586585E-02 1.409929629E-01
 7.564221919E-01 -1.938134246E-02 1.513889184E-01
 7.694623470E-01 -1.749834605E-02 1.717251816E-01
 7.821250558E-01 -1.568164723E-02 1.990036452E-01
 7.946891189E-01 -1.393909426E-02 2.177864682E-01
 8.067216277E-01 -1.232204726E-02 2.338392857E-01
 8.180646896E-01 -1.084851613E-02 2.491077783E-01
 8.299073577E-01 -9.356445633E-03 2.635804931E-01
 8.422380686E-01 -7.857225137E-03 2.837448983E-01
 8.546124995E-01 -6.438378943E-03 2.989687768E-01
 8.661834896E-01 -5.172782345E-03 3.144252027E-01
 8.773788810E-01 -4.035564722E-03 3.327367287E-01
 8.895785809E-01 -2.925599925E-03 3.418415547E-01
 9.010889828E-01 -1.980211760E-03 3.560430115E-01
 9.115555286E-01 -1.241699094E-03 3.622709114E-01
 9.428008497E-01 2.914229735E-04 3.694085118E-01
 9.560546875E-01 6.245673867E-04 3.649073244E-01
 9.702470601E-01 7.922290242E-04 3.599693244E-01
 9.837175906E-01 7.736606349E-04 3.527959947E-01
 -5.000000000E-01 9.500000000E-01 2.494439713E-02
 -5.000000000E-01 9.000000000E-01 3.789588096E-02
 -5.000000000E-01 8.500000000E-01 4.754901825E-02
 -5.000000000E-01 8.000000000E-01 5.614527451E-02
 -5.000000000E-01 7.500000000E-01 6.435206227E-02
 -5.000000000E-01 7.000000000E-01 7.238500943E-02
 -5.000000000E-01 6.500000000E-01 8.065962744E-02
 -5.000000000E-01 6.000000000E-01 8.900836550E-02
 -5.000000000E-01 5.500000000E-01 9.763732723E-02
 -5.000000000E-01 5.000000000E-01 1.064939802E-01
 -5.000000000E-01 4.500000000E-01 1.155274454E-01
 -5.000000000E-01 4.000000000E-01 1.244453079E-01
 -5.000000000E-01 3.500000000E-01 1.333745675E-01
 -5.000000000E-01 3.000000000E-01 1.420127181E-01
 -5.000000000E-01 2.500000000E-01 1.500009052E-01
 -5.000000000E-01 2.000000000E-01 1.570182257E-01
 -5.000000000E-01 1.500000000E-01 1.630342282E-01
 -5.000000000E-01 1.000000000E-01 1.675784445E-01
 -5.000000000E-01 5.000000000E-02 1.704412756E-01
 -5.000000000E-01 2.752242878E-12 1.714858564E-01
 -5.000000000E-01 -5.000000000E-02 1.707734203E-01
 -5.000000000E-01 -1.000000000E-01 1.681203535E-01
 -5.000000000E-01 -1.500000000E-01 1.637452246E-01
 -5.000000000E-01 -2.000000000E-01 1.579240925E-01
 -5.000000000E-01 -2.500000000E-01 1.508849554E-01
 -5.000000000E-01 -3.000000000E-01 1.430196798E-01
 -5.000000000E-01 -3.500000000E-01 1.344508042E-01
 -5.000000000E-01 -4.000000000E-01 1.255764867E-01
 -5.000000000E-01 -4.500000000E-01 1.165453817E-01
 -5.000000000E-01 -5.000000000E-01 1.074287222E-01
 -5.000000000E-01 -5.500000000E-01 9.852714151E-02
 -5.000000000E-01 -6.000000000E-01 8.986742561E-02
 -5.000000000E-01 -6.500000000E-01 8.140120108E-02
 -5.000000000E-01 -7.000000000E-01 7.309282472E-02
 -5.000000000E-01 -7.500000000E-01 6.491032904E-02
 -5.000000000E-01 -8.000000000E-01 5.663949174E-02
 -5.000000000E-01 -8.500000000E-01 4.798815622E-02
 -5.000000000E-01 -9.000000000E-01 3.811983967E-02
 -5.000000000E-01 -9.500000000E-01 2.527967289E-02
 -4.500000000E-01 -1.000000000E+00 2.087885408E-02
 -4.000000000E-01 -1.000000000E+00 3.099693569E-02
 -3.500000000E-01 -1.000000000E+00 3.725075037E-02
 -3.000000000E-01 -1.000000000E+00 4.097465481E-02
 -2.500000000E-01 -1.000000000E+00 4.303096538E-02
 -2.000000000E-01 -1.000000000E+00 4.341775606E-02
 -1.500000000E-01 -1.000000000E+00 4.206183894E-02
 -1.000000000E-01 -1.000000000E+00 3.903270903E-02
 -5.000000000E-02 -1.000000000E+00 3.422595263E-02
 -9.424683256E-13 -1.000000000E+00 2.768091544E-02
 5.000000000E-02 -1.000000000E+00 1.961185577E-02
 1.000000000E-01 -1.000000000E+00 1.007484041E-02
 1.500000000E-01 -1.000000000E+00 -5.146136784E-04
 2.000000000E-01 -1.000000000E+00 -1.164459884E-02
 2.500000000E-01 -1.000000000E+00 -2.299916679E-02
 3.000000000E-01 -1.000000000E+00 -3.364767233E-02
 3.500000000E-01 -1.000000000E+00 -4.358545249E-02
 4.000000000E-01 -1.000000000E+00 -5.222600712E-02
 4.500000000E-01 -1.000000000E+00 -5.943959820E-02
 5.000000000E-01 -1.000000000E+00 -6.437333038E-02
 5.500000000E-01 -1.000000000E+00 -6.682034637E-02
 6.000000000E-01 -1.000000000E+00 -6.742707785E-02
 6.500000000E-01 -1.000000000E+00 -6.558820030E-02
 7.000000000E-01 -1.000000000E+00 -6.196759376E-02
 7.500000000E-01 -1.000000000E+00 -5.696553670E-02
 8.000000000E-01 -1.000000000E+00 -5.030316956E-02
 8.500000000E-01 -1.000000000E+00 -4.348644949E-02
 9.000000000E-01 -1.000000000E+00 -3.582154165E-02
 9.500000000E-01 -1.000000000E+00 -2.834460706E-02
 1.000000000E+00 -1.000000000E+00 -2.085048442E-02
 1.050000000E+00 -1.000000000E+00 -1.388999042E-02
 1.100000000E+00 -1.000000000E+00 -7.493884467E-03
 1.150000000E+00 -1.000000000E+00 -1.773918908E-03
 1.200000000E+00 -1.000000000E+00 3.178124097E-03
 1.250000000E+00 -1.000000000E+00 7.447927113E-03
 1.300000000E+00 -1.000000000E+00 1.093642489E-02
 1.350000000E+00 -1.000000000E+00 1.381695515E-02
 1.400000000E+00 -1.000000000E+00 1.623700979E-02
 1.450000000E+00 -1.000000000E+00 1.811148636E-02
 1.500000000E+00 -1.000000000E+00 1.952767590E-02
 1.550000000E+00 -1.000000000E+00 2.049048684E-02
 1.600000000E+00 -1.000000000E+00 2.117848979E-02
 1.650000000E+00 -1.000000000E+00 2.160929079E-02
 1.700000000E+00 -1.000000000E+00 2.176639566E-02
 1.750000000E+00 -1.000000000E+00 2.173842200E-02
 1.800000000E+00 -1.000000000E+00 2.168209441E-02
 1.850000000E+00 -1.000000000E+00 2.148336549E-02
 1.900000000E+00 -1.000000000E+00 2.113452853E-02
 1.950000000E+00 -1.000000000E+00 2.079313979E-02
 2.000000000E+00 -1.000000000E+00 2.021273757E-02
 2.050000000E+00 -1.000000000E+00 1.991820258E-02
 2.100000000E+00 -1.000000000E+00 1.932154738E-02
 2.150000000E+00 -1.000000000E+00 1.891069273E-02
 2.200000000E+00 -1.000000000E+00 1.846734054E-02
 2.250000000E+00 -1.000000000E+00 1.795371985E-02
 2.300000000E+00 -1.000000000E+00 1.753324244E-02
 2.350000000E+00 -1.000000000E+00 1.707715304E-02
 2.400000000E+00 -1.000000000E+00 1.666592018E-02
 2.450000000E+00 -1.000000000E+00 1.631235015E-02
 2.500000000E+00 -1.000000000E+00 1.586543017E-02
 2.550000000E+00 -1.000000000E+00 1.579230687E-02
 2.600000000E+00 -1.000000000E+00 1.512252533E-02
 2.650000000E+00 -1.000000000E+00 1.516986261E-02
 2.700000000E+00 -1.000000000E+00 1.481813529E-02
 2.750000000E+00 -1.000000000E+00 1.461885463E-02
 2.800000000E+00 -1.000000000E+00 1.442939009E-02
 2.850000000E+00 -1.000000000E+00 1.431306052E-02
 2.900000000E+00 -1.000000000E+00 1.426136771E-02
 2.950000000E+00 -1.000000000E+00 1.411066494E-02
 3.000000000E+00 -1.000000000E+00 1.414085324E-02
 3.050000000E+00 -1.000000000E+00 1.406182050E-02
 3.100000000E+00 -1.000000000E+00 1.401338003E-02
 3.150000000E+00 -1.000000000E+00 1.394607674E-02
 3.200000000E+00 -1.000000000E+00 1.375930007E-02
 3.250000000E+00 -1.000000000E+00 1.369657402E-02
 3.300000000E+00 -1.000000000E+00 1.325345299E-02
 3.350000000E+00 -1.000000000E+00 1.282349949E-02
 3.400000000E+00 -1.000000000E+00 1.147659986E-02
 3.450000000E+00 -1.000000000E+00 8.194891646E-03
 3.500000000E+00 -9.500000000E-01 1.734094206E-03
 3.500000000E+00 -9.000000000E-01 4.845413218E-03
 3.500000000E+00 -8.500000000E-01 7.387503968E-03
 3.500000000E+00 -8.000000000E-01 9.583457467E-03
 3.500000000E+00 -7.500000000E-01 1.115937649E-02
 3.500000000E+00 -7.000000000E-01 1.233087299E-02
 3.500000000E+00 -6.500000000E-01 1.356856381E-02
 3.500000000E+00 -6.000000000E-01 1.492584388E-02
 3.500000000E+00 -5.500000000E-01 1.641028501E-02
 3.500000000E+00 -5.000000000E-01 1.797171984E-02
 3.500000000E+00 -4.500000000E-01 1.955734368E-02
 3.500000000E+00 -4.000000000E-01 2.115354746E-02
 3.500000000E+00 -3.500000000E-01 2.275092970E-02
 3.500000000E+00 -3.000000000E-01 2.432718189E-02
 3.500000000E+00 -2.500000000E-01 2.567366103E-02
 3.500000000E+00 -2.000000000E-01 2.633834017E-02
 3.500000000E+00 -1.500000000E-01 2.625530032E-02
 3.500000000E+00 -1.000000000E-01 2.576583171E-02
 3.500000000E+00 -5.000000000E-02 2.533934311E-02
 3.500000000E+00 -2.752242878E-12 2.544113360E-02
 3.500000000E+00 5.000000000E-02 2.592827085E-02
 3.500000000E+00 1.000000000E-01 2.638516934E-02
 3.500000000E+00 1.500000000E-01 2.622128689E-02
 3.500000000E+00 2.000000000E-01 2.538287254E-02
 3.500000000E+00 2.500000000E-01 2.402734028E-02
 3.500000000E+00 3.000000000E-01 2.240553598E-02
 3.500000000E+00 3.500000000E-01 2.079021264E-02
 3.500000000E+00 4.000000000E-01 1.923216314E-02
 3.500000000E+00 4.500000000E-01 1.769794861E-02
 3.500000000E+00 5.000000000E-01 1.607876413E-02
 3.500000000E+00 5.500000000E-01 1.452157222E-02
 3.500000000E+00 6.000000000E-01 1.335295331E-02
 3.500000000E+00 6.500000000E-01 1.269158706E-02
 3.500000000E+00 7.000000000E-01 1.205988542E-02
 3.500000000E+00 7.500000000E-01 1.037526781E-02
 3.500000000E+00 8.000000000E-01 6.625284711E-03
 3.500000000E+00 8.500000000E-01 -6.387833880E-04
 3.500000000E+00 9.000000000E-01 -1.045557659E-02
 3.500000000E+00 9.500000000E-01 -2.129088903E-02
 3.450000000E+00 1.000000000E+00 -7.389931109E-03
 3.400000000E+00 1.000000000E+00 1.268336863E-04
 3.350000000E+00 1.000000000E+00 2.285288688E-03
 3.300000000E+00 1.000000000E+00 2.847020186E-03
 3.250000000E+00 1.000000000E+00 2.641326551E-03
 3.200000000E+00 1.000000000E+00 1.985658796E-03
 3.150000000E+00 1.000000000E+00 1.749312644E-03
 3.100000000E+00 1.000000000E+00 6.868683332E-04
 3.050000000E+00 1.000000000E+00 1.472682433E-04
 3.000000000E+00 1.000000000E+00 -6.760388222E-04
 2.950000000E+00 1.000000000E+00 -1.398525940E-03
 2.900000000E+00 1.000000000E+00 -2.364260458E-03
 2.850000000E+00 1.000000000E+00 -2.973982361E-03
 2.800000000E+00 1.000000000E+00 -3.771097813E-03
 2.750000000E+00 1.000000000E+00 -5.031456590E-03
 2.700000000E+00 1.000000000E+00 -5.308313454E-03
 2.650000000E+00 1.000000000E+00 -6.610482770E-03
 2.600000000E+00 1.000000000E+00 -7.594223069E-03
 2.550000000E+00 1.000000000E+00 -8.443789143E-03
 2.500000000E+00 1.000000000E+00 -9.723160778E-03
 2.450000000E+00 1.000000000E+00 -1.060189330E-02
 2.400000000E+00 1.000000000E+00 -1.183488622E-02
 2.350000000E+00 1.000000000E+00 -1.296193846E-02
 2.300000000E+00 1.000000000E+00 -1.405006770E-02
 2.250000000E+00 1.000000000E+00 -1.562171025E-02
 2.200000000E+00 1.000000000E+00 -1.661735516E-02
 2.150000000E+00 1.000000000E+00 -1.833098829E-02
 2.100000000E+00 1.000000000E+00 -1.986299150E-02
 2.050000000E+00 1.000000000E+00 -2.168206817E-02
 2.000000000E+00 1.000000000E+00 -2.340901687E-02
 1.950000000E+00 1.000000000E+00 -2.539981590E-02
 1.900000000E+00 1.000000000E+00 -2.751368686E-02
 1.850000000E+00 1.000000000E+00 -2.993708086E-02
 1.800000000E+00 1.000000000E+00 -3.255230044E-02
 1.750000000E+00 1.000000000E+00 -3.537703519E-02
 1.700000000E+00 1.000000000E+00 -3.844695999E-02
 1.650000000E+00 1.000000000E+00 -4.182231720E-02
 1.600000000E+00 1.000000000E+00 -4.547143732E-02
 1.550000000E+00 1.000000000E+00 -4.945829578E-02
 1.500000000E+00 1.000000000E+00 -5.422395555E-02
 1.450000000E+00 1.000000000E+00 -5.921217449E-02
 1.400000000E+00 1.000000000E+00 -6.483971183E-02
 1.350000000E+00 1.000000000E+00 -7.054633150E-02
 1.300000000E+00 1.000000000E+00 -7.686497081E-02
 1.250000000E+00 1.000000000E+00 -8.364815826E-02
 1.200000000E+00 1.000000000E+00 -9.071277822E-02
 1.150000000E+00 1.000000000E+00 -9.798869505E-02
 1.100000000E+00 1.000000000E+00 -1.054615832E-01
 1.050000000E+00 1.000000000E+00 -1.122874391E-01
 1.000000000E+00 1.000000000E+00 -1.187595252E-01
 9.500000000E-01 1.000000000E+00 -1.245993928E-01
 9.000000000E-01 1.000000000E+00 -1.289231054E-01
 8.500000000E-01 1.000000000E+00 -1.322073268E-01
 8.000000000E-01 1.000000000E+00 -1.329961384E-01
 7.500000000E-01 1.000000000E+00 -1.326777643E-01
 7.000000000E-01 1.000000000E+00 -1.296884771E-01
 6.500000000E-01 1.000000000E+00 -1.243768257E-01
 6.000000000E-01 1.000000000E+00 -1.173954399E-01
 5.500000000E-01 1.000000000E+00 -1.076985790E-01
 5.000000000E-01 1.000000000E+00 -9.674550227E-02
 4.500000000E-01 1.000000000E+00 -8.432258191E-02
 4.000000000E-01 1.000000000E+00 -7.072492442E-02
 3.500000000E-01 1.000000000E+00 -5.698006479E-02
 3.000000000E-01 1.000000000E+00 -4.281595417E-02
 2.500000000E-01 1.000000000E+00 -2.893056741E-02
 2.000000000E-01 1.000000000E+00 -1.539975695E-02
 1.500000000E-01 1.000000000E+00 -2.600535434E-03
 1.000000000E-01 1.000000000E+00 8.765521724E-03
 5.000000000E-02 1.000000000E+00 1.881977705E-02
 1.733724275E-12 1.000000000E+00 2.709929102E-02
 -5.000000000E-02 1.000000000E+00 3.376960511E-02
 -1.000000000E-01 1.000000000E+00 3.864476955E-02
 -1.500000000E-01 1.000000000E+00 4.172884045E-02
 -2.000000000E-01 1.000000000E+00 4.309241719E-02
 -2.500000000E-01 1.000000000E+00 4.273452863E-02
 -3.000000000E-01 1.000000000E+00 4.061391744E-02
 -3.500000000E-01 1.000000000E+00 3.673934887E-02
 -4.000000000E-01 1.000000000E+00 3.058970218E-02
 -4.500000000E-01 1.000000000E+00 2.055390363E-02
 9.039759997E-01 -6.200210190E-03 3.507717916E-01
 8.272957245E-01 -1.492480445E-02 2.558913717E-01
 7.537296205E-01 -2.524155530E-02 1.464734488E-01
 9.882565548E-01 -5.752706019E-03 3.288893996E-01
 6.828911343E-01 -3.596838874E-02 4.042609124E-02
 6.139212122E-01 -4.610402907E-02 -8.725573930E-02
 5.488829112E-01 -5.675901789E-02 -2.368281074E-01
 4.834754104E-01 -6.454191432E-02 -4.263689277E-01
 4.273310576E-01 -7.006804390E-02 -6.050698488E-01
 3.721357243E-01 -7.170637201E-02 -8.837469165E-01
 3.223938656E-01 -7.229588142E-02 -7.685769629E-01
 2.620878076E-01 -6.951812275E-02 -6.394739424E-01
 2.081028360E-01 -6.498124999E-02 -5.382596116E-01
 1.506487557E-01 -5.853929533E-02 -4.305837017E-01