TITLE     = "Visualization of the solution"
VARIABLES = "x"
"y"
"Pressure_Coefficient"
ZONE T="Zone"
 STRANDID=0, SOLUTIONTIME=0
 Nodes=694, Elements=1173, ZONETYPE=FEQuadrilateral
 DATAPACKING=POINT
 DT=(DOUBLE DOUBLE DOUBLE )
 9.998325109E-01 5.181449815E-04 3.090866784E-01
 9.864130616E-01 3.051979467E-03 2.608590657E-01
 9.736348987E-01 5.407703575E-03 1.615832026E-01
 9.585343599E-01 8.234917186E-03 1.027590300E-01
 9.443437457E-01 1.085177436E-02 5.846818527E-02
 9.310768843E-01 1.325316820E-02 1.773925037E-02
 9.196747541E-01 1.534533687E-02 -2.104015071E-02
 9.073804021E-01 1.752851345E-02 -5.824216006E-02
 8.957651854E-01 1.957140118E-02 -8.855540033E-02
 8.834952116E-01 2.163128927E-02 -1.207694370E-01
 8.715177774E-01 2.363889664E-02 -1.563043464E-01
 8.595331311E-01 2.554428205E-02 -1.743189197E-01
 8.469849229E-01 2.743222564E-02 -1.881098727E-01
 8.354759812E-01 2.912585810E-02 -2.041057942E-01
 8.238426447E-01 3.080997989E-02 -2.211267295E-01
 8.110982776E-01 3.260340542E-02 -2.434979304E-01
 7.983044982E-01 3.438439965E-02 -2.617019683E-01
 7.861351371E-01 3.600118682E-02 -2.694846191E-01
 7.735162377E-01 3.763107210E-02 -2.890034763E-01
 7.618555427E-01 3.916482627E-02 -3.129482484E-01
 7.489125133E-01 4.079600051E-02 -3.269608108E-01
 7.349681854E-01 4.246963188E-02 -3.452588561E-01
 7.241070867E-01 4.377807677E-02 -3.615176352E-01
 7.127417922E-01 4.507692158E-02 -3.757781801E-01
 7.009949088E-01 4.640671611E-02 -3.966428678E-01
 6.875864863E-01 4.787459597E-02 -4.179651431E-01
 6.744728684E-01 4.925281182E-02 -4.373897447E-01
 6.639122367E-01 5.031914636E-02 -4.568700015E-01
 6.521951556E-01 5.146766827E-02 -4.796021688E-01
 6.409110427E-01 5.253424123E-02 -4.967338706E-01
 6.287516952E-01 5.360017717E-02 -5.155928951E-01
 6.173549891E-01 5.457894504E-02 -5.363138095E-01
 6.065186858E-01 5.544031784E-02 -5.553391826E-01
 5.942540169E-01 5.638568103E-02 -5.683842533E-01
 5.822041035E-01 5.720127746E-02 -5.830819309E-01
 5.688109398E-01 5.809352174E-02 -6.038738763E-01
 5.559195280E-01 5.885103717E-02 -6.175336496E-01
 5.431786180E-01 5.952097476E-02 -6.280335253E-01
 5.319530368E-01 6.005112454E-02 -6.339965154E-01
 5.200134516E-01 6.055204198E-02 -6.347828021E-01
 5.072519779E-01 6.099325418E-02 -6.380637439E-01
 4.963369966E-01 6.134136766E-02 -6.364093982E-01
 4.830347896E-01 6.165323779E-02 -6.308522613E-01
 4.700943828E-01 6.189561635E-02 -6.289134033E-01
 4.560911357E-01 6.208307296E-02 -6.255041533E-01
 4.424541593E-01 6.217015907E-02 -6.185177271E-01
 4.295071661E-01 6.217853352E-02 -6.080142926E-01
 4.165989161E-01 6.210027635E-02 -5.975192666E-01
 4.042637944E-01 6.197341159E-02 -5.900879680E-01
 3.917368054E-01 6.177460775E-02 -5.820539471E-01
 3.797601759E-01 6.152122468E-02 -5.721468359E-01
 3.683515489E-01 6.121598184E-02 -5.596426234E-01
 3.552441001E-01 6.080235541E-02 -5.499626229E-01
 3.430652022E-01 6.036499515E-02 -5.385605557E-01
 3.304960430E-01 5.982997641E-02 -5.293595457E-01
 3.200482428E-01 5.935592577E-02 -5.187886866E-01
 3.077318668E-01 5.872065201E-02 -5.058495195E-01
 2.948927581E-01 5.799053982E-02 -4.940542776E-01
 2.812062800E-01 5.714105070E-02 -4.815803607E-01
 2.688650191E-01 5.629449338E-02 -4.687194207E-01
 2.569483519E-01 5.542330444E-02 -4.532531784E-01
 2.443989962E-01 5.442934483E-02 -4.386628143E-01
 2.319196612E-01 5.337523669E-02 -4.253112798E-01
 2.197885215E-01 5.228231102E-02 -4.120721950E-01
 2.079636753E-01 5.114369467E-02 -3.970849817E-01
 1.963862777E-01 4.995352775E-02 -3.831900094E-01
 1.840974540E-01 4.863231257E-02 -3.695110123E-01
 1.720959693E-01 4.724185169E-02 -3.549248088E-01
 1.605008543E-01 4.583364353E-02 -3.415564717E-01
 1.485577971E-01 4.429566488E-02 -3.262631253E-01
 1.377244592E-01 4.281210527E-02 -3.092424797E-01
 1.262450665E-01 4.115887359E-02 -2.918857725E-01
 1.148118377E-01 3.941034153E-02 -2.750853568E-01
 1.041233763E-01 3.766822442E-02 -2.598580618E-01
 9.436631948E-02 3.599393368E-02 -2.410958532E-01
 8.327987790E-02 3.395988792E-02 -2.197279121E-01
 7.161599398E-02 3.165441379E-02 -1.982572779E-01
 6.175082922E-02 2.954346500E-02 -1.756767018E-01
 5.208557844E-02 2.730556019E-02 -1.544813098E-01
 4.327828810E-02 2.507613599E-02 -1.299610939E-01
 3.565546498E-02 2.296235226E-02 -9.903371196E-02
 2.901268564E-02 2.093067952E-02 -8.053018661E-02
 2.338448539E-02 1.903147809E-02 -5.573859483E-02
 1.929922961E-02 1.750726812E-02 -2.238430213E-02
 1.549182273E-02 1.594862528E-02 1.051508103E-02
 1.268340647E-02 1.468103286E-02 4.340590653E-02
 1.017063390E-02 1.343694516E-02 6.256254107E-02
 8.326662704E-03 1.242989767E-02 1.071115972E-01
 6.657970604E-03 1.144159772E-02 1.332287078E-01
 5.129524041E-03 1.043586526E-02 2.304536981E-01
 3.158575855E-03 8.948451839E-03 2.102935778E-01
 1.506717759E-03 7.440611254E-03 6.031427479E-01
 1.374302083E-04 5.851086229E-03 5.798306366E-01
 -1.133917365E-03 3.709896933E-03 8.397909023E-01
 -1.698120963E-03 2.013529185E-03 7.955386564E-01
 -1.885005622E-03 6.266055279E-04 1.324287637E+00
 -1.813570736E-03 -9.897873970E-04 9.059701967E-01
 -1.375030028E-03 -2.828283235E-03 1.051156567E+00
 -4.199392279E-04 -4.956256133E-03 8.457033517E-01
 1.082814299E-03 -7.215124089E-03 7.323606646E-01
 3.173627658E-03 -9.575046599E-03 6.559024294E-01
 5.055873655E-03 -1.131827850E-02 5.130543044E-01
 7.262867410E-03 -1.309735049E-02 4.536127808E-01
 8.939401247E-03 -1.430400275E-02 3.711789796E-01
 1.101153810E-02 -1.567445882E-02 3.072256669E-01
 1.344022434E-02 -1.714788005E-02 2.578292415E-01
 1.667668670E-02 -1.892397553E-02 1.853878224E-01
 1.977709308E-02 -2.047682740E-02 1.324254091E-01
 2.375157923E-02 -2.229411900E-02 8.632434087E-02
 2.912755124E-02 -2.451589145E-02 1.986590770E-02
 3.477213532E-02 -2.661900781E-02 -2.392765274E-02
 4.181450978E-02 -2.898379974E-02 -7.446724048E-02
 4.922708869E-02 -3.123519011E-02 -1.198481999E-01
 5.786670744E-02 -3.361142054E-02 -1.615540742E-01
 6.643861532E-02 -3.576273471E-02 -2.026746742E-01
 7.658474147E-02 -3.809764236E-02 -2.308131819E-01
 8.632509410E-02 -4.016511887E-02 -2.653809727E-01
 9.664412588E-02 -4.217158258E-02 -2.892877975E-01
 1.074802503E-01 -4.414625466E-02 -3.123643563E-01
 1.189106330E-01 -4.608242586E-02 -3.348099307E-01
 1.303900033E-01 -4.788923636E-02 -3.542335108E-01
 1.408517957E-01 -4.942648113E-02 -3.721826089E-01
 1.519415826E-01 -5.096592754E-02 -3.891497823E-01
 1.638059467E-01 -5.250598118E-02 -4.097770680E-01
 1.753468215E-01 -5.389909074E-02 -4.283696572E-01
 1.871301085E-01 -5.523317307E-02 -4.475834360E-01
 1.976410300E-01 -5.633971468E-02 -4.679093032E-01
 2.087966502E-01 -5.743118748E-02 -4.830285504E-01
 2.210481167E-01 -5.855007842E-02 -5.007339962E-01
 2.332812846E-01 -5.956515670E-02 -5.224845800E-01
 2.454334199E-01 -6.048681960E-02 -5.459052804E-01
 2.578497827E-01 -6.131007522E-02 -5.640936113E-01
 2.690625191E-01 -6.198748201E-02 -5.830159553E-01
 2.817885280E-01 -6.263555586E-02 -5.994982532E-01
 2.942658663E-01 -6.318368018E-02 -6.186931928E-01
 3.070417941E-01 -6.361564249E-02 -6.380675815E-01
 3.187252879E-01 -6.391004473E-02 -6.552845575E-01
 3.313880861E-01 -6.411572546E-02 -6.709564646E-01
 3.420311809E-01 -6.419981271E-02 -6.889152393E-01
 3.534369171E-01 -6.416925043E-02 -7.040979771E-01
 3.645422757E-01 -6.405611336E-02 -7.144583237E-01
 3.754104376E-01 -6.382872909E-02 -7.192255132E-01
 3.871323168E-01 -6.349013001E-02 -7.122518081E-01
 3.999788463E-01 -6.297436357E-02 -6.955293778E-01
 4.121815860E-01 -6.234748289E-02 -6.739735670E-01
 4.252467155E-01 -6.153828278E-02 -6.430551582E-01
 4.380197227E-01 -6.063026562E-02 -6.106763343E-01
 4.506783783E-01 -5.957204103E-02 -5.729946808E-01
 4.630665183E-01 -5.844110623E-02 -5.302703922E-01
 4.755888581E-01 -5.719232187E-02 -4.897679270E-01
 4.873841405E-01 -5.590357631E-02 -4.477392197E-01
 4.998463690E-01 -5.445554852E-02 -4.011568498E-01
 5.134464502E-01 -5.277923867E-02 -3.538813275E-01
 5.269174576E-01 -5.102914572E-02 -3.076495608E-01
 5.399178863E-01 -4.928405210E-02 -2.662413810E-01
 5.533260107E-01 -4.743756354E-02 -2.298640091E-01
 5.664396882E-01 -4.555248469E-02 -1.926367912E-01
 5.795866847E-01 -4.364667833E-02 -1.553396714E-01
 5.920978785E-01 -4.178737476E-02 -1.227490711E-01
 6.049295068E-01 -3.990575671E-02 -9.522499586E-02
 6.184766293E-01 -3.788119182E-02 -7.174633441E-02
 6.324205995E-01 -3.574826941E-02 -3.832726603E-02
 6.463475227E-01 -3.365629166E-02 -9.304751812E-03
 6.594240665E-01 -3.165382147E-02 1.528399797E-02
 6.730411649E-01 -2.960023470E-02 4.227286577E-02
 6.855672002E-01 -2.772126347E-02 6.379130367E-02
 6.979008317E-01 -2.587980963E-02 8.501858880E-02
 7.127553225E-01 -2.369415574E-02 1.072887809E-01
 7.257840633E-01 -2.178331837E-02 1.288114037E-01
 7.373518944E-01 -2.009093948E-02 1.512094593E-01
 7.505985498E-01 -1.825182699E-02 1.669959592E-01
 7.632542253E-01 -1.647039130E-02 1.818921007E-01
 7.762236595E-01 -1.467510778E-02 2.073467410E-01
 7.881780267E-01 -1.306902990E-02 2.269034119E-01
 8.007705212E-01 -1.142195798E-02 2.443992887E-01
 8.120554686E-01 -1.002854388E-02 2.596210502E-01
 8.233824372E-01 -8.656407706E-03 2.718736352E-01
 8.353926539E-01 -7.227161899E-03 2.931525229E-01
 8.477375507E-01 -5.878618918E-03 3.103547146E-01
 8.598411679E-01 -4.639656283E-03 3.228740777E-01
 8.711453080E-01 -3.566761035E-03 3.364165619E-01
 8.827751875E-01 -2.568991389E-03 3.486867284E-01
 8.955142498E-01 -1.600949792E-03 3.577097087E-01
 9.057223201E-01 -9.437913541E-04 3.681803707E-01
 9.162247777E-01 -3.732382902E-04 3.719281928E-01
 9.259940982E-01 6.171280256E-05 3.739909259E-01
 9.352280498E-01 3.928988299E-04 3.762406454E-01
 9.477632046E-01 7.007313543E-04 3.730734345E-01
 9.613180757E-01 8.764875238E-04 3.859408308E-01
 9.761241674E-01 8.835861227E-04 3.693061285E-01
 9.887340665E-01 7.340207812E-04 4.247620625E-01
 -5.000000000E-01 -1.000000000E+00 4.924389162E-02
 3.500000000E+00 -1.000000000E+00 1.155529312E-02
 3.500000000E+00 1.000000000E+00 2.422510401E-04
 -5.000000000E-01 1.000000000E+00 4.584896141E-02
 -5.000000000E-01 5.000000000E-01 9.869308161E-02
 -5.000000000E-01 2.752797990E-12 1.478733475E-01
 -5.000000000E-01 -5.000000000E-01 9.975909564E-02
 -9.421907698E-13 -1.000000000E+00 2.255783046E-02
 5.000000000E-01 -1.000000000E+00 -3.344924821E-02
 1.000000000E+00 -1.000000000E+00 -1.308003281E-02
 1.500000000E+00 -1.000000000E+00 2.520423719E-02
 2.000000000E+00 -1.000000000E+00 2.623975957E-02
 2.500000000E+00 -1.000000000E+00 1.804422215E-02
 3.000000000E+00 -1.000000000E+00 1.311421753E-02
 3.500000000E+00 -5.000000000E-01 1.263662852E-02
 3.500000000E+00 -2.752797990E-12 1.284542116E-02
 3.500000000E+00 5.000000000E-01 6.925581992E-03
 3.000000000E+00 1.000000000E+00 -5.655923136E-03
 2.500000000E+00 1.000000000E+00 -1.370956133E-02
 2.000000000E+00 1.000000000E+00 -2.878587212E-02
 1.500000000E+00 1.000000000E+00 -6.842883762E-02
 1.000000000E+00 1.000000000E+00 -1.244024363E-01
 5.000000000E-01 1.000000000E+00 -8.362521354E-02
 1.733724275E-12 1.000000000E+00 1.267525547E-02
 6.830419227E-01 -4.284788644E-02 5.455482934E-02
 7.831402807E-01 -2.639815131E-02 2.094285517E-01
 9.006974924E-01 -1.069280916E-02 3.505016914E-01
 6.921386496E-01 5.935952150E-02 -4.027100516E-01
 2.763558455E-01 -7.140404903E-02 -5.780336271E-01
 2.731540854E-01 6.957365763E-02 -4.584144346E-01
 9.145939657E-01 2.882085162E-02 -3.507601679E-02
 7.936199964E-01 4.573176911E-02 -2.575465773E-01
 5.729354229E-01 -5.980653421E-02 -1.715760369E-01
 5.921786792E-01 6.906347410E-02 -5.583083716E-01
 4.114054942E-01 7.408637701E-02 -5.811688610E-01
 4.112796213E-01 -7.303841652E-02 -6.516888386E-01
 1.843259369E+00 -5.963219526E-01 2.586821769E-02
 1.774708454E+00 6.221382949E-01 -1.859632097E-02
 3.031170879E+00 2.156862596E-01 6.062431468E-03
 7.060180788E-01 -5.408199367E-01 -4.427238428E-02
 4.836124986E-01 -6.713998238E-02 -4.443150776E-01
 3.180198372E-01 -7.404019840E-01 -5.473606207E-02
 1.231578857E-01 -5.646783562E-02 -3.249145959E-01
 1.918129634E-01 -7.020077876E-02 -4.369643676E-01
 7.502389776E-01 4.934776491E-01 -2.068390948E-01
 4.899280853E-01 7.182753606E-02 -6.201565667E-01
 2.734859038E+00 -5.326804222E-01 1.157249167E-02
 1.166897064E+00 6.149668005E-01 -6.326694820E-02
 1.022265830E+00 3.689860815E-01 -3.902313129E-02
 8.562572537E-01 3.806391404E-02 -1.704851251E-01
 1.252314719E+00 -6.431165618E-01 4.924635819E-02
 1.498251584E+00 -2.536843668E-01 3.848545462E-02
 2.744084884E-01 6.357407671E-01 -9.148606804E-02
 1.051555526E-01 4.714534185E-02 -2.457604673E-01
 1.642937196E-01 5.685181205E-02 -3.310742321E-01
 2.250097425E+00 -5.880977958E-01 1.591654395E-02
 1.982703045E+00 -2.121266440E-01 1.248909026E-02
 2.413390180E+00 -1.864927320E-01 7.150730688E-03
 2.184656766E+00 1.583135397E-01 2.252244884E-03
 1.828306595E+00 1.247631857E-01 5.434982164E-03
 -2.684812953E-01 2.170529269E-01 1.615129699E-01
 -1.267110497E-01 6.711127421E-01 3.603407647E-02
 2.870611969E-02 3.288829765E-01 2.621855959E-02
 4.375945184E-02 3.477939009E-02 -9.255863600E-02
 -2.711411500E-01 -2.367800977E-01 1.627370504E-01
 -6.883846111E-02 -6.055293376E-01 3.439214317E-02
 9.942459337E-02 -3.554916928E-01 -3.799125836E-02
 2.225066311E+00 5.652708325E-01 -8.181859667E-03
 2.743673492E+00 5.978646807E-01 -1.883438674E-03
 -2.343348516E-01 -7.038063664E-03 2.203489713E-01
 -1.339464380E-01 1.000709000E-01 2.459705617E-01
 -1.191477885E-01 -1.422737103E-01 2.402064705E-01
 6.914260021E-02 -4.485638920E-02 -1.773631001E-01
 4.412606951E-02 -3.859366611E-02 -5.764797846E-02
 -7.180940475E-02 -3.067269369E-01 1.012938300E-01
 -6.866756735E-03 -1.770176359E-01 1.463657074E-01
 1.502312258E-01 -2.191704477E-01 -1.944083839E-01
 3.439104987E-01 -7.732388654E-02 -6.640746987E-01
 3.117806088E-01 -7.881626393E-02 -6.140435347E-01
 -3.733003272E-02 -9.814715535E-02 3.284298003E-01
 2.003165245E-02 -2.522818423E-02 1.838139779E-01
 -1.096179258E-01 -2.337749443E-02 3.495828314E-01
 -7.230412651E-02 5.719038378E-02 3.699632990E-01
 2.063603418E-02 2.459683821E-02 1.692216265E-02
 3.479757434E-02 -1.078305874E-01 8.426242928E-02
 3.109366693E+00 -2.612650374E-01 1.098631960E-02
 5.571210324E-03 -7.080578362E-02 3.035172598E-01
 -4.031860455E-02 -4.211064843E-02 5.285650698E-01
 -4.905919995E-02 6.753757770E-03 5.491757566E-01
 -2.830650171E-02 4.594627463E-02 4.839366992E-01
 -3.992072120E-02 1.070533553E-01 2.470582031E-01
 2.453863171E-02 8.875687190E-02 8.644590017E-02
 7.481521335E-02 4.286535060E-02 -1.859888246E-01
 1.172170208E-02 1.574943649E-01 1.074833314E-01
 8.329414017E-02 1.282220401E-01 -8.158890722E-02
 6.835202139E-02 8.422735457E-02 -9.283695028E-02
 -8.153513895E-03 -4.158539390E-02 4.536337505E-01
 1.085715457E-02 -1.881066476E-02 3.432188538E-01
 4.998202209E-03 -1.380567303E-02 5.147816804E-01
 -1.450636357E-02 -1.047887347E-02 8.090556785E-01
 5.947086091E-02 2.260391161E-01 -4.757045415E-03
 1.672155890E-01 1.861861285E-01 -2.146986156E-01
 3.342502345E-01 7.033971238E-02 -5.217926531E-01
 3.611357093E-01 7.216134780E-02 -5.424692223E-01
 3.154607014E-01 6.942662911E-02 -5.041922339E-01
 2.283737295E-01 6.708831937E-02 -4.076709258E-01
 1.981260198E-01 6.278019471E-02 -3.719714044E-01
 1.464210575E-01 1.177829174E-01 -2.461837968E-01
 1.554516677E-01 3.087529290E-01 -1.247257379E-01
 2.564323400E-01 2.507840485E-01 -2.880843683E-01
 2.573824469E-01 1.643428646E-01 -3.531677770E-01
 3.427254737E-01 1.922872439E-01 -4.077675709E-01
 3.624257474E-01 3.062713576E-01 -3.331018336E-01
 4.443538654E-01 2.209725132E-01 -4.403527425E-01
 5.393428371E-01 7.146675986E-02 -6.153214776E-01
 5.640705570E-01 7.461854785E-02 -5.891064022E-01
 4.684362066E-01 3.255167379E-01 -3.595431872E-01
 5.580056088E-01 2.462853356E-01 -4.212615591E-01
 5.167914124E-01 1.639625827E-01 -5.140691466E-01
 4.517540880E-01 7.521741898E-02 -6.071275370E-01
 6.176659968E-01 1.734235015E-01 -4.367741717E-01
 6.477489423E-01 6.506984521E-02 -4.753330716E-01
 6.253048013E-01 6.614005115E-02 -5.115622219E-01
 6.746002871E-01 6.070404676E-02 -4.327368449E-01
 6.544333587E-01 2.659793842E-01 -3.396183794E-01
 7.105972433E-01 1.748034724E-01 -3.224651517E-01
 7.459169575E-01 5.379884709E-02 -3.256145443E-01
 7.186619906E-01 5.720301144E-02 -3.621590857E-01
 7.643712591E-01 2.639643544E-01 -2.335021642E-01
 8.142085905E-01 1.765147021E-01 -2.014462734E-01
 7.597318298E-01 1.242340654E-01 -2.786346153E-01
 8.400945374E-01 1.175216785E-01 -1.694938510E-01
 8.872040424E-01 1.600042825E-01 -9.625143210E-02
 9.667884784E-01 1.797677874E-02 1.254873171E-01
 9.097020296E-01 9.948181431E-02 -5.948804985E-02
 9.558608137E-01 1.319152888E-01 -4.235952046E-03
 9.591423488E-01 7.948480970E-02 4.403377670E-02
 1.011437260E+00 1.176626149E-01 7.452220196E-02
 4.548435935E-01 1.483935669E-01 -5.201639079E-01
 6.629405860E-01 1.272772491E-01 -4.133799318E-01
 5.673601758E-01 1.354285958E-01 -5.210945264E-01
 5.810647542E-01 3.917331583E-01 -3.086157338E-01
 3.114515003E-01 1.294390335E-01 -4.414444321E-01
 3.654121829E-01 1.300340401E-01 -4.859006415E-01
 7.976730528E-01 9.629524116E-02 -2.392022574E-01
 7.617998804E-01 4.901501456E-02 -3.047022949E-01
 8.686536034E-01 8.153798286E-02 -1.316887028E-01
 8.778475833E-01 3.206858539E-02 -1.334596124E-01
 4.957330670E-01 1.203075457E-01 -5.625022419E-01
 5.338202462E-01 1.101661633E-01 -5.690425916E-01
 5.143508873E-01 7.174216571E-02 -6.235094378E-01
 8.880947746E-01 2.552612607E-01 -1.142760197E-01
 8.424558787E-01 3.756074745E-01 -1.580428598E-01
 9.229248186E-01 6.197636098E-02 -2.245728225E-02
 9.399523849E-01 2.317852460E-02 3.749692548E-02
 2.603709182E-01 1.062080677E-01 -4.067384386E-01
 2.506894853E-01 6.708471044E-02 -4.339358791E-01
 2.052069470E-01 1.200535532E-01 -3.226469988E-01
 2.607005041E-01 4.067900027E-01 -1.913096119E-01
 7.367350937E-02 4.622983237E-01 -1.694936398E-02
 1.738975476E-01 9.195743864E-02 -3.040297710E-01
 -7.042349227E-02 2.227291664E-01 1.448580190E-01
 1.097509702E-01 9.212194091E-02 -1.956503578E-01
 1.305254508E-01 5.185759914E-02 -2.860960494E-01
 8.966682124E-01 6.729382193E-02 -8.194196608E-02
 3.389489621E-01 1.096282795E-01 -4.860415626E-01
 9.528294054E-01 2.364571725E-02 7.448486785E-02
 9.706182503E-01 3.942320932E-02 1.099762163E-01
 9.981378400E-01 5.804579579E-02 1.309125859E-01
 1.052775926E+00 6.849354190E-02 1.430395162E-01
 1.102888769E+00 1.367312969E-01 7.961700832E-02
 9.952927840E-01 2.059215182E-01 4.914393144E-04
 1.118749250E+00 2.578465584E-01 2.846954022E-02
 1.238738727E+00 2.033890127E-01 4.027496109E-02
 1.196896865E+00 6.203773795E-02 8.061467640E-02
 1.124680508E+00 -3.109091294E-02 1.264303129E-01
 1.253398892E+00 -4.197911670E-02 7.281942706E-02
 1.161039998E+00 -1.363088513E-01 1.159499504E-01
 9.686074132E-01 -1.366628252E-02 3.524115711E-01
 1.046690995E+00 -1.101954448E-01 1.964076120E-01
 1.080165049E+00 -2.197376516E-01 1.303091132E-01
 9.611799169E-01 -1.944798178E-01 1.771124171E-01
 8.436943015E-01 -2.044156664E-02 2.879939979E-01
 1.346517915E+00 9.694814939E-02 4.051720999E-02
 9.993620983E-01 -3.377446451E-01 1.236640015E-01
 1.201892221E+00 -2.730663628E-01 8.647605109E-02
 8.725858736E-01 -2.832842222E-01 1.296122310E-01
 8.270979178E-01 -1.565908873E-01 1.630834528E-01
 7.360578420E-01 -3.228551155E-02 1.410655765E-01
 7.471003890E-01 -2.253209975E-01 6.221108946E-02
 6.255257274E-01 -4.729143401E-02 -5.558752565E-02
 7.156512387E-01 -1.406116240E-01 5.979803944E-02
 6.372028311E-01 -1.886924707E-01 -4.984607915E-02
 6.409808682E-01 -2.782904556E-01 -7.681770958E-02
 5.419483093E-01 -2.433047804E-01 -2.029723208E-01
 9.160033575E-01 -1.042112951E-01 2.493536730E-01
 5.537979122E-01 -1.567553048E-01 -2.107318743E-01
 5.199815505E-01 -6.626443783E-02 -3.243263590E-01
 5.475220477E-01 -6.173332780E-02 -2.411012057E-01
 4.642103882E-01 -1.819889650E-01 -3.766311800E-01
 4.454847201E-01 -7.405193236E-02 -5.642527744E-01
 4.503494155E-01 -2.640156271E-01 -3.219553632E-01
 3.740889794E-01 -2.016601574E-01 -4.170732658E-01
 7.873676989E-01 -1.026796284E-01 1.669821360E-01
 6.537503199E-01 -1.212725854E-01 -2.076776777E-02
 1.407314921E+00 2.895936469E-01 1.030136745E-02
 3.459212415E-01 -3.121621081E-01 -2.940875501E-01
 4.962498921E-01 -1.281643804E-01 -3.608481951E-01
 4.453865992E-01 -1.247606915E-01 -4.842173656E-01
 6.919397009E-01 -9.446682302E-02 4.715303640E-02
 7.053680438E-01 -4.001927300E-02 8.975832679E-02
 1.068909058E+00 1.154116089E-02 1.593784023E-01
 1.024418792E+00 3.106420050E-02 1.972047701E-01
 6.526165014E-01 -7.827940751E-02 -9.731848680E-03
 6.139211932E-01 -9.354929689E-02 -8.375040579E-02
 6.001308420E-01 -5.152730646E-02 -1.067938038E-01
 6.556670646E-01 -4.256039215E-02 6.213996873E-03
 5.347028390E-01 -1.040815756E-01 -2.602010264E-01
 5.306380429E-01 -3.788046038E-01 -1.836371501E-01
 4.728846587E-01 -1.010435326E-01 -4.457564164E-01
 1.416474197E+00 -8.347618355E-02 4.082703868E-02
 5.014054371E-01 -9.639998105E-02 -3.600595911E-01
 5.010275043E-01 -7.434416910E-02 -3.811810282E-01
 4.627714980E-01 -8.196777767E-02 -4.996246448E-01
 4.438044203E-01 -9.326694249E-02 -5.373629655E-01
 4.272629726E-01 -8.322702592E-02 -6.016796571E-01
 4.106101837E-01 -9.745663063E-02 -5.949569904E-01
 3.786741291E-01 -7.561162253E-02 -6.884837273E-01
 4.057526388E-01 -1.425819707E-01 -5.217115667E-01
 3.251766133E-01 -1.469080727E-01 -4.987633003E-01
 2.915359134E-01 -2.142874144E-01 -3.615538860E-01
 2.480141761E-01 -1.395840996E-01 -4.278175764E-01
 2.253010740E-01 -7.072748276E-02 -4.880478976E-01
 3.803442221E-01 -1.111894358E-01 -6.018685536E-01
 2.845590569E-01 -1.226991343E-01 -5.037207495E-01
 3.939715342E-01 -7.359264913E-02 -6.746967593E-01
 6.071732224E-01 -1.339464923E-01 -9.540377258E-02
 4.618645003E-01 1.103348540E-01 -5.689199769E-01
 4.177269003E-01 1.153555363E-01 -5.385958769E-01
 4.050124032E-01 1.614085801E-01 -4.829498001E-01
 3.842791409E-01 9.539321430E-02 -5.372420207E-01
 3.885296273E-01 7.508615651E-02 -5.644643553E-01
 1.445595819E-01 8.553552205E-02 -2.693540301E-01
 1.491097370E-01 6.628798250E-02 -3.011397797E-01
 1.836420762E-01 7.169916956E-02 -3.435429154E-01
 2.007206728E-01 8.237743488E-02 -3.511829439E-01
 2.259832621E-01 8.940527489E-02 -3.815114257E-01
 1.291385563E-01 6.658574732E-02 -2.634577295E-01
 2.949852980E-01 9.538671783E-02 -4.554592063E-01
 4.353266196E-01 7.534114182E-02 -5.966360834E-01
 6.123494033E-01 -5.244173400E-02 -8.201957268E-02
 8.904291137E-01 3.263451336E-02 -1.019135333E-01
 6.426271136E-01 -5.184977596E-02 -2.165244989E-02
 9.959428747E-01 3.320342173E-02 1.726127590E-01
 3.040830087E-01 7.340334589E-02 -4.880021347E-01
 6.249784768E-01 -6.586554195E-02 -5.984745538E-02
 3.999427694E-01 7.220418156E-02 -5.761692075E-01
 4.041136737E-01 8.653915945E-02 -5.626030957E-01
 4.227981102E-01 8.710949106E-02 -5.750844490E-01
 4.432885066E-01 9.167895640E-02 -5.814209250E-01
 4.650006639E-01 8.687400614E-02 -5.983169679E-01
 1.760543069E-01 5.988981862E-02 -3.453202245E-01
 9.377364444E-01 5.236315575E-01 -1.060856342E-01
 8.681637731E-01 3.367127933E-02 -1.554509074E-01
 8.759554712E-01 4.842889001E-02 -1.297215033E-01
 9.063974903E-01 4.443223296E-02 -6.257286174E-02
 1.231065815E+00 3.773041328E-01 7.783407076E-03
 1.450010580E+00 5.467419280E-01 -1.190965826E-02
 1.413875103E-01 5.444837371E-02 -3.013657610E-01
 3.735813468E-01 7.687063733E-02 -5.492932353E-01
 1.876612269E-01 5.859100464E-02 -3.618348741E-01
 2.559025545E+00 2.056701858E-01 1.271610427E-03
 1.422335431E-03 6.116254891E-02 2.345968406E-01
 2.395559392E-01 6.459391741E-02 -4.226894901E-01
 4.220788113E-02 -7.362166923E-02 3.362893061E-02
 8.902651863E-02 -1.045219026E-01 -1.564314444E-01
 1.565512541E-01 -6.506296325E-02 -3.770577471E-01
 1.001124250E-01 -5.659469632E-02 -2.679328955E-01
 5.187984109E-01 -8.331569537E-02 -3.173698870E-01
 2.134926468E-01 6.751287159E-02 -3.871986179E-01
 1.663019445E+00 -9.156355736E-02 2.142915191E-02
 1.026245519E+00 2.140503908E-04 2.219790373E-01
 1.012074579E+00 -2.380233616E-02 3.234514447E-01
 1.047643097E+00 -3.637520873E-02 2.131287199E-01
 7.424143095E-01 -3.727941146E-01 1.972340823E-02
 5.363156736E-01 -7.577271477E-02 -2.696427038E-01
 5.591637430E-01 -7.820525936E-02 -2.065413849E-01
 5.754817785E-01 -1.076345258E-01 -1.584995514E-01
 5.841317612E-01 -7.926922619E-02 -1.435860193E-01
 1.498552173E-02 -4.439084408E-02 2.566338948E-01
 3.093399716E-02 -3.319272374E-02 4.824577464E-02
 5.669777508E-01 9.879741429E-02 -5.615079062E-01
 6.049542230E-01 1.072075479E-01 -5.041072064E-01
 6.377510698E-01 9.527933138E-02 -4.709695181E-01
 6.814482610E-01 -6.514497018E-02 4.269019784E-02
 7.090191257E-01 -6.259038209E-02 8.583956048E-02
 1.143658632E+00 -4.146715122E-01 8.842295570E-02
 9.571626048E-01 -5.302444719E-01 5.740958232E-02
 5.102244991E-01 -5.828842015E-01 -1.239030716E-01
 5.686969309E-01 6.261395183E-01 -2.104398186E-01
 7.373727252E-01 -9.533840508E-02 1.125355695E-01
 7.619164593E-01 -6.509370457E-02 1.562578698E-01
 7.591693512E-01 -2.865531643E-02 1.735587225E-01
 7.993966331E-01 -6.261609494E-02 2.037497481E-01
 8.192504007E-01 -2.268287174E-02 2.558459930E-01
 8.295382629E-01 -9.272049110E-02 2.124983081E-01
 8.730519178E-01 -7.010224844E-02 2.636611064E-01
 8.659475219E-01 -1.699665081E-02 3.160744930E-01
 8.376761566E-01 -5.512870076E-02 2.479481597E-01
 7.353676451E-01 -5.594565576E-02 1.270361485E-01
 7.736072217E-01 -4.140398029E-02 1.853155492E-01
 8.599653784E-01 -3.372659929E-02 2.915883784E-01
 8.886405724E-01 -3.920826129E-02 3.080339702E-01
 9.310497537E-01 -8.571113908E-03 3.643117724E-01
 8.815524684E-01 -1.962299185E-02 3.263180378E-01
 9.138230465E-01 -3.204648168E-02 3.274547468E-01
 9.127448051E-01 -1.415127247E-02 3.497536386E-01
 9.059072483E-01 -5.912175227E-02 2.963630335E-01
 9.389452393E-01 -5.314838876E-02 2.994950261E-01
 9.697177993E-01 -9.947035243E-02 2.494767951E-01
 9.913826521E-01 -5.490849075E-02 2.910240545E-01
 8.323295398E-01 -3.502560812E-02 2.644213736E-01
 6.952783258E-01 -5.104353222E-02 6.979860126E-02
 8.126139200E-01 -3.937543156E-02 2.379246978E-01
 9.225407194E-01 -8.314021720E-03 3.611545226E-01
 7.510981708E-01 -4.086217226E-02 1.574456236E-01
 4.868129751E-01 8.984728239E-02 -5.993397079E-01
 7.019427467E-02 -7.735568111E-02 -1.074612308E-01
 7.990746572E-02 -5.851892690E-02 -1.969426296E-01
 9.898090409E-02 -7.739775030E-02 -2.255323075E-01
 1.199041693E-01 -8.902620133E-02 -2.638856825E-01
 1.359279320E-01 -1.280015473E-01 -2.519848465E-01
 1.660316143E-01 -1.075139953E-01 -3.399449364E-01
 7.946351282E-02 -1.640369991E-01 -6.416428860E-02
 1.362948297E-01 -6.909159350E-02 -3.264957466E-01
 5.535155105E-02 -5.446083796E-02 -9.425434363E-02
 6.163603756E-02 -2.460517454E-01 2.102134169E-03
 2.312277000E-01 -2.933323382E-01 -2.335709546E-01
 1.479036637E-01 -8.882553709E-02 -3.219081435E-01
 1.727121828E-01 -7.425692188E-02 -3.898384429E-01
 1.941702100E-01 -9.581758195E-02 -4.004449625E-01
 1.934466033E-01 -1.381323989E-01 -3.436094392E-01
 2.266616943E-01 -1.075847427E-01 -4.395524100E-01
 2.508148373E-01 -7.554335931E-02 -5.282997938E-01
 2.088268066E-01 -7.937457346E-02 -4.548551681E-01
 2.577530990E-01 -9.930786157E-02 -5.016340918E-01
 2.361062613E-01 -8.599901112E-02 -4.870384786E-01
 8.954254903E-02 6.982142649E-02 -1.716065224E-01
 5.050824464E-02 6.466398513E-02 -3.452814591E-02
 3.155029522E-02 5.254878334E-02 3.202442052E-02
 -2.295652135E-03 3.445825039E-02 3.192209200E-01
 3.232993375E-03 1.531479316E-02 3.047721532E-01
 1.048464507E-02 1.596237118E-02 7.572434052E-02
 3.123996021E-02 2.943924972E-02 -4.166979290E-02
 -9.400761997E-03 1.116359316E-02 7.421149814E-01
 5.715474532E-02 4.206942428E-02 -1.320345494E-01
 8.951497537E-02 5.139225621E-02 -2.038292850E-01
 7.207253404E-01 -3.938638275E-02 1.139164019E-01
 9.423103234E-01 4.203782792E-02 3.618828458E-02
 8.055026106E-01 -2.547134588E-02 2.386509546E-01
 7.946308632E-01 -3.680064191E-02 2.174739773E-01
 3.861965503E-01 -8.913827774E-02 -6.555492944E-01
 3.672834635E-01 -9.202234919E-02 -6.500694030E-01
 3.459482132E-01 -1.104331507E-01 -5.944965717E-01
 3.304671301E-01 -8.968158935E-02 -6.162311554E-01
 3.043900159E-01 -9.996768212E-02 -5.671550170E-01
 2.969067813E-01 -8.231560905E-02 -5.851877559E-01
 3.662621333E-01 -1.425545575E-01 -5.455031638E-01
 5.783520444E-01 6.846140492E-02 -5.782165733E-01
 5.852565035E-01 8.307849496E-02 -5.554656977E-01
 6.030823192E-01 8.123867582E-02 -5.326401547E-01
 5.504844410E-01 8.437328351E-02 -5.927410984E-01
 6.934312649E-01 -3.750235295E-02 7.287851201E-02
 3.384847186E-02 -5.191585415E-02 8.184608090E-02
 5.132318530E-01 8.856767065E-02 -6.008070794E-01
 2.877651188E-01 7.357890023E-02 -4.711875354E-01
 2.762697777E-01 8.588623003E-02 -4.476323796E-01
 2.609465293E-01 7.993237807E-02 -4.343090157E-01
 8.904463504E-01 -1.145087196E-02 3.437564514E-01
 3.565992879E-01 9.224688414E-02 -5.172406989E-01
 3.254989724E-01 8.682525127E-02 -4.946027556E-01
 1.720562577E+00 -3.233419457E-01 2.436051148E-02
 6.693720112E-01 -4.515947172E-02 3.100822110E-02
 5.254609693E-01 7.288024680E-02 -6.186824038E-01
 5.324680693E-01 8.549082483E-02 -6.013633226E-01
 9.029132314E-01 2.859750251E-02 -6.841476228E-02
 1.191554048E-01 5.213775716E-02 -2.649353222E-01
 1.085319739E-01 6.576591812E-02 -2.203334264E-01
 7.710789477E-01 -2.552058942E-02 1.900833636E-01
 5.505991962E-01 6.976612063E-02 -6.102474070E-01
 7.126148264E-01 1.232035851E-01 -3.412912444E-01
 6.908043053E-01 9.508308899E-02 -3.852020892E-01
 7.235885355E-01 9.237278526E-02 -3.362363484E-01
 6.616227301E-01 8.194104212E-02 -4.385185583E-01
 6.374812575E-01 7.732433147E-02 -4.834596191E-01
 7.584867056E-01 8.698656261E-02 -2.955164966E-01
 5.013187959E-01 7.405321278E-02 -6.200859804E-01
 3.133974596E+00 6.339745962E-01 3.671266182E-04
 2.809453504E-01 -4.669437523E-01 -1.221676593E-01
 9.284615347E-01 2.735594534E-02 3.601353312E-03
 9.230795296E-01 4.129029844E-02 -1.175285780E-02
 6.360395478E-01 6.293372925E-02 -4.955847165E-01