TITLE     = "Visualization of the solution"
VARIABLES = "x"
"y"
"Pressure_Coefficient"
ZONE T="Zone"
 STRANDID=0, SOLUTIONTIME=0
 Nodes=714, Elements=1213, ZONETYPE=FEQuadrilateral
 DATAPACKING=POINT
 DT=(DOUBLE DOUBLE DOUBLE )
 9.995686412E-01 5.129497731E-04 2.929358588E-01
 9.874993563E-01 2.840258414E-03 2.652190257E-01
 9.746879935E-01 5.229366478E-03 1.656903809E-01
 9.593022466E-01 8.196406998E-03 1.069232384E-01
 9.446799755E-01 1.094912644E-02 6.155186127E-02
 9.299986959E-01 1.364668366E-02 2.514810110E-02
 9.186462760E-01 1.583487727E-02 -2.816015417E-02
 9.063581824E-01 1.811142266E-02 -5.471351355E-02
 8.941981792E-01 2.023333497E-02 -8.594232280E-02
 8.823161721E-01 2.235967293E-02 -1.193911528E-01
 8.699964881E-01 2.445446327E-02 -1.381688598E-01
 8.576820493E-01 2.647495456E-02 -1.709157995E-01
 8.456199169E-01 2.850098535E-02 -1.944692705E-01
 8.340888619E-01 3.025523014E-02 -2.065800469E-01
 8.226287961E-01 3.204395995E-02 -2.289459382E-01
 8.100812435E-01 3.393522650E-02 -2.464745314E-01
 7.972640395E-01 3.580871224E-02 -2.695605553E-01
 7.851026058E-01 3.757682070E-02 -2.890214696E-01
 7.726002336E-01 3.930637613E-02 -3.021229042E-01
 7.606348991E-01 4.094265029E-02 -3.221596526E-01
 7.476161122E-01 4.270157591E-02 -3.486271339E-01
 7.340093851E-01 4.449525476E-02 -3.718975412E-01
 7.232526541E-01 4.585696012E-02 -3.882722875E-01
 7.121613026E-01 4.722430184E-02 -4.038857589E-01
 7.004803419E-01 4.862183332E-02 -4.278204262E-01
 6.872212291E-01 5.019252002E-02 -4.482114171E-01
 6.740298271E-01 5.164423957E-02 -4.645458363E-01
 6.639941335E-01 5.272671953E-02 -4.928660852E-01
 6.527427435E-01 5.393472686E-02 -5.174899404E-01
 6.411626935E-01 5.507703871E-02 -5.345214047E-01
 6.293110251E-01 5.619413033E-02 -5.577823581E-01
 6.181300282E-01 5.721457675E-02 -5.788207411E-01
 6.073759198E-01 5.812491104E-02 -5.932107333E-01
 5.947909951E-01 5.912642926E-02 -6.082046017E-01
 5.831779242E-01 5.999187753E-02 -6.256368625E-01
 5.698805451E-01 6.090404466E-02 -6.467607392E-01
 5.576634407E-01 6.168608740E-02 -6.596277775E-01
 5.453571081E-01 6.235985830E-02 -6.679722539E-01
 5.343898535E-01 6.292240322E-02 -6.747099849E-01
 5.227866769E-01 6.344246864E-02 -6.749222397E-01
 5.101662278E-01 6.392922997E-02 -6.775190258E-01
 4.988989532E-01 6.429656595E-02 -6.815244442E-01
 4.857802689E-01 6.466364861E-02 -6.817953210E-01
 4.724333286E-01 6.493928283E-02 -6.725206275E-01
 4.582203031E-01 6.512679160E-02 -6.565646574E-01
 4.446780086E-01 6.522114575E-02 -6.464238563E-01
 4.318202734E-01 6.525798887E-02 -6.407306134E-01
 4.190062284E-01 6.521773338E-02 -6.330150896E-01
 4.065895677E-01 6.511146575E-02 -6.195576856E-01
 3.941697478E-01 6.491933763E-02 -6.050641227E-01
 3.819389641E-01 6.468226761E-02 -5.950582975E-01
 3.704630733E-01 6.440395862E-02 -5.849842544E-01
 3.574253619E-01 6.401761621E-02 -5.733421359E-01
 3.450090885E-01 6.358025223E-02 -5.585862275E-01
 3.321877718E-01 6.304766983E-02 -5.472984574E-01
 3.212438822E-01 6.255520135E-02 -5.356756292E-01
 3.085838258E-01 6.191762164E-02 -5.225446090E-01
 2.953934669E-01 6.117690355E-02 -5.094173746E-01
 2.815434635E-01 6.032079086E-02 -4.995563733E-01
 2.691000104E-01 5.948039144E-02 -4.883490113E-01
 2.571101189E-01 5.859860778E-02 -4.750748146E-01
 2.446268350E-01 5.760618299E-02 -4.627855665E-01
 2.321642935E-01 5.655144155E-02 -4.511141091E-01
 2.198674530E-01 5.542632937E-02 -4.366906052E-01
 2.082342803E-01 5.428897217E-02 -4.227677344E-01
 1.968070716E-01 5.309866369E-02 -4.092876941E-01
 1.844983101E-01 5.174625665E-02 -3.958948405E-01
 1.726205945E-01 5.034269020E-02 -3.816041934E-01
 1.612020880E-01 4.891694337E-02 -3.665329918E-01
 1.493347883E-01 4.733065143E-02 -3.503402662E-01
 1.386434883E-01 4.582112283E-02 -3.332106966E-01
 1.270927936E-01 4.409195855E-02 -3.132447312E-01
 1.156632900E-01 4.226934537E-02 -2.949836432E-01
 1.051040739E-01 4.046987370E-02 -2.738662305E-01
 9.523606300E-02 3.868181631E-02 -2.480871049E-01
 8.410930634E-02 3.652911633E-02 -2.165372290E-01
 7.233538479E-02 3.405987099E-02 -1.877715635E-01
 6.244978681E-02 3.181097284E-02 -1.553785242E-01
 5.259438604E-02 2.937457152E-02 -1.170582805E-01
 4.387724400E-02 2.701210603E-02 -7.992460331E-02
 3.643487021E-02 2.479833364E-02 -4.189028197E-02
 2.985198982E-02 2.266529202E-02 -9.427022726E-04
 2.423713729E-02 2.065493912E-02 3.672669403E-02
 2.021456137E-02 1.907906868E-02 8.555488961E-02
 1.640292443E-02 1.745004766E-02 1.206650829E-01
 1.351922564E-02 1.610455103E-02 1.602405547E-01
 1.088016108E-02 1.476021297E-02 2.051078222E-01
 8.951336145E-03 1.368912775E-02 2.241003428E-01
 7.246717345E-03 1.266402565E-02 3.158189211E-01
 5.658934824E-03 1.161915902E-02 3.338817533E-01
 3.565095598E-03 1.005751453E-02 3.906490634E-01
 1.770475646E-03 8.462658152E-03 4.347543456E-01
 2.701707999E-04 6.794901565E-03 8.036559993E-01
 -1.162378932E-03 4.520871677E-03 7.079916472E-01
 -1.775981160E-03 2.762257820E-03 1.119195078E+00
 -1.975498861E-03 1.357937581E-03 7.682067100E-01
 -1.886118320E-03 -1.842949860E-04 1.071615543E+00
 -1.454630168E-03 -1.814321382E-03 1.053725912E+00
 -5.203424953E-04 -3.721197369E-03 6.307726887E-01
 9.170082049E-04 -5.672467407E-03 5.816414819E-01
 2.923732391E-03 -7.707392797E-03 4.036201988E-01
 4.735567141E-03 -9.199082851E-03 2.870653256E-01
 6.834838074E-03 -1.069085579E-02 2.686348582E-01
 8.474917151E-03 -1.172965299E-02 2.288249148E-01
 1.055362355E-02 -1.292930637E-02 1.658187624E-01
 1.291537005E-02 -1.416634023E-02 1.191586349E-01
 1.620231569E-02 -1.572165638E-02 7.504621912E-02
 1.921026036E-02 -1.701722667E-02 2.960805771E-02
 2.307436615E-02 -1.853154413E-02 -2.266417077E-02
 2.843483724E-02 -2.042333409E-02 -5.862776049E-02
 3.422223404E-02 -2.226237208E-02 -1.044590137E-01
 4.146433249E-02 -2.432387508E-02 -1.371409815E-01
 4.908974469E-02 -2.628937736E-02 -1.671496006E-01
 5.806558579E-02 -2.838458680E-02 -1.921463818E-01
 6.695227325E-02 -3.027622215E-02 -2.135994435E-01
 7.718805224E-02 -3.228514269E-02 -2.324558238E-01
 8.720347285E-02 -3.410430253E-02 -2.506520013E-01
 9.756517410E-02 -3.584937379E-02 -2.668204657E-01
 1.085091978E-01 -3.756833449E-02 -2.804869175E-01
 1.199127138E-01 -3.924835101E-02 -2.952393948E-01
 1.315848231E-01 -4.085753858E-02 -3.075582123E-01
 1.424406022E-01 -4.226791486E-02 -3.220776917E-01
 1.536925435E-01 -4.364886507E-02 -3.356016134E-01
 1.658877730E-01 -4.505797848E-02 -3.511547034E-01
 1.776876748E-01 -4.632969201E-02 -3.660737420E-01
 1.897718012E-01 -4.755466804E-02 -3.799522745E-01
 2.005880177E-01 -4.858307913E-02 -3.953059786E-01
 2.121040225E-01 -4.960925132E-02 -4.109876506E-01
 2.245050818E-01 -5.063933134E-02 -4.286510729E-01
 2.371820807E-01 -5.159096792E-02 -4.474965617E-01
 2.497615218E-01 -5.247059092E-02 -4.663947116E-01
 2.623617947E-01 -5.325238034E-02 -4.867849696E-01
 2.735295594E-01 -5.387340859E-02 -5.061499959E-01
 2.862358093E-01 -5.447538197E-02 -5.219348874E-01
 2.988079786E-01 -5.498620123E-02 -5.404142934E-01
 3.115301728E-01 -5.539775640E-02 -5.598563676E-01
 3.232357800E-01 -5.568417534E-02 -5.771277186E-01
 3.357468545E-01 -5.589129403E-02 -5.913904570E-01
 3.465735018E-01 -5.598042905E-02 -6.065213739E-01
 3.578609824E-01 -5.596370250E-02 -6.139187095E-01
 3.687805235E-01 -5.586569011E-02 -6.167417639E-01
 3.795454502E-01 -5.568528175E-02 -6.216678498E-01
 3.908927739E-01 -5.536511540E-02 -6.131457370E-01
 4.038271308E-01 -5.490923300E-02 -5.968849906E-01
 4.160395563E-01 -5.431049690E-02 -5.768965725E-01
 4.289048314E-01 -5.359056592E-02 -5.479600464E-01
 4.413156211E-01 -5.275110155E-02 -5.190028946E-01
 4.534296095E-01 -5.183100328E-02 -4.840937863E-01
 4.652245641E-01 -5.082380772E-02 -4.469733096E-01
 4.774758518E-01 -4.967470467E-02 -4.091377843E-01
 4.888869226E-01 -4.852057621E-02 -3.711978452E-01
 5.012860894E-01 -4.717664421E-02 -3.318906096E-01
 5.148264170E-01 -4.561886936E-02 -2.881245779E-01
 5.282607675E-01 -4.400721937E-02 -2.473080186E-01
 5.414506197E-01 -4.232954234E-02 -2.095153434E-01
 5.544656515E-01 -4.067426175E-02 -1.754258604E-01
 5.675778389E-01 -3.894460574E-02 -1.474663181E-01
 5.804758072E-01 -3.719454259E-02 -1.149509286E-01
 5.924254060E-01 -3.555254266E-02 -8.261058681E-02
 6.049135327E-01 -3.383580968E-02 -5.608244562E-02
 6.188198924E-01 -3.191531077E-02 -2.997382383E-02
 6.332404017E-01 -2.990488522E-02 -2.323755384E-03
 6.475569606E-01 -2.788846381E-02 2.721063193E-02
 6.609056592E-01 -2.606394701E-02 4.930427789E-02
 6.742662191E-01 -2.420808189E-02 6.830661582E-02
 6.868900657E-01 -2.247940190E-02 9.247565629E-02
 6.993439198E-01 -2.080623247E-02 1.103556467E-01
 7.137445807E-01 -1.886722632E-02 1.297919436E-01
 7.268041372E-01 -1.714968868E-02 1.512468535E-01
 7.387039661E-01 -1.560974494E-02 1.672084679E-01
 7.513594627E-01 -1.396852918E-02 1.868772262E-01
 7.638047934E-01 -1.244082209E-02 2.035385057E-01
 7.766063213E-01 -1.086021122E-02 2.200256692E-01
 7.886127830E-01 -9.472643025E-03 2.370550154E-01
 8.012350798E-01 -8.019374683E-03 2.514211028E-01
 8.122252822E-01 -6.810377818E-03 2.676829367E-01
 8.236116171E-01 -5.585018080E-03 2.849237976E-01
 8.365194798E-01 -4.314041231E-03 2.988471350E-01
 8.489162922E-01 -3.159655491E-03 3.125047507E-01
 8.611688614E-01 -2.125947969E-03 3.274766525E-01
 8.728745580E-01 -1.223281608E-03 3.386649863E-01
 8.850657344E-01 -4.190565378E-04 3.485421032E-01
 8.984714746E-01 3.299827222E-04 3.550411884E-01
 9.086799026E-01 7.958454662E-04 3.633971018E-01
 9.191970825E-01 1.167684561E-03 3.658098417E-01
 9.286164045E-01 1.411213423E-03 3.682481262E-01
 9.376007915E-01 1.561659039E-03 3.677071725E-01
 9.494405389E-01 1.643366879E-03 3.682952860E-01
 9.624000788E-01 1.586523722E-03 3.621076588E-01
 9.762657881E-01 1.355517772E-03 3.700825718E-01
 9.888026118E-01 1.000048826E-03 3.787979307E-01
 -5.000000000E-01 -1.000000000E+00 5.005525874E-02
 3.500000000E+00 -1.000000000E+00 1.233937986E-02
 3.500000000E+00 1.000000000E+00 -1.959086409E-03
 -5.000000000E-01 1.000000000E+00 4.275934101E-02
 -5.000000000E-01 5.000000000E-01 9.728634909E-02
 -5.000000000E-01 2.752797990E-12 1.412391568E-01
 -5.000000000E-01 -5.000000000E-01 9.598947323E-02
 -9.421907698E-13 -1.000000000E+00 2.469641776E-02
 5.000000000E-01 -1.000000000E+00 -1.382491085E-02
 1.000000000E+00 -1.000000000E+00 1.602698947E-03
 1.500000000E+00 -1.000000000E+00 3.500875398E-02
 2.000000000E+00 -1.000000000E+00 3.106174761E-02
 2.500000000E+00 -1.000000000E+00 2.056465014E-02
 3.000000000E+00 -1.000000000E+00 1.449735484E-02
 3.500000000E+00 -5.000000000E-01 1.319632850E-02
 3.500000000E+00 -2.752797990E-12 1.262334593E-02
 3.500000000E+00 5.000000000E-01 5.190269418E-03
 3.000000000E+00 1.000000000E+00 -7.868428358E-03
 2.500000000E+00 1.000000000E+00 -1.699314824E-02
 2.000000000E+00 1.000000000E+00 -3.516613909E-02
 1.500000000E+00 1.000000000E+00 -7.714081866E-02
 1.000000000E+00 1.000000000E+00 -1.378903171E-01
 5.000000000E-01 1.000000000E+00 -9.494054550E-02
 1.733724275E-12 1.000000000E+00 8.372756292E-03
 6.830696024E-01 -3.281154331E-02 7.987425473E-02
 7.849554159E-01 -1.879838852E-02 2.253259534E-01
 9.051039535E-01 -1.073234222E-02 3.457830032E-01
 7.083675595E-01 5.687910440E-02 -4.066941564E-01
 2.779969640E-01 -6.580424770E-02 -4.926382889E-01
 2.728614744E-01 7.270408472E-02 -4.763448985E-01
 9.143763520E-01 3.138297895E-02 -3.203698678E-02
 5.766675206E-01 -5.011009084E-02 -1.218851081E-01
 8.065124615E-01 4.606188150E-02 -2.490716480E-01
 6.007047352E-01 6.790800523E-02 -5.917004176E-01
 4.116716014E-01 -6.400451075E-02 -5.665492632E-01
 4.242993621E-01 7.821093183E-02 -6.174671241E-01
 1.832390697E+00 -6.052196846E-01 2.955064292E-02
 1.768730961E+00 5.652679652E-01 -1.769026446E-02
 3.031174212E+00 2.156846340E-01 5.403203922E-03
 7.565524478E-01 -6.121358157E-01 2.064012608E-03
 4.852273117E-01 -5.799993259E-02 -3.720951353E-01
 7.344494493E-01 5.121567428E-01 -2.250074913E-01
 5.058767874E-01 7.303333285E-02 -6.677757601E-01
 3.333237841E-01 6.150943073E-01 -1.725044215E-01
 1.191670513E-01 5.548679396E-02 -2.801727367E-01
 1.767541471E-01 6.518296238E-02 -3.684540360E-01
 3.494747660E-01 7.312473992E-02 -5.521183320E-01
 2.734851359E+00 -5.326882383E-01 1.237161176E-02
 1.212751124E+00 7.353555425E-01 -8.554576966E-02
 9.848382858E-01 3.105709228E-01 -5.230043372E-02
 1.271018364E+00 -6.099764801E-01 5.282203801E-02
 1.501342614E+00 -2.425149840E-01 3.826477218E-02
 2.183430550E-01 -5.790155211E-01 -5.577438398E-02
 7.980178588E-02 -4.246944594E-02 -2.151027399E-01
 1.393711620E-01 -5.202688029E-02 -3.065480475E-01
 1.906030993E-01 -5.824147218E-02 -3.683469608E-01
 2.248279254E+00 -5.895910953E-01 1.807818951E-02
 1.982560031E+00 -2.214358965E-01 1.485418700E-02
 2.413055456E+00 -1.883105239E-01 8.139453048E-03
 2.184631973E+00 1.582519557E-01 -1.575286136E-05
 1.781047814E+00 1.291569008E-01 3.207529482E-03
 -2.710486798E-01 -2.546633696E-01 1.553332989E-01
 -1.605903190E-01 -5.715923149E-01 6.078692468E-02
 -2.659198457E-01 2.088621495E-01 1.631910743E-01
 -1.527864687E-01 6.895055082E-01 3.750314875E-02
 3.130412840E-02 3.084027421E-01 2.808007564E-02
 4.563699201E-02 3.717668102E-02 -6.023631535E-02
 2.191350559E+00 6.008485688E-01 -1.174266738E-02
 2.738055851E+00 6.037935961E-01 -3.485942963E-03
 -2.457604582E-01 -3.541390220E-03 2.075192623E-01
 -1.412861866E-01 -1.293808128E-01 2.324919147E-01
 3.290739130E-02 -3.081530873E-02 -4.647425693E-02
 3.233135211E-02 -3.714092252E-01 2.142670524E-02
 2.783495329E-01 -3.165194660E-01 -1.924432333E-01
 3.533682777E-01 -6.442149930E-02 -5.944480445E-01
 3.161471423E-01 -6.731233507E-02 -5.464399840E-01
 -1.178525027E-01 9.693357092E-02 2.580494080E-01
 -1.201853300E-01 -7.150575701E-03 3.042197436E-01
 -5.639648663E-02 -6.724924838E-02 3.592716452E-01
 -4.993937371E-02 -1.504066321E-01 1.938140963E-01
 2.274528067E-03 -9.372291863E-02 1.901496814E-01
 2.690955428E-02 -2.001532306E-01 4.010086262E-02
 1.738167140E-02 -1.969040047E-02 7.139302695E-02
 6.604034985E-02 -1.070855986E-01 -6.059837429E-02
 1.147891072E-01 -1.574084917E-01 -1.412396834E-01
 -1.529805781E-02 -5.271033564E-02 3.704463201E-01
 -5.914635790E-02 -8.777504862E-03 4.763057200E-01
 1.184867052E-01 -9.961589942E-02 -2.150686461E-01
 1.102543063E-01 -5.040372390E-02 -2.655704372E-01
 1.747998817E-01 -1.237933106E-01 -2.707484856E-01
 2.404222318E-01 -6.525744629E-02 -4.346576165E-01
 1.804106948E-01 -1.765888217E-01 -2.323038497E-01
 2.353175777E-01 -1.469187532E-01 -3.307502452E-01
 1.271293230E-01 -2.468941461E-01 -1.048944180E-01
 2.220720398E-01 -1.047754919E-01 -3.593529611E-01
 2.182352614E-01 -6.256922822E-02 -4.052234493E-01
 2.647160098E-01 -1.079665635E-01 -4.145750262E-01
 2.920478045E-01 -1.522696610E-01 -3.924105095E-01
 3.075484521E-01 -1.057278511E-01 -4.736523604E-01
 3.479710518E-01 -1.398644519E-01 -4.508878185E-01
 3.222667673E-01 -2.156436761E-01 -3.354075270E-01
 3.947502162E-01 -1.928567902E-01 -3.633823957E-01
 4.022479415E-01 -1.353016003E-01 -4.521420444E-01
 4.597815871E-01 -1.709915343E-01 -3.238200472E-01
 4.468985490E-01 -2.582095237E-01 -2.516631713E-01
 5.279923550E-01 -2.135621931E-01 -1.724681098E-01
 6.263493974E-01 -4.906023599E-02 -1.824432644E-02
 4.471837996E-01 -6.423878318E-02 -4.825947120E-01
 5.415434442E-01 -1.302228873E-01 -1.827263411E-01
 6.146582410E-01 -1.707581332E-01 -4.812062444E-02
 5.351902507E-01 -6.006122459E-02 -2.198229800E-01
 5.251369643E-01 -3.052531924E-01 -1.570712592E-01
 5.966566435E-01 -1.112942803E-01 -8.125631294E-02
 4.860075855E-01 -1.216886669E-01 -3.057150459E-01
 4.421819035E-01 -1.049156492E-01 -4.319269726E-01
 5.659577453E-01 -9.033962216E-02 -1.405242961E-01
 3.732128134E-01 -1.004945374E-01 -5.258096832E-01
 3.846671959E-01 -6.667862313E-02 -5.935668946E-01
 3.410127578E-01 -9.498107613E-02 -5.231245258E-01
 1.575118696E-01 -8.613870877E-02 -2.884292113E-01
 1.706863877E-01 -5.591284990E-02 -3.437337356E-01
 3.109362424E+00 -2.612719746E-01 1.122269000E-02
 2.423707332E-01 -2.249946223E-01 -2.483032238E-01
 6.265795404E-01 -2.743419930E-01 -4.919819532E-02
 7.023338228E-01 -2.126140835E-01 4.988325941E-02
 8.437114166E-01 -1.440625641E-02 2.975711835E-01
 8.178636401E-01 -1.758901577E-02 2.656694135E-01
 7.364114994E-01 -2.861816796E-02 1.580590833E-01
 7.574611443E-01 -2.269051916E-02 1.893254617E-01
 8.687781642E-01 -1.452607143E-02 3.189405712E-01
 6.723616327E-01 -1.382159741E-01 3.916233819E-02
 7.517021376E-01 -1.408580484E-01 1.149292115E-01
 8.080293069E-01 -2.229792011E-01 1.317403942E-01
 9.701556599E-01 -1.107780532E-02 3.518085516E-01
 9.414759227E-01 -8.028953618E-03 3.557224816E-01
 8.715703400E-01 -1.480965742E-01 1.994227468E-01
 9.071678626E-01 -2.298737885E-01 1.608287299E-01
 9.499767743E-01 -1.438442715E-01 2.145732475E-01
 1.005398368E+00 -2.412135302E-01 1.457684775E-01
 1.085033388E+00 -1.495709407E-01 1.492769324E-01
 7.474407945E-01 -3.222136446E-01 5.223617540E-02
 1.125063739E+00 -2.395909164E-01 1.156531881E-01
 1.205952439E+00 -1.494607899E-01 9.597638567E-02
 1.139807532E+00 -4.517820183E-02 1.160996743E-01
 1.283500708E+00 -3.787830396E-02 6.402641669E-02
 1.207368369E+00 8.637572388E-02 7.066837085E-02
 1.339577238E+00 1.084544213E-01 3.443334040E-02
 1.293167620E+00 2.790527033E-01 2.374997084E-02
 9.047336104E-01 -8.700401109E-02 2.618495767E-01
 9.791468120E-01 -8.444307852E-02 2.504565669E-01
 8.503547744E-01 -8.423301182E-02 2.400098848E-01
 1.097064188E+00 -4.037288833E-01 9.172038459E-02
 7.113601245E-01 -9.314587902E-02 9.318005623E-02
 7.762737903E-01 -8.394877365E-02 1.762928892E-01
 6.608002786E-01 -8.585356545E-02 3.403949572E-02
 6.548642444E-01 -4.011579501E-02 3.518541237E-02
 9.430674989E-01 -5.315499966E-02 2.967579511E-01
 8.754490561E-01 -5.325461101E-02 2.828132938E-01
 9.084565457E-01 -4.105180584E-02 3.087215317E-01
 1.515836119E+00 2.663121337E-01 8.230276650E-03
 1.281581820E+00 -2.954170381E-01 6.909987003E-02
 7.429614279E-01 -6.817221265E-02 1.459957774E-01
 7.094532222E-01 -3.602664759E-02 1.171509665E-01
 1.091343847E+00 5.273647452E-02 1.157637882E-01
 9.712571791E-01 1.915060323E-02 1.252466693E-01
 1.097858781E+00 2.118096591E-01 3.547048806E-02
 9.480735914E-01 1.965485175E-01 -4.572343106E-02
 8.540921762E-01 3.940934340E-02 -1.729507107E-01
 8.778531554E-01 3.387182903E-02 -1.227854483E-01
 8.304504846E-01 4.327055956E-02 -2.112915971E-01
 8.556019109E-01 2.790286809E-01 -1.519289024E-01
 8.072014444E-01 1.902445939E-01 -2.151864364E-01
 7.418475336E-01 2.457377664E-01 -2.925868434E-01
 6.469918827E-01 6.645229975E-02 -5.152679533E-01
 7.559846002E-01 5.285413225E-02 -3.276703087E-01
 7.824701095E-01 5.341844515E-02 -2.851171153E-01
 7.093692866E-01 1.603073228E-01 -3.603873946E-01
 6.323760639E-01 2.215176359E-01 -4.098821499E-01
 5.509980049E-01 7.384390225E-02 -6.500201235E-01
 5.299268111E-01 7.210014550E-02 -6.622455992E-01
 8.913385402E-01 1.298988777E-01 -9.504588473E-02
 6.446857649E-01 1.459521452E-01 -4.567699125E-01
 7.727503066E-01 1.248968984E-01 -2.762063258E-01
 6.425989854E-01 3.091978877E-01 -3.562713255E-01
 5.395183147E-01 3.025704611E-01 -4.016709274E-01
 6.811494923E-01 1.155103173E-01 -4.187034526E-01
 6.799119715E-01 6.631888554E-02 -4.490580364E-01
 5.643553226E-01 4.450396907E-01 -2.881167740E-01
 3.966089996E-01 3.675982041E-01 -3.209823104E-01
 3.923534965E-01 2.257978855E-01 -4.355978445E-01
 5.035773422E-01 1.818844915E-01 -5.296727332E-01
 4.636863177E-01 7.718116459E-02 -6.460390558E-01
 2.862641491E-01 2.925612510E-01 -2.982087601E-01
 2.993880890E-01 1.793308188E-01 -3.904093731E-01
 2.231249775E-01 6.763969959E-02 -4.276873224E-01
 2.039904883E-01 6.486252465E-02 -4.074474771E-01
 1.929937815E-01 2.166801113E-01 -2.555878614E-01
 3.128025636E-01 7.598007801E-02 -5.123882683E-01
 3.641436679E-01 1.537549931E-01 -4.881272884E-01
 3.868836837E-01 7.817697241E-02 -5.839735407E-01
 2.277639983E-01 1.455139432E-01 -3.519249794E-01
 1.352460715E-01 1.556671259E-01 -1.959032366E-01
 3.199980588E-01 1.263093073E-01 -4.691957898E-01
 1.820460995E-01 1.159842147E-01 -3.146721300E-01
 1.007189719E+00 -6.212132794E-01 5.494847746E-02
 6.461047874E-01 1.040796545E-01 -4.891867867E-01
 6.257281963E-01 7.064088646E-02 -5.520217030E-01
 6.003826792E-01 1.145667368E-01 -5.475895350E-01
 5.751715278E-01 7.312661354E-02 -6.242640723E-01
 5.972222408E-01 1.672326730E-01 -4.992401838E-01
 5.516564080E-01 1.367231834E-01 -5.623895480E-01
 5.964210855E-01 -4.166375153E-01 -6.980854383E-02
 5.025464719E-01 -6.017133306E-01 -8.674031477E-02
 1.070718150E+00 -1.917107515E-02 1.583903426E-01
 8.995936076E-01 -3.817201558E-01 1.037055361E-01
 6.247617262E-01 -7.966612233E-02 -2.596749514E-02
 5.994389180E-01 -4.701783109E-02 -6.965657642E-02
 6.894610974E-01 -6.774117460E-02 7.409613825E-02
 8.432777103E-01 -4.790520033E-02 2.639259596E-01
 5.666803657E-01 1.059878117E-01 -5.990384595E-01
 5.375030791E-01 1.034289468E-01 -6.184964330E-01
 3.789713542E-02 -7.329410228E-02 3.841442922E-02
 6.208018142E-02 -3.823473866E-02 -1.733431781E-01
 1.589707118E-02 -5.124109085E-02 1.543591978E-01
 -2.568720152E-02 -2.110873520E-02 5.989905154E-01
 4.709598439E-03 -1.145859415E-02 3.430730168E-01
 4.195048635E-01 -3.926396614E-01 -1.679831360E-01
 3.279197971E-01 -6.490563390E-02 -5.652977295E-01
 9.551761838E-01 -1.053580610E-02 3.486511811E-01
 9.610915414E-01 -2.847694220E-02 3.247753689E-01
 9.830930675E-01 -2.583635226E-02 3.132467164E-01
 3.541671570E-01 1.131218016E-01 -5.144901645E-01
 4.004040173E-01 1.169314782E-01 -5.503645627E-01
 4.757752736E-01 -8.767761837E-02 -3.685355093E-01
 5.079102241E-01 -9.489898489E-02 -2.767548669E-01
 5.093431253E-01 -5.758337174E-02 -3.020536551E-01
 1.475087065E+00 -3.506396278E-02 3.080119703E-02
 3.392113627E-01 7.249211930E-02 -5.422844552E-01
 7.133406844E-01 -5.914224681E-02 1.135915727E-01
 5.168706256E-01 7.390573164E-02 -6.625918889E-01
 5.115027579E-01 8.993722732E-02 -6.438348167E-01
 5.074395708E-01 1.265523477E-01 -5.969609843E-01
 4.680201383E-01 1.459168653E-01 -5.655710186E-01
 4.827260607E-01 1.037722951E-01 -6.259297840E-01
 4.457444353E-01 1.082742240E-01 -5.963622966E-01
 4.491057858E-01 8.736793934E-02 -6.259431517E-01
 8.086566833E-01 -5.979421403E-02 2.272185163E-01
 3.620563752E-01 7.707656618E-02 -5.598648394E-01
 1.043800892E+00 -7.316667709E-02 2.010304113E-01
 4.051622746E-01 -1.002337388E-01 -5.072501234E-01
 2.928036012E-01 -6.705954004E-02 -5.126921955E-01
 2.853300447E-01 -8.432722645E-02 -4.751932472E-01
 2.647128056E-01 -7.817593766E-02 -4.534205288E-01
 3.045692623E-01 -8.157674759E-02 -5.099427148E-01
 3.233893297E-01 -7.995105823E-02 -5.324250049E-01
 5.365992185E-01 -8.623355143E-02 -2.059627732E-01
 5.633266296E-01 7.125799593E-02 -6.422595804E-01
 9.161450461E-01 -8.184883959E-03 3.530273744E-01
 4.768518475E-01 8.035571539E-02 -6.534477641E-01
 3.431430059E-01 8.938090040E-02 -5.316466948E-01
 3.750732750E-01 9.507355613E-02 -5.548835024E-01
 4.729609856E-01 -6.543609515E-02 -4.013673010E-01
 4.936061126E-01 7.934313087E-02 -6.620243255E-01
 3.283384550E-01 7.645990730E-02 -5.273717712E-01
 3.226456166E-01 9.528044403E-02 -5.050022808E-01
 2.997911381E-01 9.286694106E-02 -4.801601858E-01
 2.780725660E-01 1.231043369E-01 -4.292020229E-01
 2.482450009E-01 1.039849758E-01 -4.165707091E-01
 2.491801134E-01 7.051905008E-02 -4.541508412E-01
 2.152322065E-01 1.026188721E-01 -3.821134613E-01
 3.047716315E-01 -6.526651606E-02 -5.336160035E-01
 3.011245601E-01 7.280032180E-02 -5.037319488E-01
 6.115378106E-01 -4.451379282E-02 -4.538979210E-02
 1.651961961E-01 3.375286527E-01 -1.394130564E-01
 8.315573916E-01 -1.702070419E-02 2.832763714E-01
 8.249440140E-01 -3.386066037E-02 2.576992580E-01
 8.047198066E-01 -3.238542694E-02 2.402093801E-01
 7.857220789E-01 -4.683675524E-02 2.061790550E-01
 8.575675517E-01 -2.991947144E-02 2.970161482E-01
 5.618768989E-01 -5.273391069E-02 -1.554425941E-01
 5.741347738E-01 -6.765715154E-02 -1.271187040E-01
 5.538584230E-01 -6.829978510E-02 -1.727881714E-01
 5.909018722E-01 -5.935783570E-02 -9.123987077E-02
 4.235705560E-01 -6.501913560E-02 -5.396053560E-01
 4.154337875E-01 -7.981695256E-02 -5.288461160E-01
 4.366266368E-01 -7.582369404E-02 -4.930296651E-01
 4.952022519E-01 -5.690404899E-02 -3.429948050E-01
 3.637928393E-01 -6.569498443E-02 -5.961868943E-01
 3.578384275E-01 -7.816929018E-02 -5.683402699E-01
 -4.038676171E-03 -3.260143390E-02 4.493577251E-01
 3.409053680E-01 -6.920717755E-02 -5.715787844E-01
 7.735395198E-01 -2.628581837E-02 2.081686586E-01
 8.560284572E-01 -1.282748055E-02 3.107518144E-01
 3.744408095E-01 -7.729868398E-02 -5.758193727E-01
 7.476351414E-01 -2.408795377E-02 1.746390845E-01
 7.542396342E-01 -3.955280761E-02 1.755023908E-01
 7.234135568E-01 -2.922436258E-02 1.401521582E-01
 6.691305304E-01 -3.625568254E-02 6.000444096E-02
 6.681740524E-01 -5.581465109E-02 5.012145817E-02
 6.452495577E-01 -5.740653125E-02 1.452942978E-02
 8.832346168E-01 -2.638107844E-02 3.149920373E-01
 5.395202532E-01 7.200470049E-02 -6.595793268E-01
 8.801645095E-01 -1.072964428E-02 3.323904301E-01
 6.086795170E-01 -6.053415942E-02 -5.318065941E-02
 2.543178420E-01 -6.676752710E-02 -4.545113526E-01
 2.665837932E-01 -6.357470028E-02 -4.790140773E-01
 6.414521124E-01 -4.087518226E-02 1.085221150E-02
 9.027447003E-02 -7.809949491E-02 -1.817636913E-01
 9.283364337E-01 -3.081198121E-02 3.283500159E-01
 4.357516212E-01 -6.344762973E-02 -5.161042513E-01
 6.202552479E-01 8.729669369E-02 -5.438524133E-01
 6.662699252E-02 -6.923415563E-02 -1.247967392E-01
 4.680268038E-02 -5.159556294E-02 -7.070922979E-02
 2.187359019E-02 -3.371516595E-02 5.813750156E-02
 2.492552819E-02 -2.447438479E-02 4.460356186E-03
 4.588711405E-01 -6.188488721E-02 -4.497645988E-01
 4.388283882E-01 7.693905209E-02 -6.289175361E-01
 5.215795867E-01 -5.623216130E-02 -2.605939362E-01
 9.325184953E-02 -5.693935131E-02 -2.133299964E-01
 1.115279475E-01 -6.758533042E-02 -2.362515108E-01
 5.879819048E-01 -4.584656857E-02 -9.487284555E-02
 6.945659999E-01 -3.242817120E-02 9.753902179E-02
 3.752830743E-01 7.588266419E-02 -5.749322827E-01
 1.001224302E-01 -4.501560894E-02 -2.567370751E-01
 6.708979359E-01 8.668974924E-02 -4.539784468E-01
 6.987343912E-01 8.475388197E-02 -4.073022679E-01
 7.255867165E-01 1.088218313E-01 -3.553480715E-01
 7.286741373E-01 8.098169590E-02 -3.616125026E-01
 7.303852514E-01 6.021868239E-02 -3.702245811E-01
 7.627841735E-01 8.742579357E-02 -3.073714969E-01
 8.050699121E-01 9.177726360E-02 -2.375450659E-01
 7.436398686E-01 5.379129307E-02 -3.521057008E-01
 6.669697362E-01 7.090924978E-02 -4.734799931E-01
 4.009888123E-01 7.878217887E-02 -5.957546732E-01
 4.124375052E-01 9.626925896E-02 -5.944721889E-01
 4.126642951E-01 7.671831376E-02 -6.092271772E-01
 5.493683688E-01 -5.281974489E-02 -1.865841312E-01
 1.116245940E-01 2.325577932E-01 -1.009920573E-01
 4.361581080E-02 1.808568863E-01 3.050261363E-02
 7.530166715E-02 4.546651830E-02 -1.717418282E-01
 9.364185093E-02 1.089782801E-01 -1.487959528E-01
 3.591269182E-02 9.383056457E-02 9.238336350E-02
 1.706184480E-02 2.118209134E-02 1.423873019E-01
 -2.910501348E-02 1.346550576E-01 2.225672175E-01
 -2.820225568E-02 7.736620753E-02 3.403245335E-01
 -7.968076599E-02 2.239980602E-01 1.441805242E-01
 -1.468518079E-01 4.056978110E-01 8.678851965E-02
 1.404361450E-02 6.073521088E-02 2.307949475E-01
 3.291826637E-02 3.042233010E-02 2.284458193E-03
 -1.171407619E-02 3.822673357E-02 4.522256174E-01
 8.980419661E-03 1.633758662E-02 2.724402339E-01
 -6.170148879E-02 3.500997148E-02 4.186946208E-01
 -2.521745575E-02 9.243499442E-03 7.433196297E-01
 7.035104804E-02 8.074773593E-02 -1.016022499E-01
 9.778152337E-02 5.119380767E-02 -2.335528892E-01
 3.743192251E-01 -6.509818590E-02 -6.011252894E-01
 2.552407071E+00 2.122690973E-01 1.922521624E-04
 3.688383856E-01 -2.711290806E-01 -2.819536421E-01
 7.188720519E-01 5.599126095E-02 -3.905404121E-01
 1.693077735E+00 -1.284540775E-01 2.069492612E-02
 8.064219153E-01 -1.669351434E-02 2.524626114E-01
 7.963220418E-01 -1.969842872E-02 2.387086602E-01
 4.181191092E-01 1.585224376E-01 -5.269743431E-01
 7.304049492E-01 -4.472975869E-02 1.439890754E-01
 4.201105917E-02 6.709469452E-02 9.345956022E-03
 5.781518806E-02 5.126081169E-02 -8.862990786E-02
 3.288686537E-02 4.521066025E-02 4.187393708E-02
 1.359839458E-02 4.024597103E-02 2.410826953E-01
 8.338833514E-02 6.062521797E-02 -1.670240387E-01
 1.015111996E-01 6.857524092E-02 -2.147237947E-01
 1.247885819E-01 7.517400940E-02 -2.670196727E-01
 1.545627090E-01 6.059144422E-02 -3.394659040E-01
 1.439800528E-01 5.593617276E-02 -3.292979572E-01
 1.332662158E-01 5.798514678E-02 -3.075948925E-01
 1.078454276E-01 5.159901233E-02 -2.623630631E-01
 1.888139534E-01 -9.291302790E-02 -3.248647880E-01
 1.546913564E-01 -6.360329445E-02 -3.120625147E-01
 1.432205981E+00 5.629256545E-01 -1.706600133E-02
 5.935153797E-01 -7.814152857E-02 -8.496084368E-02
 8.921454277E-01 -1.204360779E-02 3.370282711E-01
 9.010845308E-01 -2.265342287E-02 3.312121091E-01
 4.948551612E-01 -7.057641387E-02 -3.322834946E-01
 2.346622006E-01 8.216377246E-02 -4.240419819E-01
 2.424385637E-01 -8.684606693E-02 -4.166844549E-01
 1.030875503E+00 -3.403101312E-02 2.315898656E-01
 1.033636746E+00 6.644049145E-03 2.018875189E-01
 1.022368876E+00 6.363582967E-02 1.344665530E-01
 1.006113071E+00 -1.849411001E-02 2.882265011E-01
 1.000402766E+00 -4.796594647E-02 2.679958385E-01
 6.983737902E-01 6.308116681E-02 -4.224625152E-01
 8.116230951E-01 -1.189984171E-01 1.846749928E-01
 2.534730467E-01 4.232401643E-01 -1.907578530E-01
 6.162891703E-01 6.482929630E-01 -2.116601974E-01
 5.888683082E-01 7.207179094E-02 -6.040000942E-01
 6.000776392E-01 8.325463823E-02 -5.766916225E-01
 2.133518084E-02 3.042548828E-02 1.111657103E-01
 1.343025698E-01 -6.983170289E-02 -2.709006925E-01
 3.951574587E-01 9.304668890E-02 -5.766012441E-01
 7.852178741E-01 7.282968554E-02 -2.737988558E-01
 7.674541990E-01 6.431995754E-02 -3.048544596E-01
 7.487395019E-01 6.719522891E-02 -3.363442718E-01