TITLE     = "Visualization of the solution"
VARIABLES = "x"
"y"
"Pressure_Coefficient"
ZONE T="Zone"
 STRANDID=0, SOLUTIONTIME=0
 Nodes=717, Elements=1219, ZONETYPE=FEQuadrilateral
 DATAPACKING=POINT
 DT=(DOUBLE DOUBLE DOUBLE )
 1.000019908E+00 5.205644411E-04 2.900626601E-01
 9.883115292E-01 2.671900438E-03 2.420058826E-01
 9.763095379E-01 4.858564120E-03 1.625194212E-01
 9.618784785E-01 7.499902509E-03 1.138967671E-01
 9.477530718E-01 1.005263999E-02 5.492479414E-02
 9.340168238E-01 1.256849896E-02 8.039478225E-03
 9.226077795E-01 1.463108696E-02 -2.939526686E-02
 9.099837542E-01 1.682436280E-02 -7.092033015E-02
 8.984286785E-01 1.883456483E-02 -1.073275321E-01
 8.860674500E-01 2.086199820E-02 -1.347048697E-01
 8.736984134E-01 2.282711491E-02 -1.562580692E-01
 8.613872528E-01 2.469103225E-02 -1.782776905E-01
 8.487222791E-01 2.659296989E-02 -2.024470606E-01
 8.372436166E-01 2.823998407E-02 -2.114638541E-01
 8.251879215E-01 2.989272960E-02 -2.258649167E-01
 8.123140335E-01 3.167818487E-02 -2.440443208E-01
 7.991501689E-01 3.342073411E-02 -2.586149988E-01
 7.866920233E-01 3.504073620E-02 -2.746617811E-01
 7.740441561E-01 3.664879501E-02 -2.896816016E-01
 7.617696524E-01 3.817595541E-02 -3.053425249E-01
 7.483739853E-01 3.980397806E-02 -3.236624688E-01
 7.342941165E-01 4.148430005E-02 -3.417103564E-01
 7.232538462E-01 4.276169837E-02 -3.614526316E-01
 7.122969031E-01 4.402393475E-02 -3.807111965E-01
 7.004131079E-01 4.532928020E-02 -3.976280766E-01
 6.867592931E-01 4.678501189E-02 -4.171486704E-01
 6.734753847E-01 4.815051332E-02 -4.361911565E-01
 6.634081602E-01 4.914420471E-02 -4.560528880E-01
 6.518821716E-01 5.026022345E-02 -4.771343670E-01
 6.403749585E-01 5.132225901E-02 -4.943054039E-01
 6.283949614E-01 5.236527696E-02 -5.143966179E-01
 6.172363758E-01 5.330682918E-02 -5.335800143E-01
 6.063290238E-01 5.416232720E-02 -5.471930615E-01
 5.934890509E-01 5.510768294E-02 -5.621265754E-01
 5.816105008E-01 5.591752753E-02 -5.767207074E-01
 5.681911707E-01 5.677333102E-02 -5.889781367E-01
 5.555745959E-01 5.748320371E-02 -6.010642070E-01
 5.433432460E-01 5.812396482E-02 -6.117121624E-01
 5.323666334E-01 5.861911178E-02 -6.213646098E-01
 5.207911730E-01 5.910860375E-02 -6.284385068E-01
 5.081489086E-01 5.954302847E-02 -6.337972619E-01
 4.972287714E-01 5.988134071E-02 -6.326025197E-01
 4.840229154E-01 6.018678844E-02 -6.259178536E-01
 4.709606171E-01 6.041950732E-02 -6.179800573E-01
 4.567358792E-01 6.057644263E-02 -6.099506985E-01
 4.432150722E-01 6.064427271E-02 -6.047088795E-01
 4.304950535E-01 6.064884737E-02 -5.955987670E-01
 4.175859988E-01 6.055918708E-02 -5.876989037E-01
 4.054132700E-01 6.043529883E-02 -5.792538930E-01
 3.932843208E-01 6.023199484E-02 -5.671994922E-01
 3.811945617E-01 5.997028574E-02 -5.576109190E-01
 3.701761961E-01 5.968702585E-02 -5.475536281E-01
 3.572959304E-01 5.928676575E-02 -5.385106946E-01
 3.451849520E-01 5.885162950E-02 -5.280275928E-01
 3.326723874E-01 5.833728984E-02 -5.139562236E-01
 3.216834366E-01 5.781351402E-02 -4.990060060E-01
 3.091777563E-01 5.718217790E-02 -4.904983645E-01
 2.961885929E-01 5.647088587E-02 -4.785038485E-01
 2.822000682E-01 5.560275540E-02 -4.636250626E-01
 2.696714103E-01 5.475615710E-02 -4.499769372E-01
 2.574977875E-01 5.387549847E-02 -4.373855130E-01
 2.448108792E-01 5.289278552E-02 -4.231910969E-01
 2.320835441E-01 5.183264613E-02 -4.128933637E-01
 2.199064195E-01 5.076140538E-02 -4.028699327E-01
 2.081973851E-01 4.966030270E-02 -3.890905719E-01
 1.967966855E-01 4.851203039E-02 -3.744524697E-01
 1.843440980E-01 4.720355943E-02 -3.616512335E-01
 1.722984612E-01 4.585713148E-02 -3.453050130E-01
 1.607232541E-01 4.448222369E-02 -3.262283862E-01
 1.486594528E-01 4.297584295E-02 -3.089977987E-01
 1.377411634E-01 4.152438790E-02 -2.897870115E-01
 1.261224300E-01 3.989699483E-02 -2.720132089E-01
 1.142982617E-01 3.813942522E-02 -2.531679990E-01
 1.036129519E-01 3.645107523E-02 -2.359546649E-01
 9.366255999E-02 3.478532657E-02 -2.148368645E-01
 8.226627856E-02 3.274849802E-02 -1.940091427E-01
 7.019540668E-02 3.041392379E-02 -1.764337035E-01
 6.022008508E-02 2.832786180E-02 -1.526772115E-01
 5.032448843E-02 2.607263438E-02 -1.283168793E-01
 4.162804037E-02 2.390017360E-02 -9.407199703E-02
 3.425030410E-02 2.187439799E-02 -6.276074632E-02
 2.779763564E-02 1.992121711E-02 -2.460513060E-02
 2.232118882E-02 1.809633337E-02 2.257809419E-02
 1.843803376E-02 1.666381583E-02 7.257199996E-02
 1.483598631E-02 1.520811208E-02 8.579177520E-02
 1.217031386E-02 1.402417757E-02 1.254762797E-01
 9.749458171E-03 1.284875721E-02 1.420536822E-01
 7.990418002E-03 1.191067975E-02 1.909291519E-01
 6.396139506E-03 1.098736748E-02 2.896708247E-01
 4.934479482E-03 1.005690359E-02 3.710525914E-01
 3.008806612E-03 8.667152375E-03 4.116172822E-01
 1.373050734E-03 7.250382565E-03 4.814047151E-01
 -3.297345756E-05 5.717403255E-03 7.541817559E-01
 -1.340238960E-03 3.675731597E-03 6.655972887E-01
 -1.923394389E-03 2.046594862E-03 1.140917199E+00
 -2.107145032E-03 7.617301308E-04 1.185535642E+00
 -2.031458076E-03 -6.612191210E-04 1.063231919E+00
 -1.623986871E-03 -2.214913256E-03 1.083349369E+00
 -7.437260938E-04 -4.014154430E-03 9.644776902E-01
 6.477616844E-04 -5.889951717E-03 8.626475679E-01
 2.609906718E-03 -7.851784118E-03 4.486426452E-01
 4.362659529E-03 -9.275944903E-03 4.132430947E-01
 6.429368630E-03 -1.072047930E-02 2.474436596E-01
 7.999095134E-03 -1.169664413E-02 1.796466940E-01
 9.998279624E-03 -1.282812376E-02 1.446364263E-01
 1.232208870E-02 -1.403025351E-02 1.460652368E-01
 1.551070996E-02 -1.551442686E-02 7.991818035E-02
 1.846110076E-02 -1.676012017E-02 1.899563325E-02
 2.231421508E-02 -1.824480295E-02 -1.790887166E-02
 2.764428034E-02 -2.008491755E-02 -4.972273391E-02
 3.339144215E-02 -2.188003995E-02 -9.320791840E-02
 4.073577747E-02 -2.392929979E-02 -1.295174480E-01
 4.820352420E-02 -2.581308223E-02 -1.477150983E-01
 5.710260570E-02 -2.785756625E-02 -1.640603902E-01
 6.577355415E-02 -2.967789210E-02 -1.902918849E-01
 7.590002567E-02 -3.164463490E-02 -2.139277106E-01
 8.584822714E-02 -3.342627361E-02 -2.312943463E-01
 9.608092904E-02 -3.513767198E-02 -2.452813068E-01
 1.068266109E-01 -3.681655228E-02 -2.585089391E-01
 1.181576252E-01 -3.848281875E-02 -2.737938625E-01
 1.296108067E-01 -4.005951062E-02 -2.889863681E-01
 1.402977556E-01 -4.144020006E-02 -3.016414731E-01
 1.514213234E-01 -4.281325638E-02 -3.147701327E-01
 1.634328514E-01 -4.420537874E-02 -3.298506325E-01
 1.751190573E-01 -4.548681900E-02 -3.458184111E-01
 1.871706992E-01 -4.671917111E-02 -3.618266813E-01
 1.978083104E-01 -4.774945602E-02 -3.785888672E-01
 2.091925144E-01 -4.878200218E-02 -3.945608496E-01
 2.214613408E-01 -4.981519654E-02 -4.101987333E-01
 2.342349589E-01 -5.082263425E-02 -4.289893527E-01
 2.467477024E-01 -5.170853063E-02 -4.489204353E-01
 2.595870495E-01 -5.254345760E-02 -4.668853630E-01
 2.708460093E-01 -5.320158973E-02 -4.884455494E-01
 2.837809026E-01 -5.385388434E-02 -5.051840396E-01
 2.965876758E-01 -5.441759154E-02 -5.230022256E-01
 3.094929755E-01 -5.487331003E-02 -5.434861206E-01
 3.214100301E-01 -5.520280078E-02 -5.627499188E-01
 3.338123262E-01 -5.542401597E-02 -5.746281438E-01
 3.446828127E-01 -5.555040762E-02 -5.864927957E-01
 3.560190797E-01 -5.559280515E-02 -5.995780217E-01
 3.670174778E-01 -5.552425608E-02 -6.109313889E-01
 3.776299655E-01 -5.536357313E-02 -6.125877058E-01
 3.890773058E-01 -5.510221049E-02 -6.069129808E-01
 4.019307792E-01 -5.466774851E-02 -5.964966057E-01
 4.141833484E-01 -5.413261056E-02 -5.801497419E-01
 4.273185730E-01 -5.342983082E-02 -5.570281602E-01
 4.399094880E-01 -5.259732530E-02 -5.241206866E-01
 4.523492754E-01 -5.169707164E-02 -4.896366277E-01
 4.644426107E-01 -5.067920685E-02 -4.573472588E-01
 4.768074453E-01 -4.953020439E-02 -4.191492361E-01
 4.880066812E-01 -4.839549586E-02 -3.787037226E-01
 5.005003810E-01 -4.706059769E-02 -3.387944759E-01
 5.142856836E-01 -4.548658431E-02 -3.002435784E-01
 5.279958248E-01 -4.384005815E-02 -2.592563067E-01
 5.414770246E-01 -4.214400053E-02 -2.176262892E-01
 5.546488762E-01 -4.043867439E-02 -1.812512660E-01
 5.676172376E-01 -3.870728239E-02 -1.465649890E-01
 5.806377530E-01 -3.695233166E-02 -1.164345934E-01
 5.924991369E-01 -3.532433882E-02 -8.751283370E-02
 6.049495935E-01 -3.361257166E-02 -6.285349038E-02
 6.184932590E-01 -3.170308098E-02 -3.427165579E-02
 6.330516338E-01 -2.969173528E-02 -7.005885986E-03
 6.471671462E-01 -2.770560049E-02 1.772074750E-02
 6.603007913E-01 -2.587078884E-02 4.415611370E-02
 6.737731099E-01 -2.402119897E-02 6.474711801E-02
 6.864709854E-01 -2.227779664E-02 8.408024579E-02
 6.987964511E-01 -2.060076036E-02 1.044180477E-01
 7.131276131E-01 -1.866265014E-02 1.261218281E-01
 7.261393666E-01 -1.695022918E-02 1.454622436E-01
 7.379327416E-01 -1.540552359E-02 1.623217166E-01
 7.504906654E-01 -1.380664948E-02 1.815770569E-01
 7.629998326E-01 -1.227411535E-02 1.943844583E-01
 7.756439447E-01 -1.070734765E-02 2.128235450E-01
 7.876048088E-01 -9.329739958E-03 2.302898722E-01
 8.001595736E-01 -7.887747139E-03 2.434067030E-01
 8.113439679E-01 -6.665570661E-03 2.619504170E-01
 8.229091167E-01 -5.447464995E-03 2.758030150E-01
 8.355222940E-01 -4.195842426E-03 2.922544334E-01
 8.480708003E-01 -3.055981593E-03 3.059084777E-01
 8.600615263E-01 -2.042165957E-03 3.182120552E-01
 8.719496727E-01 -1.137766871E-03 3.316120803E-01
 8.843048811E-01 -3.329699684E-04 3.397606972E-01
 8.974115849E-01 3.975961299E-04 3.478137440E-01
 9.076463580E-01 8.474590140E-04 3.544038115E-01
 9.179590940E-01 1.199073857E-03 3.553238840E-01
 9.274210334E-01 1.432762248E-03 3.568113569E-01
 9.361339808E-01 1.577470684E-03 3.552144393E-01
 9.480630159E-01 1.662011491E-03 3.540660424E-01
 9.612541199E-01 1.606805599E-03 3.486174591E-01
 9.762575626E-01 1.369816950E-03 3.512791414E-01
 9.889323711E-01 9.982696502E-04 3.564095957E-01
 -5.000000000E-01 -1.000000000E+00 4.475287824E-02
 3.500000000E+00 -1.000000000E+00 1.129933599E-02
 3.500000000E+00 1.000000000E+00 -6.403573288E-04
 -5.000000000E-01 1.000000000E+00 3.952777218E-02
 -5.000000000E-01 5.000000000E-01 9.042554322E-02
 -5.000000000E-01 2.752797990E-12 1.332543062E-01
 -5.000000000E-01 -5.000000000E-01 9.042062036E-02
 -9.421907698E-13 -1.000000000E+00 1.972242961E-02
 5.000000000E-01 -1.000000000E+00 -2.384077579E-02
 1.000000000E+00 -1.000000000E+00 1.476628674E-03
 1.500000000E+00 -1.000000000E+00 3.099001289E-02
 2.000000000E+00 -1.000000000E+00 2.807201886E-02
 2.500000000E+00 -1.000000000E+00 1.910659000E-02
 3.000000000E+00 -1.000000000E+00 1.348745614E-02
 3.500000000E+00 -5.000000000E-01 1.218566259E-02
 3.500000000E+00 -2.752797990E-12 1.206979864E-02
 3.500000000E+00 5.000000000E-01 5.867497216E-03
 3.000000000E+00 1.000000000E+00 -6.584179243E-03
 2.500000000E+00 1.000000000E+00 -1.492534670E-02
 2.000000000E+00 1.000000000E+00 -3.071998057E-02
 1.500000000E+00 1.000000000E+00 -7.071707272E-02
 1.000000000E+00 1.000000000E+00 -1.203467222E-01
 5.000000000E-01 1.000000000E+00 -7.710080940E-02
 1.733724275E-12 1.000000000E+00 9.883801140E-03
 6.828289615E-01 -3.524968862E-02 7.521529302E-02
 7.820492480E-01 -2.175647607E-02 2.135481151E-01
 9.039337320E-01 -9.495217975E-03 3.395798853E-01
 7.109956741E-01 5.796044554E-02 -3.749704454E-01
 2.722246582E-01 -6.442933394E-02 -4.724486376E-01
 2.759423237E-01 7.112545948E-02 -4.405572392E-01
 9.121872714E-01 2.858350529E-02 -6.088128932E-02
 8.083002644E-01 4.881694952E-02 -2.410062768E-01
 5.606290001E-01 -5.589248560E-02 -1.632915035E-01
 6.113331135E-01 6.257052554E-02 -5.318687536E-01
 3.947604381E-01 -6.770227975E-02 -5.760710105E-01
 4.219472782E-01 7.313457534E-02 -5.757091514E-01
 5.159014430E-01 7.232439362E-02 -6.156200954E-01
 1.786021602E+00 -5.258092243E-01 2.642459991E-02
 1.781166275E+00 6.721831334E-01 -2.334805180E-02
 3.031172655E+00 2.156853614E-01 5.384226129E-03
 7.500000000E-01 -5.669872981E-01 -1.102170800E-02
 4.707540721E-01 -6.033340608E-02 -4.232833870E-01
 7.467434591E-01 5.607848939E-01 -1.932833468E-01
 2.734855181E+00 -5.326844080E-01 1.206125204E-02
 1.211561708E+00 6.716328663E-01 -5.861117568E-02
 9.764944897E-01 3.223270685E-01 -5.900567990E-02
 1.238030551E+00 -6.177081064E-01 5.433701082E-02
 1.491601560E+00 -2.601924565E-01 3.882903809E-02
 3.130857445E-01 6.385186129E-01 -1.197956576E-01
 1.063152659E-01 4.637057074E-02 -2.237900812E-01
 1.654516185E-01 5.783845418E-02 -3.217525945E-01
 3.502955239E-01 7.499125945E-02 -5.152281640E-01
 1.911361068E-01 -5.920084090E-01 -3.642982083E-02
 7.849241345E-02 -4.181470156E-02 -1.970352084E-01
 1.333244288E-01 -5.057293150E-02 -2.787840933E-01
 1.912746651E-01 -5.889544919E-02 -3.548361359E-01
 2.240554422E+00 -5.763507894E-01 1.620904322E-02
 2.021414883E+00 -1.879916507E-01 1.050745070E-02
 2.420227025E+00 -1.842918100E-01 7.449824217E-03
 2.184644837E+00 1.582824493E-01 1.170855407E-03
 1.765945455E+00 1.146069839E-01 5.916779633E-03
 -2.711404698E-01 -2.547310462E-01 1.456896094E-01
 -1.645181788E-01 -5.734928977E-01 5.604677993E-02
 -2.542964096E-01 2.391889749E-01 1.459135911E-01
 -1.366003589E-01 6.281418584E-01 4.134654402E-02
 2.802033788E-02 4.139485396E-01 -3.716288749E-03
 5.352510711E-02 3.765626677E-02 -9.553165867E-02
 2.239492315E+00 5.581744793E-01 -9.274783327E-03
 2.746078771E+00 5.966815571E-01 -2.689831510E-03
 -2.510513775E-01 -1.053856251E-03 1.984588350E-01
 -1.423322825E-01 -1.291209348E-01 2.132312995E-01
 3.290097422E-02 -2.879562252E-02 -3.845220568E-02
 3.238554957E-02 -3.713421650E-01 1.740220837E-02
 2.955732137E-01 -3.000800876E-01 -2.258497483E-01
 3.385958693E-01 -6.536929851E-02 -5.622300722E-01
 -1.353737742E-01 1.142239964E-01 2.199604254E-01
 -1.061376661E-01 2.089292353E-03 3.072458633E-01
 -5.465675818E-02 -6.607134690E-02 3.423681264E-01
 -4.990570844E-02 -1.503050399E-01 1.806837823E-01
 2.234659830E-03 -9.390095416E-02 1.876515440E-01
 2.675234801E-02 -2.005863582E-01 4.416021571E-02
 -1.556111569E-02 -5.254314846E-02 3.786715928E-01
 1.815640721E-02 -2.125885049E-02 7.406999443E-02
 1.015525435E-02 -1.744196048E-02 2.516757767E-01
 -5.514526908E-02 -1.284203592E-02 4.348574869E-01
 6.635832953E-02 -1.072945173E-01 -5.362200357E-02
 1.148798848E-01 -1.584897038E-01 -1.306857974E-01
 1.207498241E-01 -9.767717661E-02 -2.021123767E-01
 1.762824149E-01 -1.246112646E-01 -2.646306289E-01
 2.416950284E-01 -6.597293951E-02 -4.232313895E-01
 1.879929453E-01 -1.906731330E-01 -2.195557040E-01
 2.371821138E-01 -1.487033052E-01 -3.261535009E-01
 1.231465835E-01 -2.657336499E-01 -9.005407420E-02
 1.571928245E-01 -8.624121109E-02 -2.730717897E-01
 1.671307496E-01 -5.582302639E-02 -3.232960830E-01
 2.238820547E-01 -1.066649487E-01 -3.496338008E-01
 2.142543025E-01 -6.220244857E-02 -3.857926854E-01
 2.705123840E-01 -1.115669301E-01 -4.071651827E-01
 3.020718594E-01 -1.495090013E-01 -3.896850431E-01
 3.155920128E-01 -1.081206317E-01 -4.647675491E-01
 3.508267076E-01 -1.491759487E-01 -4.219276261E-01
 3.042454147E-01 -6.859057626E-02 -5.126352617E-01
 3.684577725E-01 -1.103469803E-01 -4.960145551E-01
 4.002439933E-01 -1.424305276E-01 -4.342918994E-01
 4.327423844E-01 -6.768473750E-02 -5.130854849E-01
 3.936932311E-01 -1.882667536E-01 -3.665117461E-01
 4.550390481E-01 -1.840525234E-01 -3.198280430E-01
 4.102581047E-01 -2.762750525E-01 -2.567277220E-01
 5.203361150E-01 -2.365030351E-01 -1.838884193E-01
 6.265454236E-01 -4.427020898E-02 -2.363892550E-02
 5.975811720E-01 -4.855342629E-02 -8.077755660E-02
 5.103995375E-01 -3.715850160E-01 -1.457744770E-01
 5.490811916E-01 -1.574530689E-01 -1.668337745E-01
 6.121733949E-01 -2.030553994E-01 -6.056935675E-02
 5.079946730E-01 -5.882202622E-02 -3.111619379E-01
 6.327781748E-01 -1.287079105E-01 -2.470111626E-02
 7.320424915E-01 -2.560569904E-02 1.494582467E-01
 6.988310523E-01 -1.809284806E-01 4.694576531E-02
 8.418731441E-01 -1.653449679E-02 2.853002825E-01
 8.185544477E-01 -1.846414825E-02 2.602509225E-01
 7.580724625E-01 -2.387363899E-02 1.846546789E-01
 8.662996931E-01 -1.019655345E-02 3.142892277E-01
 7.002992514E-01 -1.050924902E-01 7.010552099E-02
 3.692268973E-01 -6.817934787E-02 -5.819601505E-01
 6.904732884E-01 -2.820016473E-01 1.351375551E-02
 7.814721666E-01 -2.293050204E-01 9.994564320E-02
 9.686931835E-01 -1.273781809E-02 3.336416069E-01
 9.420699093E-01 -9.315166565E-03 3.423105648E-01
 4.893549411E-01 -1.275661363E-01 -2.938265437E-01
 5.825692044E-01 -1.085675786E-01 -1.076649479E-01
 4.405083256E-01 -1.148258338E-01 -4.163412452E-01
 6.581934696E-01 -7.894499073E-02 2.092589597E-02
 6.549010746E-01 -3.611417326E-02 2.979803993E-02
 7.618692181E-01 -1.443928728E-01 1.262469378E-01
 8.592881512E-01 -1.469908309E-01 1.843574583E-01
 8.872897393E-01 -2.630505934E-01 1.314555332E-01
 9.734504340E-01 -1.679490660E-01 1.881086238E-01
 1.010665781E+00 -2.985628403E-01 1.195013618E-01
 1.106766247E+00 -1.957794825E-01 1.247158586E-01
 9.226641297E-01 -9.568556912E-02 2.487218649E-01
 1.007898945E+00 -9.753212186E-02 2.147373828E-01
 1.115040631E+00 -8.187384794E-02 1.335840917E-01
 8.508664177E-01 -8.621370928E-02 2.332248786E-01
 7.534131449E-01 -8.822428155E-02 1.416728665E-01
 8.912673292E-01 -5.682357654E-02 2.738103605E-01
 9.672064660E-01 -7.071221328E-02 2.600280730E-01
 7.185433674E-01 -6.549013264E-02 1.137674778E-01
 7.070957032E-01 -3.098350486E-02 1.102515828E-01
 1.162324978E+00 -3.594693652E-01 8.589176761E-02
 1.009125752E+00 -4.927935834E-01 8.025644566E-02
 1.259946050E+00 -2.076675236E-01 7.280450331E-02
 4.032674508E-01 -1.040212093E-01 -4.976861662E-01
 3.109364564E+00 -2.612686154E-01 1.070698509E-02
 7.794064672E-01 -3.578841515E-01 5.745208206E-02
 6.412536382E-01 -4.039229859E-01 -4.174029009E-02
 5.123207984E-01 -5.422087045E-01 -9.951167720E-02
 3.781147049E-02 -7.348890226E-02 4.594489206E-02
 6.005743313E-02 -3.744067480E-02 -1.430985113E-01
 1.291671177E-02 -5.181031979E-02 1.833881713E-01
 -2.573466885E-02 -2.273283743E-02 5.670829844E-01
 -6.535170627E-04 -1.064525118E-02 6.483455792E-01
 8.910575749E-01 -1.024745610E-02 3.281461881E-01
 9.010461757E-01 -2.641012274E-02 3.168753066E-01
 9.160074084E-01 -1.811035439E-02 3.292266808E-01
 8.814680854E-01 -2.937974092E-02 3.037806663E-01
 8.596127780E-01 -4.716449792E-02 2.687404872E-01
 8.192087938E-01 -5.613318789E-02 2.307787493E-01
 8.047028167E-01 -9.682531937E-02 1.864125999E-01
 9.230616840E-01 -8.194563616E-03 3.428695445E-01
 9.319919821E-01 -2.031172701E-02 3.280427810E-01
 9.522470084E-01 -2.188126794E-02 3.220557637E-01
 9.181749962E-01 -4.429945961E-02 3.006042569E-01
 9.545078231E-01 -8.401223873E-03 3.385058938E-01
 9.687337518E-01 -3.613085087E-02 3.011674647E-01
 9.865875177E-01 -2.272894821E-02 2.971203668E-01
 9.915188844E-01 -4.361357718E-02 2.689610919E-01
 1.011812620E+00 -2.431045035E-02 2.720155085E-01
 7.517745674E-01 -5.505026283E-02 1.576423719E-01
 7.835711742E-01 -5.899703381E-02 1.894837075E-01
 7.959626172E-01 -2.006996100E-02 2.318424885E-01
 4.141171438E-01 -6.670253022E-02 -5.537371968E-01
 2.598801617E-01 -2.099709820E-01 -2.853901003E-01
 7.935521090E-01 -3.719119327E-02 2.175015774E-01
 7.703970991E-01 -3.688164283E-02 1.903394692E-01
 8.109983870E-01 -3.086228852E-02 2.424101241E-01
 8.324588676E-01 -3.318484948E-02 2.628527429E-01
 6.685780037E-01 -3.617094674E-02 5.096944120E-02
 6.777131339E-01 -5.068582686E-02 5.948641445E-02
 6.963524620E-01 -4.622891758E-02 9.219981924E-02
 4.739348945E-01 -9.533536686E-02 -3.720042083E-01
 5.064040540E-01 -9.441295992E-02 -2.946242253E-01
 9.098464850E-02 -7.865746201E-02 -1.663733236E-01
 1.083051979E-01 -4.892113117E-02 -2.444490294E-01
 4.584123991E-01 -6.432483555E-02 -4.514073946E-01
 8.768064015E-01 -1.254807088E-02 3.194683683E-01
 6.907914825E-01 -6.953409088E-02 7.319725040E-02
 9.137216553E-01 -6.750720623E-03 3.457786479E-01
 -3.945044048E-03 -3.578498298E-02 4.486534776E-01
 8.554437550E-01 -1.395870036E-02 3.005030887E-01
 8.302332705E-01 -1.507612608E-02 2.747817605E-01
 7.202021518E-01 -3.016115259E-02 1.327352649E-01
 6.619408439E-02 -6.917082573E-02 -1.112901168E-01
 4.412987585E-02 -5.088803230E-02 -3.690244447E-02
 2.348493843E-02 -3.741167263E-02 5.201217447E-02
 6.423773806E-01 -4.093065924E-02 6.799112560E-03
 6.373986233E-01 -5.873406771E-02 -7.705318189E-03
 6.129364372E-01 -5.855382149E-02 -4.965093520E-02
 5.922429158E-01 -6.929936567E-02 -8.989575196E-02
 6.193531375E-01 -8.380128911E-02 -4.278457401E-02
 7.698325174E-01 -2.109864418E-02 1.988889504E-01
 6.942452445E-01 -3.136679398E-02 9.268828497E-02
 9.321357179E-01 -6.962244852E-03 3.449625785E-01
 5.668021097E-01 -7.871942482E-02 -1.423926154E-01
 5.351558192E-01 -5.621558906E-02 -2.326392364E-01
 5.390284660E-01 -1.030952757E-01 -2.068148481E-01
 7.455349479E-01 -2.499915075E-02 1.659157937E-01
 9.290023335E-02 -5.626811750E-02 -1.960575670E-01
 1.935004960E-01 -9.081439493E-02 -3.204416641E-01
 1.556316600E-01 -6.495211996E-02 -2.927665829E-01
 1.321774977E-01 -6.841374793E-02 -2.558324521E-01
 5.782315189E-01 -5.584552091E-02 -1.221474354E-01
 5.474258170E-01 -5.296990166E-02 -1.975740350E-01
 5.455420049E-01 -6.979537492E-02 -1.946308295E-01
 5.230857869E-01 -7.244299230E-02 -2.586577456E-01
 4.920279975E-01 -7.471996780E-02 -3.374734531E-01
 1.565126471E-01 -5.199818280E-02 -3.109198443E-01
 8.074037987E-01 -1.678994311E-02 2.473883850E-01
 9.874686717E-02 -4.412456812E-02 -2.362428037E-01
 6.124418756E-01 -4.347305042E-02 -4.950683436E-02
 2.562966759E+00 2.046489979E-01 8.639762051E-04
 7.334952829E-01 -4.101865992E-02 1.424301660E-01
 3.399862117E-01 -9.231122874E-02 -5.172419395E-01
 1.208604223E-02 -3.055858995E-02 2.256274655E-01
 8.508185303E-01 -2.743836747E-02 2.836916537E-01
 1.107912918E-01 -6.668693163E-02 -2.192112650E-01
 2.953778032E-01 -8.604710083E-02 -4.714654955E-01
 1.023910911E+00 -5.589922195E-02 2.196241493E-01
 1.053940999E+00 -3.853779509E-02 1.794064509E-01
 1.050956250E+00 -8.319120169E-02 1.790405586E-01
 1.101340892E+00 -1.200582242E-02 1.289753249E-01
 1.061207097E+00 5.334097795E-02 1.299990477E-01
 9.664704837E-01 1.772226540E-02 1.196764841E-01
 1.154463170E+00 6.559934738E-02 9.022903542E-02
 1.196011006E+00 -3.287385973E-02 8.334211645E-02
 1.296956427E+00 5.908772917E-02 4.865718494E-02
 1.220264970E+00 2.023441923E-01 3.373014022E-02
 1.068177371E+00 1.378840866E-01 6.557085771E-02
 1.443468817E+00 1.972321068E-01 1.562896164E-02
 1.504665444E+00 -1.135802590E-02 2.546267627E-02
 9.983984877E-01 1.010865974E-01 6.465814355E-02
 9.874883032E-01 1.893418506E-01 -1.795855186E-03
 8.558306849E-01 3.756659313E-02 -1.804717209E-01
 9.251505678E-01 1.121587442E-01 -4.499850853E-02
 8.893872228E-01 1.996502087E-01 -1.075825201E-01
 7.545432200E-01 5.138596336E-02 -3.110159779E-01
 7.831734675E-01 4.974883526E-02 -2.730676494E-01
 8.346242968E-01 1.280930990E-01 -1.833802158E-01
 7.989737338E-01 2.071653614E-01 -2.223192971E-01
 7.503436126E-01 1.444058426E-01 -2.869942454E-01
 7.073783535E-01 1.954804608E-01 -3.187081225E-01
 6.591876857E-01 6.111083009E-02 -4.560857333E-01
 6.804924821E-01 5.899051359E-02 -4.192069465E-01
 6.683515779E-01 1.487398983E-01 -3.883289097E-01
 6.372524843E-01 1.980688264E-01 -3.938281336E-01
 5.617084350E-01 6.934830923E-02 -5.816879076E-01
 5.387617517E-01 7.055935081E-02 -6.014656803E-01
 5.863385439E-01 1.570195584E-01 -4.671922370E-01
 5.511791651E-01 2.287681667E-01 -4.308964513E-01
 5.027589389E-01 1.672201931E-01 -4.963418732E-01
 4.631488368E-01 7.621453674E-02 -5.942349251E-01
 4.710730206E-01 2.176361209E-01 -4.415228002E-01
 5.181000849E-01 3.244000937E-01 -3.476513686E-01
 4.175869276E-01 1.674993005E-01 -4.643216780E-01
 3.786717351E-01 2.467696301E-01 -3.840833931E-01
 3.861429591E-01 6.884621134E-02 -5.522159622E-01
 3.233939983E-01 1.708861175E-01 -3.972353574E-01
 2.115391654E-01 6.517967318E-02 -3.767127673E-01
 2.381267391E-01 6.252429306E-02 -4.077747556E-01
 3.157443725E-01 6.851560317E-02 -4.850900909E-01
 2.776916613E-01 2.589815707E-01 -2.842175485E-01
 2.091580749E-01 1.940236892E-01 -2.572867622E-01
 6.851533747E-01 3.018895295E-01 -3.044557162E-01
 7.055961412E-01 1.105156699E-01 -3.545057783E-01
 6.228591031E-01 1.209010746E-01 -4.657429300E-01
 3.672583092E-01 1.290114171E-01 -4.711566447E-01
 5.389502689E-01 1.248739154E-01 -5.383930518E-01
 2.752873049E-01 1.321084131E-01 -3.799024273E-01
 7.837684736E-01 1.088902692E-01 -2.552513127E-01
 8.726112852E-01 9.388216896E-02 -1.331997841E-01
 4.611680324E-01 1.310117563E-01 -5.304783141E-01
 8.438991520E-01 2.974594284E-01 -1.641790910E-01
 3.545104508E-01 3.796684475E-01 -2.667548939E-01
 2.079122524E-01 4.230550208E-01 -1.413313135E-01
 9.620926563E-01 7.001310368E-02 4.918812344E-02
 9.328974827E-01 2.646443811E-02 4.404753826E-04
 1.006094276E+00 4.386927935E-02 1.583790395E-01
 1.341846039E+00 4.268812639E-01 -3.730535630E-03
 1.480206021E+00 6.336176572E-01 -2.904817165E-02
 6.272072754E-01 4.546727026E-01 -2.500789121E-01
 4.729489710E-01 4.956111668E-01 -2.483956111E-01
 1.719639714E+00 -1.255741287E-01 1.682865642E-02
 1.335218135E+00 -8.040298932E-02 5.496375206E-02
 6.944786889E-01 5.764295616E-02 -3.956444944E-01
 6.886036872E-01 7.719166531E-02 -3.956900350E-01
 6.706834767E-01 7.111950117E-02 -4.314243945E-01
 6.519825520E-01 7.209680861E-02 -4.604584088E-01
 6.371529641E-01 6.365448881E-02 -4.904724711E-01
 6.655651870E-01 9.614083464E-02 -4.248653347E-01
 7.116800868E-01 7.789634244E-02 -3.624727734E-01
 7.302897243E-01 5.198338520E-02 -3.444825192E-01
 6.300974481E-01 8.377583752E-02 -4.847533165E-01
 6.004808268E-01 9.340524154E-02 -5.165543562E-01
 5.900779675E-01 7.109964797E-02 -5.502223783E-01
 5.743459630E-01 6.721509081E-02 -5.719064637E-01
 5.756665716E-01 8.280393504E-02 -5.523350284E-01
 5.770061116E-01 1.122401811E-01 -5.224448612E-01
 5.523611589E-01 8.665241394E-02 -5.683777680E-01
 5.293807784E-01 8.753571756E-02 -5.870573670E-01
 5.061442594E-01 8.873528261E-02 -5.944333510E-01
 4.919077468E-01 7.407000440E-02 -6.123694708E-01
 4.824510930E-01 9.359169390E-02 -5.798930051E-01
 4.782682603E-01 7.253048441E-02 -6.079834371E-01
 7.205583147E-01 5.262325174E-02 -3.620149224E-01
 4.502860075E-01 9.743546261E-02 -5.634195434E-01
 4.213745759E-01 1.158211083E-01 -5.280140546E-01
 4.461364009E-01 8.084281256E-02 -5.808188837E-01
 3.882933366E-01 1.067127805E-01 -5.157468818E-01
 6.565269476E-01 -5.026344409E-02 2.933785359E-02
 1.334999835E+00 -3.896429997E-01 5.617769443E-02
 6.585955600E-01 6.875386478E-01 -1.885969858E-01
 9.621834856E-01 3.503264044E-02 7.251153186E-02
 9.273151293E-01 5.375630780E-02 -1.799521579E-02
 8.957645517E-01 6.448847073E-02 -9.576415200E-02
 8.837787847E-01 3.825025514E-02 -1.289901390E-01
 8.678919145E-01 3.482057113E-02 -1.593497384E-01
 8.656412071E-01 5.680821467E-02 -1.526418467E-01
 8.338509544E-01 4.086195087E-02 -2.103615621E-01
 8.425687055E-01 7.674487828E-02 -1.871642358E-01
 8.063361702E-01 7.444769593E-02 -2.316945421E-01
 8.464863397E-01 5.116906192E-02 -1.894161256E-01
 8.444267749E-01 3.688611198E-02 -1.994823260E-01
 2.296167575E-02 -2.850969002E-02 5.424391003E-02
 1.779372204E-01 -6.935961340E-02 -3.215024730E-01
 5.021475208E-01 1.191362277E-01 -5.562024099E-01
 2.007694941E-01 -7.193732129E-02 -3.554579154E-01
 1.079253592E+00 2.537101840E-01 1.216618377E-02
 7.786054886E-01 7.411068644E-02 -2.711448697E-01
 7.260612625E-01 6.546014433E-02 -3.474678949E-01
 7.451875459E-01 8.901690483E-02 -3.114142737E-01
 7.438680595E-01 6.326065564E-02 -3.235324541E-01
 3.481164960E-01 -4.143886670E-01 -1.567476689E-01
 6.010216102E-01 6.481673643E-02 -5.428004666E-01
 2.217969072E-01 -7.793462227E-02 -3.784827510E-01
 2.485812717E-01 -8.642338433E-02 -4.077986726E-01
 2.580705832E-01 -6.996714088E-02 -4.437491570E-01
 2.711594973E-01 -8.341366053E-02 -4.471126339E-01
 2.872293253E-01 -6.845869124E-02 -4.879455124E-01
 9.939322185E-01 -1.082058661E-02 3.561896829E-01
 3.833812358E-01 -8.250409978E-02 -5.497943702E-01
 -2.807743513E-03 -1.946027982E-02 4.968425885E-01
 6.030501907E-03 -1.272018287E-02 3.574795776E-01
 5.217035575E-01 -5.536145001E-02 -2.727829561E-01
 8.694869392E-01 4.562649737E-01 -1.507916307E-01
 9.739784433E-01 -7.263484182E-01 7.959450468E-03
 3.828151685E-01 -6.577030221E-02 -5.887086205E-01
 4.406291716E-02 -3.737308104E-02 -7.544652571E-02
 1.629393673E+00 4.005558312E-01 -9.735723915E-03
 3.133974596E+00 6.339745962E-01 -4.434729048E-04
 6.481160664E-01 5.968892199E-02 -4.755644720E-01
 1.485263660E+00 -5.428154115E-01 4.298742295E-02
 8.218732215E-01 4.146376880E-02 -2.264998113E-01
 8.274674640E-01 5.572261611E-02 -2.155359052E-01
 7.960839440E-01 5.869178189E-02 -2.537709007E-01
 4.248139269E-01 -8.801056859E-02 -4.986800824E-01
 4.492853154E-01 -8.150306772E-02 -4.504436838E-01
 3.353838797E-01 -2.122129710E-01 -3.318635220E-01
 3.133974596E+00 -6.339745962E-01 1.090369740E-02
 6.221671077E-01 6.565019698E-02 -5.131869199E-01
 -9.930674711E-02 -2.879814578E-01 1.108245787E-01
 1.381284045E-01 2.635882267E-01 -1.227390502E-01
 9.712369810E-02 1.575797470E-01 -7.831192976E-02
 1.730571247E-01 1.376303465E-01 -2.641477798E-01
 -2.150776941E-02 2.049947876E-01 1.074136361E-01
 2.187663748E-02 1.176998159E-01 1.185834796E-01
 1.645582290E-02 2.226975060E-02 1.243716823E-01
 -4.710073432E-02 9.000717995E-02 3.154958858E-01
 -3.944928570E-02 3.165646815E-02 5.086068167E-01
 -3.930506907E-03 6.825877597E-02 2.874483127E-01
 8.003386095E-02 1.029088502E-01 -8.885762206E-02
 1.304040325E-01 9.506859319E-02 -2.151133049E-01
 1.409788858E-01 5.460183330E-02 -2.818615545E-01
 -3.017591201E-02 3.015587720E-03 6.680718880E-01
 -8.105222197E-03 3.900544457E-02 4.620464300E-01
 9.123303996E-03 1.583506760E-02 2.107300093E-01
 1.767248301E-02 4.896132943E-02 1.626832544E-01
 3.735757531E-02 3.078164030E-02 -4.067854009E-02
 1.728922202E-01 9.548121228E-02 -3.004321789E-01
 1.883401128E-01 6.155050621E-02 -3.515863137E-01
 2.073644261E-01 1.058294762E-01 -3.314058974E-01
 2.442538080E-01 1.015763377E-01 -3.751957980E-01
 -1.241257946E-02 1.449342268E-02 6.751911053E-01