TITLE     = "Visualization of the solution"
VARIABLES = "x"
"y"
"Pressure_Coefficient"
ZONE T="Zone"
 STRANDID=0, SOLUTIONTIME=0
 Nodes=703, Elements=1191, ZONETYPE=FEQuadrilateral
 DATAPACKING=POINT
 DT=(DOUBLE DOUBLE DOUBLE )
 1.000219703E+00 5.110494094E-04 3.265724215E-01
 9.887089133E-01 2.891906770E-03 2.981454239E-01
 9.760340452E-01 5.485474132E-03 2.040605890E-01
 9.590748549E-01 8.967553265E-03 1.383134050E-01
 9.440004230E-01 1.208409760E-02 7.460955621E-02
 9.288074970E-01 1.517379843E-02 4.256503724E-02
 9.169965386E-01 1.756059565E-02 3.130266490E-03
 9.055696726E-01 1.988000795E-02 -3.408999629E-02
 8.940323591E-01 2.219297178E-02 -7.365333733E-02
 8.824667335E-01 2.448290773E-02 -1.132292002E-01
 8.703469634E-01 2.680994943E-02 -1.379919686E-01
 8.573911786E-01 2.917148359E-02 -1.653672083E-01
 8.449197412E-01 3.146095574E-02 -1.941536714E-01
 8.340849876E-01 3.337134048E-02 -2.166219070E-01
 8.221951723E-01 3.543533385E-02 -2.396392194E-01
 8.095557094E-01 3.757348657E-02 -2.612692671E-01
 7.968194485E-01 3.967241570E-02 -2.838560085E-01
 7.839557528E-01 4.174665734E-02 -3.057061151E-01
 7.716122866E-01 4.369168729E-02 -3.246444402E-01
 7.598553896E-01 4.548938945E-02 -3.500604364E-01
 7.467603087E-01 4.748961702E-02 -3.794089382E-01
 7.328817248E-01 4.951005057E-02 -4.030961970E-01
 7.222234607E-01 5.101986974E-02 -4.290393036E-01
 7.113118768E-01 5.255394801E-02 -4.495183444E-01
 6.995377541E-01 5.411609262E-02 -4.731873630E-01
 6.862313747E-01 5.585909262E-02 -5.081466549E-01
 6.735873222E-01 5.745475367E-02 -5.401302139E-01
 6.635068059E-01 5.865557492E-02 -5.724850932E-01
 6.522181630E-01 5.998965353E-02 -6.068814616E-01
 6.402281523E-01 6.130608544E-02 -6.448807802E-01
 6.285801530E-01 6.255453825E-02 -6.887114656E-01
 6.170344949E-01 6.371495128E-02 -7.256126814E-01
 6.064903736E-01 6.471645087E-02 -7.536273860E-01
 5.941148996E-01 6.581934541E-02 -7.705998791E-01
 5.827353001E-01 6.672980636E-02 -7.859797538E-01
 5.694281459E-01 6.775251776E-02 -8.014068842E-01
 5.572724342E-01 6.858512759E-02 -8.082081084E-01
 5.454092622E-01 6.932568550E-02 -8.122019048E-01
 5.347395539E-01 6.992683560E-02 -8.168862141E-01
 5.236425400E-01 7.051375508E-02 -8.107270863E-01
 5.114914775E-01 7.104770094E-02 -7.923332057E-01
 5.002583861E-01 7.144982368E-02 -7.773276151E-01
 4.873667359E-01 7.187442482E-02 -7.623483722E-01
 4.736484587E-01 7.219417393E-02 -7.462147535E-01
 4.600434899E-01 7.244432718E-02 -7.325295346E-01
 4.469330609E-01 7.259055227E-02 -7.205413060E-01
 4.344644845E-01 7.266534120E-02 -7.112433057E-01
 4.220789373E-01 7.266679406E-02 -6.947591972E-01
 4.097246826E-01 7.257265598E-02 -6.813064172E-01
 3.977746964E-01 7.244957238E-02 -6.658887535E-01
 3.855140209E-01 7.222149521E-02 -6.489779116E-01
 3.740429580E-01 7.195971161E-02 -6.371206324E-01
 3.610853255E-01 7.160028070E-02 -6.250544193E-01
 3.483423889E-01 7.116356492E-02 -6.099191576E-01
 3.351349235E-01 7.063008845E-02 -5.972798018E-01
 3.240828812E-01 7.012986392E-02 -5.820172014E-01
 3.111326396E-01 6.945471466E-02 -5.703012986E-01
 2.980356812E-01 6.871907413E-02 -5.608063171E-01
 2.842291594E-01 6.783369184E-02 -5.509322217E-01
 2.720578909E-01 6.697681546E-02 -5.398114463E-01
 2.602533400E-01 6.606967747E-02 -5.263732856E-01
 2.477547377E-01 6.502592564E-02 -5.147287282E-01
 2.354766876E-01 6.392680854E-02 -5.016782175E-01
 2.229931056E-01 6.270962209E-02 -4.879324004E-01
 2.111784667E-01 6.147509813E-02 -4.743553615E-01
 1.992682666E-01 6.014908850E-02 -4.590871107E-01
 1.867182702E-01 5.864259601E-02 -4.458813163E-01
 1.749572456E-01 5.713966489E-02 -4.287711380E-01
 1.636207551E-01 5.558345467E-02 -4.071351311E-01
 1.518237591E-01 5.384714529E-02 -3.860139014E-01
 1.411195546E-01 5.218614638E-02 -3.614407533E-01
 1.295565963E-01 5.026776716E-02 -3.353575670E-01
 1.183230802E-01 4.827717319E-02 -3.095975576E-01
 1.078046486E-01 4.627731070E-02 -2.842431966E-01
 9.779354930E-02 4.424866289E-02 -2.520299678E-01
 8.694565296E-02 4.189276323E-02 -2.148835658E-01
 7.535351813E-02 3.916222602E-02 -1.749982503E-01
 6.537944078E-02 3.661302105E-02 -1.287104343E-01
 5.542664230E-02 3.385570273E-02 -8.129272762E-02
 4.681311920E-02 3.124384582E-02 -3.477639467E-02
 3.947700188E-02 2.882546745E-02 2.765282194E-02
 3.286110237E-02 2.643806487E-02 8.295541661E-02
 2.710853890E-02 2.418706380E-02 1.348688408E-01
 2.296483889E-02 2.241933346E-02 1.840147143E-01
 1.890188456E-02 2.054968476E-02 2.262219194E-01
 1.557606552E-02 1.888625883E-02 2.650748301E-01
 1.256374642E-02 1.723865978E-02 3.416971516E-01
 1.029451936E-02 1.589166373E-02 3.725873715E-01
 8.358578198E-03 1.464438345E-02 4.245002689E-01
 6.599016953E-03 1.340879500E-02 4.728207859E-01
 4.307337571E-03 1.159543078E-02 5.596146243E-01
 2.306998009E-03 9.718225338E-03 6.499756950E-01
 6.580621703E-04 7.786313072E-03 8.052433375E-01
 -9.860417340E-04 4.958865233E-03 7.765048757E-01
 -1.589867752E-03 2.896334743E-03 8.588803848E-01
 -1.707678661E-03 1.312816283E-03 1.035188800E+00
 -1.502694446E-03 -3.190599382E-04 8.197030240E-01
 -1.021483797E-03 -1.841363497E-03 1.119261084E+00
 -2.330143616E-05 -3.719961736E-03 6.069174318E-01
 1.391546801E-03 -5.569407716E-03 6.902251165E-01
 3.323069075E-03 -7.481617387E-03 4.643042459E-01
 5.091345869E-03 -8.916625753E-03 4.542150206E-01
 7.075416390E-03 -1.030281466E-02 1.207964975E-01
 8.698875085E-03 -1.132070366E-02 1.542390671E-01
 1.079884451E-02 -1.250919513E-02 6.512836020E-02
 1.314033661E-02 -1.371140126E-02 2.984840073E-02
 1.644973084E-02 -1.524585206E-02 -4.289810644E-02
 1.929849200E-02 -1.643874682E-02 -8.180064664E-02
 2.306052111E-02 -1.788038202E-02 -9.739326345E-02
 2.836178243E-02 -1.970174164E-02 -1.297362223E-01
 3.415598720E-02 -2.148782834E-02 -1.544225266E-01
 4.114868119E-02 -2.342968062E-02 -1.669760529E-01
 4.871963710E-02 -2.533164993E-02 -1.887284378E-01
 5.783929676E-02 -2.740064636E-02 -2.013461392E-01
 6.661565602E-02 -2.922133729E-02 -2.228714199E-01
 7.673040032E-02 -3.115242720E-02 -2.395256407E-01
 8.681406826E-02 -3.293659911E-02 -2.559739036E-01
 9.698498249E-02 -3.461421281E-02 -2.680985375E-01
 1.083419174E-01 -3.636784479E-02 -2.821803107E-01
 1.196408942E-01 -3.800154477E-02 -2.928266260E-01
 1.314950585E-01 -3.960588202E-02 -3.048717877E-01
 1.422474086E-01 -4.097960144E-02 -3.165021454E-01
 1.535950005E-01 -4.235458747E-02 -3.274853021E-01
 1.659484357E-01 -4.376044869E-02 -3.399962745E-01
 1.776874661E-01 -4.501556978E-02 -3.529457802E-01
 1.897118539E-01 -4.622880369E-02 -3.677568528E-01
 2.005797774E-01 -4.725985974E-02 -3.834591097E-01
 2.119873166E-01 -4.827196896E-02 -3.980498850E-01
 2.243611664E-01 -4.929328337E-02 -4.125505454E-01
 2.372544259E-01 -5.027335882E-02 -4.289075212E-01
 2.496431917E-01 -5.114528909E-02 -4.490968403E-01
 2.617405951E-01 -5.189979076E-02 -4.679120225E-01
 2.728781104E-01 -5.253722519E-02 -4.857754298E-01
 2.852990627E-01 -5.314930901E-02 -5.027087179E-01
 2.975370586E-01 -5.366640538E-02 -5.185649746E-01
 3.104983568E-01 -5.410883203E-02 -5.330368695E-01
 3.225027621E-01 -5.443400145E-02 -5.498031646E-01
 3.351174891E-01 -5.465613678E-02 -5.633868634E-01
 3.462072611E-01 -5.476436764E-02 -5.755675647E-01
 3.576430082E-01 -5.476227775E-02 -5.804959624E-01
 3.684817553E-01 -5.470025539E-02 -5.845612117E-01
 3.791588545E-01 -5.452631041E-02 -5.881378638E-01
 3.908142447E-01 -5.422518775E-02 -5.778356874E-01
 4.042535722E-01 -5.375839025E-02 -5.613127748E-01
 4.168977141E-01 -5.319715291E-02 -5.494476948E-01
 4.292817116E-01 -5.249625444E-02 -5.269923689E-01
 4.416398406E-01 -5.169166625E-02 -4.972148762E-01
 4.533195198E-01 -5.081129819E-02 -4.662502428E-01
 4.647991955E-01 -4.984895885E-02 -4.308290659E-01
 4.767987430E-01 -4.874864966E-02 -3.937203475E-01
 4.881058633E-01 -4.763110355E-02 -3.576560899E-01
 5.009547472E-01 -4.627207667E-02 -3.198851392E-01
 5.147622824E-01 -4.473000765E-02 -2.799219779E-01
 5.280767679E-01 -4.314947873E-02 -2.393528620E-01
 5.412251949E-01 -4.152539372E-02 -1.992436766E-01
 5.536121726E-01 -3.997502103E-02 -1.674827100E-01
 5.669626594E-01 -3.822320327E-02 -1.351483963E-01
 5.798771381E-01 -3.653431684E-02 -1.043143466E-01
 5.917459726E-01 -3.494463488E-02 -7.989249330E-02
 6.042136550E-01 -3.324221820E-02 -5.099789217E-02
 6.191077232E-01 -3.122146241E-02 -2.123913382E-02
 6.337404847E-01 -2.921211720E-02 6.119131522E-03
 6.490609646E-01 -2.709293552E-02 3.576285760E-02
 6.620285511E-01 -2.535851672E-02 5.789446549E-02
 6.753772497E-01 -2.354272641E-02 7.539004387E-02
 6.877128482E-01 -2.186713368E-02 9.855023309E-02
 7.001762986E-01 -2.023050375E-02 1.156100823E-01
 7.144246697E-01 -1.831250265E-02 1.364729004E-01
 7.278766632E-01 -1.660465077E-02 1.567389821E-01
 7.396830320E-01 -1.507408172E-02 1.724747534E-01
 7.533800006E-01 -1.336152758E-02 1.924797026E-01
 7.654522657E-01 -1.190594956E-02 2.076603303E-01
 7.786283493E-01 -1.031699218E-02 2.248709990E-01
 7.905576825E-01 -8.947597817E-03 2.415308568E-01
 8.031575680E-01 -7.492267527E-03 2.600751343E-01
 8.143398166E-01 -6.317440886E-03 2.752785343E-01
 8.256475329E-01 -5.112665705E-03 2.890786737E-01
 8.390371203E-01 -3.840453690E-03 3.054507295E-01
 8.516677618E-01 -2.704978688E-03 3.187676010E-01
 8.639228940E-01 -1.697800704E-03 3.325034739E-01
 8.753768206E-01 -8.443861734E-04 3.458054577E-01
 8.873675466E-01 -8.011913451E-05 3.546267515E-01
 9.000059962E-01 6.214244640E-04 3.630590570E-01
 9.106153846E-01 1.065319055E-03 3.703774985E-01
 9.209248424E-01 1.410654630E-03 3.729218885E-01
 9.304001331E-01 1.630759332E-03 3.771947951E-01
 9.385955334E-01 1.751926960E-03 3.763589129E-01
 9.498624802E-01 1.808885718E-03 3.752167371E-01
 9.618176222E-01 1.737247105E-03 3.765983782E-01
 9.762887955E-01 1.479888102E-03 3.697484559E-01
 9.886221886E-01 1.086122938E-03 3.959370466E-01
 -5.000000000E-01 -1.000000000E+00 5.345211126E-02
 3.500000000E+00 -1.000000000E+00 1.348096444E-02
 3.500000000E+00 1.000000000E+00 -2.940935605E-03
 -5.000000000E-01 1.000000000E+00 5.155010047E-02
 -5.000000000E-01 5.000000000E-01 1.006629155E-01
 -5.000000000E-01 2.752797990E-12 1.517578828E-01
 -5.000000000E-01 -5.000000000E-01 1.011898901E-01
 -9.421907698E-13 -1.000000000E+00 2.715562788E-02
 5.000000000E-01 -1.000000000E+00 -3.757820284E-03
 1.000000000E+00 -1.000000000E+00 1.152128986E-02
 1.500000000E+00 -1.000000000E+00 4.054636850E-02
 2.000000000E+00 -1.000000000E+00 3.500689030E-02
 2.500000000E+00 -1.000000000E+00 2.327304754E-02
 3.000000000E+00 -1.000000000E+00 1.618632358E-02
 3.500000000E+00 -5.000000000E-01 1.381582479E-02
 3.500000000E+00 -2.752797990E-12 1.265405152E-02
 3.500000000E+00 5.000000000E-01 4.633372436E-03
 3.000000000E+00 1.000000000E+00 -9.578277802E-03
 2.500000000E+00 1.000000000E+00 -2.009401289E-02
 2.000000000E+00 1.000000000E+00 -4.100030469E-02
 1.500000000E+00 1.000000000E+00 -8.977021889E-02
 1.000000000E+00 1.000000000E+00 -1.556054071E-01
 5.000000000E-01 1.000000000E+00 -1.040490781E-01
 1.733724275E-12 1.000000000E+00 1.230531145E-02
 6.843882430E-01 -3.514367089E-02 8.591910383E-02
 7.869379881E-01 -2.102950712E-02 2.284970709E-01
 9.056896219E-01 -8.213353657E-03 3.551033476E-01
 2.806203820E-01 -6.679948818E-02 -4.765693321E-01
 7.113517274E-01 6.606631706E-02 -4.407429495E-01
 9.132917756E-01 2.861625809E-02 -1.591076713E-02
 2.894460455E-01 8.208779532E-02 -5.373096773E-01
 5.759059769E-01 -4.974287137E-02 -1.151480873E-01
 8.176956452E-01 4.823100290E-02 -2.424889648E-01
 1.821642877E-01 -5.907746534E-02 -3.432956630E-01
 6.116187429E-01 7.624511918E-02 -7.247143630E-01
 4.004028223E-01 -6.465590784E-02 -5.455847271E-01
 4.408430472E-01 8.743743294E-02 -6.940892077E-01
 1.833450931E+00 -6.043159521E-01 3.253928247E-02
 1.740146653E+00 5.478419921E-01 -1.878642311E-02
 3.031166138E+00 2.156884242E-01 5.090385194E-03
 7.500000000E-01 -5.669872981E-01 1.448099026E-02
 4.706027168E-01 -6.360393668E-02 -3.937351716E-01
 7.500000000E-01 5.669872981E-01 -2.492547352E-01
 5.168308807E-01 8.298423068E-02 -7.793225402E-01
 3.370670341E-01 6.519168079E-01 -1.408495057E-01
 1.211803862E-01 6.255103154E-02 -2.940729651E-01
 1.830926870E-01 7.061171600E-02 -4.192822722E-01
 3.678621922E-01 8.578060376E-02 -6.121930423E-01
 2.734871116E+00 -5.326684199E-01 1.377475291E-02
 1.166200855E+00 6.153687572E-01 -8.038517241E-02
 9.866574493E-01 3.388946796E-01 -5.394702929E-02
 1.221725370E+00 -6.636456467E-01 6.053462302E-02
 1.504730314E+00 -2.681143730E-01 4.288295599E-02
 2.500000000E-01 -5.669872981E-01 -5.396320804E-02
 8.001757999E-02 -4.125539679E-02 -2.253765386E-01
 2.248473275E+00 -5.894134681E-01 2.022841011E-02
 1.983248520E+00 -2.192502929E-01 1.564974280E-02
 2.413223662E+00 -1.878726297E-01 8.952519773E-03
 2.184698315E+00 1.584096171E-01 -1.461664185E-07
 1.800450470E+00 1.384324283E-01 2.512874918E-03
 -2.709632582E-01 -2.473808303E-01 1.656524048E-01
 -1.560496084E-01 -5.626275646E-01 6.752716813E-02
 -2.715672465E-01 2.370066696E-01 1.637108069E-01
 -6.692886554E-02 6.047582402E-01 2.166043951E-02
 1.085420632E-01 3.644867472E-01 -6.447727025E-02
 6.839122853E-02 4.689384658E-02 -1.199198883E-01
 2.191245858E+00 6.009090179E-01 -1.394647344E-02
 2.738034717E+00 6.038052844E-01 -4.977834347E-03
 -2.348214055E-01 2.253811196E-03 2.213408058E-01
 -1.270263752E-01 -1.260251277E-01 2.418790213E-01
 3.537258271E-02 -2.980680294E-02 -1.040039476E-01
 3.226758612E-02 -3.714888978E-01 2.162112295E-02
 2.788990652E-01 -3.158047952E-01 -1.852245074E-01
 3.418539395E-01 -6.582189572E-02 -5.479295080E-01
 -1.197855598E-01 1.418496081E-01 2.408686529E-01
 -6.779614207E-02 3.226580546E-01 9.615176106E-02
 8.032055759E-03 1.823075615E-01 1.274865937E-01
 3.287749607E-02 3.239896950E-02 9.692000992E-02
 1.577644665E-01 2.210083001E-01 -2.103866453E-01
 2.422183658E-01 8.008550407E-02 -4.874365336E-01
 2.160710883E-01 7.590741654E-02 -4.587458407E-01
 2.663475157E-01 7.891509190E-02 -5.184515608E-01
 -3.781152517E-02 9.846097887E-02 3.457573534E-01
 -1.100281027E-01 2.400594001E-02 3.592952922E-01
 -7.018689599E-02 -5.500872984E-02 3.673150760E-01
 3.506164224E-02 1.130730797E-01 1.123248374E-01
 3.109373480E+00 -2.612545790E-01 1.176771337E-02
 -4.687024235E-02 3.701627372E-02 5.117997496E-01
 -5.052387412E-02 -1.088477677E-02 5.602790247E-01
 -2.787087405E-02 -5.000278518E-02 4.658568279E-01
 1.968557631E-02 -2.285328974E-02 -2.563911094E-02
 -3.570156487E-02 -1.027437073E-01 2.604493265E-01
 3.716985786E-02 -1.157143018E-01 5.967434864E-02
 1.309715895E-01 -5.219144122E-02 -2.871636356E-01
 1.124875545E-01 -4.859273131E-02 -2.633872321E-01
 -1.757951568E-02 -1.897633137E-01 1.302856917E-01
 7.697293315E-02 -1.912317950E-01 -5.430396539E-02
 9.736783970E-02 -1.093736919E-01 -1.602397556E-01
 1.610187007E-01 -1.396528473E-01 -2.257771216E-01
 2.313782166E-01 -6.517271904E-02 -4.032577493E-01
 1.486597534E-01 -2.496110419E-01 -1.273071867E-01
 2.390668776E-01 -1.857116335E-01 -2.818797845E-01
 3.648347984E-01 -2.278312946E-01 -3.006517537E-01
 3.985809477E-01 -3.618014640E-01 -1.735589527E-01
 4.803311603E-01 -2.386194320E-01 -2.277887886E-01
 5.248167882E-01 -5.637417041E-02 -2.404600960E-01
 5.487613459E-01 -5.147764472E-02 -1.766474531E-01
 4.281720617E-01 -1.614464935E-01 -3.549269264E-01
 4.350360597E-01 -6.664559596E-02 -4.833703915E-01
 5.215715138E-01 -1.735414555E-01 -1.950276378E-01
 6.305172854E-01 -4.859431473E-02 -3.961138564E-03
 5.776308972E-01 -2.287378145E-01 -9.319088022E-02
 6.196423407E-01 -1.536383626E-01 -3.248063401E-02
 6.722306684E-01 -2.164447095E-01 2.142836125E-02
 7.297649384E-01 -2.753612117E-02 1.542446818E-01
 7.140549461E-01 -1.439494065E-01 8.484429380E-02
 7.662985434E-01 -2.104827251E-01 1.087371812E-01
 8.430829488E-01 -1.550858713E-02 2.983472341E-01
 8.259580775E-01 -1.636390724E-02 2.804845910E-01
 8.077030324E-01 -1.366197527E-01 1.782352601E-01
 8.513904776E-01 -1.882973257E-01 1.670293767E-01
 9.675200658E-01 -1.149879846E-02 3.607170390E-01
 9.447408530E-01 -7.320083519E-03 3.652981541E-01
 9.027469806E-01 -1.473836452E-01 2.179546995E-01
 9.556786857E-01 -2.072176180E-01 1.792242871E-01
 9.981640571E-01 -1.206702619E-01 2.210367901E-01
 1.046476913E+00 -1.903138592E-01 1.618390885E-01
 1.096783003E+00 -1.188916568E-01 1.639845801E-01
 1.010921186E+00 -3.142976721E-01 1.342650776E-01
 1.165308409E+00 -2.006312103E-01 1.227523573E-01
 1.183626593E+00 -9.187778405E-02 1.051151151E-01
 1.153778543E+00 2.383076473E-02 1.073019639E-01
 1.278612056E+00 2.440870408E-02 6.365110039E-02
 1.204281855E+00 1.589188709E-01 5.325962224E-02
 1.366841566E+00 1.873984303E-01 2.283807404E-02
 3.632765246E-01 -1.483459749E-01 -4.118899369E-01
 8.498572526E-01 -8.810318297E-02 2.378830255E-01
 1.036667294E+00 -6.800955891E-02 2.279798394E-01
 7.561914800E-01 -9.570625445E-02 1.478243737E-01
 9.465618788E-01 -8.053046361E-02 2.776314847E-01
 6.608854746E-01 -1.001307495E-01 2.869229680E-02
 1.237366259E+00 3.435285575E-01 -1.725278759E-03
 1.011781309E+00 1.862127583E-01 2.403272083E-02
 9.743534063E-01 1.936100793E-02 1.663139202E-01
 1.501463484E+00 -3.209574022E-03 3.143740669E-02
 5.766974145E-01 -1.171724516E-01 -1.038395607E-01
 4.800292276E-01 -1.193107277E-01 -3.096027777E-01
 1.075405970E+00 2.588890793E-02 1.554642326E-01
 5.414717974E-01 -3.392559420E-01 -1.146173379E-01
 5.286076663E-01 -4.975606610E-01 -9.387323175E-02
 8.311270880E-01 -3.253441889E-01 1.023065305E-01
 3.998787189E-01 -1.170344668E-01 -4.500202848E-01
 2.184702047E-01 -1.194701522E-01 -3.284050263E-01
 3.607893999E-01 -1.010001216E-01 -4.912301255E-01
 3.237051030E-01 -1.094952769E-01 -4.552998108E-01
 3.044659745E-01 -6.659384629E-02 -5.065872242E-01
 3.731121878E-01 -6.324191593E-02 -5.679070114E-01
 -8.230578856E-03 6.061064149E-02 4.027332472E-01
 1.034959318E-02 1.844856038E-02 3.665608764E-01
 1.899550797E-02 2.535240281E-02 2.487977486E-01
 3.106831293E-02 7.165533322E-02 1.355539133E-01
 4.926544476E-02 4.085012905E-02 -2.194335790E-02
 1.422209345E+00 4.332941553E-01 -1.104824792E-02
 3.040261263E-01 -1.615425446E-01 -3.695713254E-01
 1.458765451E-01 -9.557042619E-02 -2.546001634E-01
 1.583147667E-01 -5.664599524E-02 -3.161091249E-01
 1.844805289E-01 -1.002851653E-01 -2.991138723E-01
 2.060063524E-01 -6.231776277E-02 -3.723887837E-01
 1.304750091E+00 -1.875691819E-01 7.126620776E-02
 1.229293556E+00 -3.785336350E-01 8.564726426E-02
 1.005066457E+00 -5.044242478E-01 8.661590762E-02
 3.277824987E-01 -6.629577179E-02 -5.335744801E-01
 3.373837130E-01 -8.322811187E-02 -5.125248843E-01
 3.541983396E-01 -7.780859075E-02 -5.358925071E-01
 3.175257468E-01 -7.907459337E-02 -5.011645417E-01
 2.956114826E-01 -8.367802986E-02 -4.716112752E-01
 2.700456021E-01 -8.411277642E-02 -4.365515393E-01
 2.562749540E-01 -6.600540920E-02 -4.411537820E-01
 2.426152804E-01 -8.588170177E-02 -3.932705504E-01
 2.132175036E-01 -8.132673554E-02 -3.588546850E-01
 2.600244123E-01 -1.243919999E-01 -3.760543359E-01
 3.165550678E-01 -6.410140899E-02 -5.244286016E-01
 2.927067921E-01 -6.477741574E-02 -4.950254855E-01
 1.412315318E-02 -6.670500320E-02 1.787429106E-01
 5.780115909E-02 -7.416027816E-02 -9.638029110E-02
 5.169617190E-02 -3.825748917E-02 -1.386896828E-01
 3.526037543E-01 -6.345948896E-02 -5.611004474E-01
 2.434332137E-01 -6.369569558E-02 -4.251765872E-01
 2.683119287E-01 -6.427093795E-02 -4.629741543E-01
 2.173901111E-01 -6.127649394E-02 -3.905088527E-01
 3.624892249E-01 -6.527124050E-02 -5.618698056E-01
 9.004988102E-02 -7.355968809E-02 -1.976435677E-01
 5.875459023E-02 -5.287332248E-02 -1.283249710E-01
 2.552432953E+00 2.123944719E-01 -5.986044712E-04
 -1.942896664E-02 3.136010227E-02 5.608251987E-01
 4.138393810E-03 1.416369974E-02 5.260253697E-01
 -1.958184689E-02 6.266357067E-03 7.851984596E-01
 -9.904064883E-03 -1.324187162E-02 6.993455608E-01
 3.874092214E-01 -9.120713585E-02 -5.077468218E-01
 4.176807412E-01 -9.038477634E-02 -4.740323261E-01
 4.155281894E-01 -7.250293623E-02 -5.141096631E-01
 4.493579313E-01 -9.151000353E-02 -4.135464311E-01
 4.556241798E-01 -7.119976338E-02 -4.294192643E-01
 4.721356834E-01 -8.629297572E-02 -3.625546108E-01
 4.949466444E-01 -5.922530349E-02 -3.268761907E-01
 5.075085999E-01 -9.211357035E-02 -2.722793128E-01
 5.457084898E-01 -8.818747691E-02 -1.734807869E-01
 5.784594556E-01 -8.710102351E-02 -1.047025442E-01
 6.013134180E-01 -4.748291391E-02 -5.844629001E-02
 6.117951959E-01 -9.472008602E-02 -4.372067653E-02
 5.105807188E-01 -5.957704181E-02 -2.826950616E-01
 6.354982362E-01 -7.624804150E-02 1.067244260E-03
 6.582478459E-01 -3.884731570E-02 4.689718385E-02
 6.449215152E-01 -3.980607294E-02 2.261219368E-02
 6.549140738E-01 -5.911131790E-02 3.643778525E-02
 6.847389429E-01 -7.264721823E-02 7.859764519E-02
 7.116198301E-01 -3.152745934E-02 1.275690476E-01
 6.150192373E-01 -6.403815386E-02 -3.308743708E-02
 6.723473283E-01 -5.025784558E-02 6.678070535E-02
 5.889536044E-01 -4.642327157E-02 -8.596302535E-02
 5.922192377E-01 -6.445996244E-02 -7.941319319E-02
 1.174122574E-01 -7.313165812E-02 -2.372969798E-01
 1.447000129E-01 -6.754905316E-02 -2.841467698E-01
 1.683603665E-01 -7.282520354E-02 -3.087742656E-01
 1.913776591E-01 -7.210290729E-02 -3.411843312E-01
 7.658210433E-04 4.068458608E-02 4.748517900E-01
 1.667391746E-02 4.882509365E-02 2.993534339E-01
 3.625206688E-02 4.630058274E-02 8.965155168E-02
 2.284339656E-02 3.626188457E-02 1.920017114E-01
 -1.078702343E-01 -2.994571468E-01 1.200967175E-01
 9.586311697E-02 -5.502816487E-02 -2.292030305E-01
 4.861539499E-01 -7.241467468E-02 -3.366355398E-01
 5.043236006E-01 -7.249662261E-02 -2.914088573E-01
 1.697379503E+00 -1.219227452E-01 2.215294765E-02
 5.627040900E-01 -6.487234277E-02 -1.407189787E-01
 1.097684845E+00 -4.109529147E-02 1.501874882E-01
 1.036332964E+00 -1.752228633E-02 2.179044733E-01
 1.003826256E+00 -4.087486685E-02 2.889863595E-01
 3.932340811E-02 -5.131089580E-02 -3.238460424E-02
 7.574626525E-02 2.581209738E-01 -2.294545179E-02
 2.607277303E-01 3.103383881E-01 -2.718226206E-01
 2.711115830E-01 1.981639257E-01 -3.799853368E-01
 3.256175011E-01 8.006214294E-02 -5.735063091E-01
 3.622410219E-01 2.493183908E-01 -4.322362444E-01
 3.547515523E-01 1.658213999E-01 -5.087681036E-01
 4.036483463E-01 8.787697443E-02 -6.532386546E-01
 4.409487916E-01 1.896839202E-01 -5.638542739E-01
 4.807750428E-01 8.350857824E-02 -7.377835792E-01
 4.623955929E-01 2.844314839E-01 -4.729340669E-01
 5.377532735E-01 2.081867242E-01 -5.951410143E-01
 5.629172515E-01 7.978640991E-02 -7.906161947E-01
 5.720315369E-01 3.227041756E-01 -4.725056593E-01
 6.466167000E-01 2.249208370E-01 -5.160486923E-01
 6.583036325E-01 7.259379345E-02 -5.772945895E-01
 6.811026540E-01 7.116845997E-02 -5.100236363E-01
 6.002957134E-01 1.543355754E-01 -6.478727941E-01
 6.853524941E-01 1.588645245E-01 -4.604409512E-01
 7.660198026E-01 5.774161184E-02 -3.313675677E-01
 7.435083929E-01 5.993902277E-02 -3.787311710E-01
 7.953038540E-01 5.461448192E-02 -2.800170151E-01
 7.290942347E-01 2.223553597E-01 -3.454597519E-01
 7.739073801E-01 1.516499395E-01 -2.861959551E-01
 8.648952823E-01 4.162677103E-02 -1.439392628E-01
 8.252504867E-01 2.143446589E-01 -2.035121213E-01
 8.472072963E-01 1.504449592E-01 -1.708883431E-01
 2.027029065E-01 1.601900018E-01 -3.353861856E-01
 1.066122771E-01 1.536257302E-01 -1.375786787E-01
 5.448361484E-01 1.431169106E-01 -6.908397413E-01
 6.810868003E-01 3.380340225E-01 -3.747736028E-01
 6.457220377E-01 1.204102686E-01 -5.880775828E-01
 6.354141422E-01 7.477495199E-02 -6.545031943E-01
 7.220643294E-01 1.183422388E-01 -3.878709499E-01
 9.143526238E-01 2.131028914E-01 -8.137190162E-02
 8.053930012E-01 1.038153998E-01 -2.480292457E-01
 8.604966793E-01 9.211449933E-02 -1.490498609E-01
 8.413967835E-01 4.465982426E-02 -1.988102780E-01
 9.045376100E-01 1.279073730E-01 -6.852768108E-02
 1.001763397E+00 1.092881829E-01 8.130485414E-02
 2.983050779E-01 1.399596060E-01 -4.746587488E-01
 4.059088562E-01 1.399616623E-01 -5.924426560E-01
 4.524939018E-01 1.383081057E-01 -6.361903301E-01
 9.032100454E-01 7.404990201E-02 -5.632096070E-02
 8.955396767E-01 3.573829372E-02 -6.859674345E-02
 8.737385335E-02 1.025436701E-01 -1.272957791E-01
 9.324461867E-02 5.537315625E-02 -2.112584713E-01
 4.395757947E-01 4.288082267E-01 -3.354352562E-01
 1.643905749E-01 1.224314484E-01 -3.159485644E-01
 1.263781594E-01 1.018960889E-01 -2.471187560E-01
 1.536929968E-01 6.700053498E-02 -3.710415765E-01
 3.403206214E-01 1.236293829E-01 -5.374955526E-01
 5.765158015E-01 1.124002161E-01 -7.285913905E-01
 5.868599245E-01 7.604524451E-02 -7.688014129E-01
 6.087380278E-01 1.137085250E-01 -6.867979054E-01
 3.761324850E-01 1.175012215E-01 -5.792354285E-01
 6.447048746E-02 8.023867356E-02 -4.824965734E-02
 1.015601068E-01 7.538431132E-02 -2.014274038E-01
 1.367723440E-01 7.692908149E-02 -3.130018806E-01
 5.484587271E-02 5.591306621E-02 -3.241531297E-02
 3.078019576E-01 1.101486588E-01 -5.177806234E-01
 2.735357206E-01 1.126783188E-01 -4.845367460E-01
 5.442967865E-01 1.125955138E-01 -7.445683231E-01
 5.173684814E-01 1.209754338E-01 -7.161524936E-01
 5.417185256E-01 8.129421038E-02 -7.979763692E-01
 4.977018060E-01 1.548052055E-01 -6.543674220E-01
 8.381185790E-01 3.397814169E-01 -1.961241097E-01
 3.084479307E-01 8.663023408E-02 -5.478165583E-01
 8.282785923E-01 7.895235070E-02 -2.151511716E-01
 4.278099329E-01 1.189125541E-01 -6.404514241E-01
 4.036537446E-01 1.098425766E-01 -6.254695661E-01
 7.662987190E-02 6.091341783E-02 -1.375455405E-01
 5.530742197E-01 7.854528176E-02 -7.973741229E-01
 5.302977705E-01 9.623902310E-02 -7.676855648E-01
 5.005633133E-01 9.633785448E-02 -7.391986358E-01
 1.434340991E-01 6.213811194E-02 -3.545044299E-01
 1.570459369E-01 8.679120788E-02 -3.453791451E-01
 1.835506825E-01 9.181332467E-02 -3.953745269E-01
 2.156240830E-01 1.143256191E-01 -4.075136070E-01
 1.969262701E-01 7.758743028E-02 -4.349894296E-01
 2.511312270E-01 1.382256528E-01 -4.252088527E-01
 2.446771168E-01 1.038593603E-01 -4.604155150E-01
 1.337618408E-01 6.072765158E-02 -3.326097233E-01
 4.169352132E-01 8.314617479E-02 -6.756360917E-01
 3.838940951E-01 9.573242184E-02 -6.189402551E-01
 4.280717455E-01 8.335630481E-02 -6.872741390E-01
 5.294458542E-01 8.019161097E-02 -7.980571448E-01
 7.986762060E-01 7.599337251E-02 -2.667583005E-01
 8.305316117E-01 5.720570903E-02 -2.155865618E-01
 8.536123247E-01 5.842285725E-02 -1.692570252E-01
 8.765407552E-01 5.891896478E-02 -1.148523980E-01
 9.493583533E-01 5.036555715E-01 -1.211474203E-01
 1.068230025E-01 6.205185821E-02 -2.525897637E-01
 8.110609845E-01 6.140903477E-02 -2.480050489E-01
 4.376936939E-01 -1.167759718E-01 -4.052567119E-01
 6.805746969E-01 -4.055796995E-01 -4.622837672E-03
 5.990149214E-01 7.462618104E-02 -7.514887010E-01
 5.979717132E-01 9.062410456E-02 -7.314083483E-01
 6.251659203E-01 9.109181981E-02 -6.723033556E-01
 6.469195268E-01 8.635829041E-02 -6.071663224E-01
 6.686177476E-01 8.808081378E-02 -5.370787032E-01
 6.942357374E-01 9.000120523E-02 -4.628689604E-01
 5.752910769E-01 8.672391139E-02 -7.697450847E-01
 6.831984693E-01 1.151398102E-01 -4.796949307E-01
 7.202887920E-01 8.673932518E-02 -4.125308402E-01
 7.561928282E-01 9.803412973E-02 -3.353621415E-01
 7.240332546E-01 7.029553164E-02 -4.134971999E-01
 7.755279554E-01 7.757464626E-02 -3.050613598E-01
 7.398619801E-01 7.604993517E-02 -3.806913038E-01
 7.560943801E-01 6.835283804E-02 -3.477716192E-01
 1.083443668E+00 1.210913254E-01 9.859129379E-02
 4.529213541E-01 1.072187270E-01 -6.782001345E-01
 4.570731100E-01 8.966545424E-02 -7.081629786E-01
 4.819077399E-01 1.186507242E-01 -6.891272786E-01
 1.457139213E+00 6.491262262E-01 -3.544112352E-02
 5.231889128E-01 -7.478548263E-02 -2.387779546E-01
 3.858662757E-01 -6.739872715E-02 -5.519136328E-01
 6.140342638E-01 -4.491581262E-02 -3.268004510E-02
 6.466167234E-01 7.100455496E-02 -6.164320195E-01
 5.617213909E-01 -4.924458307E-02 -1.469776422E-01
 8.060871283E-01 4.830008437E-02 -2.642854276E-01
 3.706441082E-01 -7.765462197E-02 -5.366543471E-01
 6.704778436E-01 -3.463001506E-02 6.591182238E-02
 6.977696554E-01 -3.126621333E-02 1.082449150E-01
 7.007165149E-01 -4.824887045E-02 1.029053115E-01
 7.235886690E-01 -6.757243963E-02 1.263087354E-01
 7.221746992E-01 -4.382651217E-02 1.366713952E-01
 7.441295458E-01 -4.462073313E-02 1.621078848E-01
 7.819759280E-01 -5.967928183E-02 1.979321333E-01
 7.613988101E-01 -2.321879262E-02 1.968756866E-01
 7.492174100E-01 -2.795728782E-02 1.798646708E-01
 7.640314671E-01 -3.996616887E-02 1.919456119E-01
 7.730488236E-01 -2.378183446E-02 2.096216873E-01
 7.818440614E-01 -3.625359641E-02 2.161226118E-01
 8.050915271E-01 -4.827073615E-02 2.342810140E-01
 8.071473265E-01 -8.041400585E-02 2.150502231E-01
 8.412733140E-01 -4.955823225E-02 2.648948225E-01
 8.769608289E-01 -5.796369480E-02 2.849916574E-01
 8.673967602E-01 -1.622423798E-02 3.198720162E-01
 8.664683763E-01 -3.707404091E-02 2.997964391E-01
 8.925022153E-01 -3.572549197E-02 3.137359702E-01
 8.842916831E-01 -1.714347406E-02 3.301612187E-01
 9.176963795E-01 -3.042414967E-02 3.311080925E-01
 9.269991780E-01 -7.561935855E-03 3.625962613E-01
 9.172675835E-01 -6.245434240E-03 3.624811139E-01
 9.357286838E-01 -5.887911316E-03 3.657255496E-01
 9.351055148E-01 -1.801847306E-02 3.510730001E-01
 9.537714625E-01 -1.906998211E-02 3.440518251E-01
 9.717555336E-01 -3.102223374E-02 3.276639551E-01
 9.442887621E-01 -4.185954521E-02 3.194926765E-01
 9.862177895E-01 -1.820833657E-02 3.315579509E-01
 1.005871518E+00 -1.964694260E-02 3.366687003E-01
 8.362427375E-01 -2.836834331E-02 2.807890261E-01
 9.133269465E-01 -5.570211982E-02 3.021759027E-01
 9.835439636E-01 -6.382782170E-02 2.798763426E-01
 8.956351964E-01 -9.176842721E-03 3.487794365E-01
 6.974726555E-01 -1.029888120E-01 8.318518967E-02
 2.763879265E-01 9.003367039E-02 -5.134256022E-01
 6.690236325E-01 6.959067916E-02 -5.450112566E-01
 8.524430620E-01 4.106837838E-02 -1.740252945E-01
 3.133974596E+00 6.339745962E-01 -2.241322825E-03
 8.559810729E-01 -1.278690310E-02 3.130945772E-01
 8.011297804E-02 4.884708198E-02 -1.709910659E-01
 5.682899220E-01 -7.061633531E-01 -4.924260373E-02