TITLE     = "Visualization of the solution"
VARIABLES = "x"
"y"
"Pressure_Coefficient"
ZONE T="Zone"
 STRANDID=0, SOLUTIONTIME=0
 Nodes=700, Elements=1185, ZONETYPE=FEQuadrilateral
 DATAPACKING=POINT
 DT=(DOUBLE DOUBLE DOUBLE )
 1.000283241E+00 5.215533893E-04 2.793585665E-01
 9.869382381E-01 2.871621866E-03 2.347501562E-01
 9.745589495E-01 5.050253589E-03 1.362583973E-01
 9.603255987E-01 7.516614161E-03 8.813659365E-02
 9.470138550E-01 9.870814160E-03 2.861300713E-02
 9.345449805E-01 1.207807939E-02 -5.818871245E-03
 9.228863716E-01 1.396714151E-02 -3.966688392E-02
 9.105523229E-01 1.608247310E-02 -7.711795366E-02
 8.984368443E-01 1.798886992E-02 -1.062346652E-01
 8.859965801E-01 1.995822228E-02 -1.369223224E-01
 8.733008504E-01 2.183945477E-02 -1.600996726E-01
 8.612971902E-01 2.357607707E-02 -1.767156109E-01
 8.484455347E-01 2.533484437E-02 -1.852684531E-01
 8.365491033E-01 2.692229301E-02 -1.987605477E-01
 8.247193098E-01 2.848749422E-02 -2.155939999E-01
 8.116397262E-01 3.017228469E-02 -2.270334128E-01
 7.983978987E-01 3.180202469E-02 -2.391499107E-01
 7.865614891E-01 3.326047212E-02 -2.536522433E-01
 7.741407752E-01 3.475013375E-02 -2.659219152E-01
 7.618865967E-01 3.618752584E-02 -2.784779364E-01
 7.489045858E-01 3.767919913E-02 -2.962812629E-01
 7.350930572E-01 3.924971446E-02 -3.156201111E-01
 7.242069840E-01 4.044732451E-02 -3.329602032E-01
 7.130184770E-01 4.165793210E-02 -3.486343506E-01
 7.012358308E-01 4.288496077E-02 -3.668104856E-01
 6.875363588E-01 4.428640381E-02 -3.880353199E-01
 6.743671894E-01 4.557722062E-02 -4.036953425E-01
 6.641169786E-01 4.653696343E-02 -4.206359386E-01
 6.525371075E-01 4.761613160E-02 -4.417542658E-01
 6.415758729E-01 4.858347774E-02 -4.601592564E-01
 6.296766996E-01 4.959698766E-02 -4.763044921E-01
 6.185541153E-01 5.048333481E-02 -4.924774250E-01
 6.074740291E-01 5.133965611E-02 -5.127158521E-01
 5.949776769E-01 5.224480480E-02 -5.342340200E-01
 5.830296278E-01 5.305446312E-02 -5.487004844E-01
 5.693674684E-01 5.388748646E-02 -5.586497952E-01
 5.565361977E-01 5.460590497E-02 -5.707454912E-01
 5.439377427E-01 5.525145680E-02 -5.820871957E-01
 5.330029130E-01 5.575232953E-02 -5.870862281E-01
 5.209615231E-01 5.623273551E-02 -5.921348890E-01
 5.080464482E-01 5.669166520E-02 -5.952465329E-01
 4.970270395E-01 5.700575560E-02 -5.933954534E-01
 4.838051200E-01 5.732407793E-02 -5.955448515E-01
 4.709171057E-01 5.756802857E-02 -5.919508951E-01
 4.564248621E-01 5.773526058E-02 -5.832586456E-01
 4.423859119E-01 5.780883878E-02 -5.737111173E-01
 4.292283058E-01 5.780141428E-02 -5.655801454E-01
 4.159562588E-01 5.772856995E-02 -5.591244888E-01
 4.036374986E-01 5.759518594E-02 -5.482911369E-01
 3.909850717E-01 5.738010630E-02 -5.380136221E-01
 3.787186146E-01 5.712323263E-02 -5.295004933E-01
 3.675724566E-01 5.683047697E-02 -5.180193777E-01
 3.544611335E-01 5.642465502E-02 -5.080507031E-01
 3.424387574E-01 5.599117279E-02 -4.989570576E-01
 3.300903738E-01 5.549050495E-02 -4.906487198E-01
 3.195969462E-01 5.500980094E-02 -4.782387202E-01
 3.074479997E-01 5.439876765E-02 -4.670225848E-01
 2.943000495E-01 5.368079245E-02 -4.538171624E-01
 2.802932858E-01 5.282803252E-02 -4.445783054E-01
 2.674408555E-01 5.199249834E-02 -4.315116787E-01
 2.552151084E-01 5.111093447E-02 -4.165878312E-01
 2.423961610E-01 5.013935268E-02 -4.048128300E-01
 2.293246239E-01 4.907779023E-02 -3.933677879E-01
 2.169619203E-01 4.800187796E-02 -3.825588031E-01
 2.051064521E-01 4.691396281E-02 -3.723486493E-01
 1.938011646E-01 4.580622911E-02 -3.602497167E-01
 1.814152747E-01 4.453518614E-02 -3.518069270E-01
 1.694544256E-01 4.322066531E-02 -3.354496349E-01
 1.577010006E-01 4.187002406E-02 -3.208942649E-01
 1.456571370E-01 4.039453343E-02 -3.061636813E-01
 1.348565966E-01 3.900058195E-02 -2.937393862E-01
 1.234715283E-01 3.745736927E-02 -2.820201502E-01
 1.120373160E-01 3.581058607E-02 -2.705572582E-01
 1.014322862E-01 3.418982774E-02 -2.595851215E-01
 9.170604497E-02 3.261432424E-02 -2.433979817E-01
 8.062391728E-02 3.070600517E-02 -2.225109321E-01
 6.883554906E-02 2.852158435E-02 -2.041650796E-01
 5.930611864E-02 2.660064213E-02 -1.816074930E-01
 4.985421523E-02 2.453640848E-02 -1.594518509E-01
 4.119264334E-02 2.246332169E-02 -1.285706268E-01
 3.384371102E-02 2.052740566E-02 -1.070986782E-01
 2.757884376E-02 1.870759763E-02 -8.272568362E-02
 2.223043703E-02 1.698635146E-02 -4.724901123E-02
 1.840089448E-02 1.562861912E-02 -1.738365278E-02
 1.485790871E-02 1.424605679E-02 2.911153027E-03
 1.234504580E-02 1.315977145E-02 3.717340776E-02
 1.012100466E-02 1.211065520E-02 6.803359583E-02
 8.485651575E-03 1.127382461E-02 1.188710168E-01
 6.990968250E-03 1.044134330E-02 1.461401816E-01
 5.562835839E-03 9.566717781E-03 1.751653387E-01
 3.694297979E-03 8.270563558E-03 2.143018717E-01
 2.083166968E-03 6.944040768E-03 2.372353348E-01
 7.028779364E-04 5.525810178E-03 5.232642813E-01
 -6.271722377E-04 3.646287601E-03 6.409811147E-01
 -1.301793265E-03 2.115286421E-03 6.765651154E-01
 -1.599187381E-03 8.911049808E-04 1.065271228E+00
 -1.675532898E-03 -6.056657876E-04 8.217007556E-01
 -1.394624473E-03 -2.385756234E-03 9.807341486E-01
 -6.152293645E-04 -4.388954025E-03 7.865203883E-01
 7.607850712E-04 -6.577417720E-03 9.175881673E-01
 2.771297470E-03 -8.877853863E-03 4.718759419E-01
 4.573707003E-03 -1.053397451E-02 5.114627560E-01
 6.726844702E-03 -1.223342121E-02 3.732137451E-01
 8.294363506E-03 -1.333796047E-02 3.064577021E-01
 1.026641577E-02 -1.460300386E-02 2.362881818E-01
 1.262046397E-02 -1.598607004E-02 2.283938188E-01
 1.578214951E-02 -1.766306348E-02 1.671964138E-01
 1.887256652E-02 -1.915636286E-02 9.342612098E-02
 2.283110842E-02 -2.089249901E-02 4.568598440E-02
 2.819881402E-02 -2.300400659E-02 1.315524185E-02
 3.379706666E-02 -2.499761991E-02 -2.489052496E-02
 4.110190272E-02 -2.733603865E-02 -7.645474876E-02
 4.851391912E-02 -2.946148068E-02 -1.246578502E-01
 5.723326281E-02 -3.174056485E-02 -1.624529440E-01
 6.575423479E-02 -3.377341852E-02 -1.926940717E-01
 7.593778521E-02 -3.600327298E-02 -2.161965700E-01
 8.584582061E-02 -3.800321743E-02 -2.390288746E-01
 9.627895057E-02 -3.994825110E-02 -2.636336510E-01
 1.070607528E-01 -4.182176664E-02 -2.849151533E-01
 1.185247451E-01 -4.368474707E-02 -3.068663366E-01
 1.297640651E-01 -4.537434131E-02 -3.264099915E-01
 1.402668208E-01 -4.687520489E-02 -3.427071393E-01
 1.511564255E-01 -4.833033681E-02 -3.620471883E-01
 1.629596353E-01 -4.981635511E-02 -3.778749844E-01
 1.745325029E-01 -5.117674172E-02 -3.973637113E-01
 1.863320023E-01 -5.247617140E-02 -4.157116446E-01
 1.967455596E-01 -5.355261639E-02 -4.349575082E-01
 2.079608440E-01 -5.463523790E-02 -4.547962305E-01
 2.202458084E-01 -5.573125184E-02 -4.707656769E-01
 2.326108813E-01 -5.674193427E-02 -4.900045724E-01
 2.448461652E-01 -5.765765533E-02 -5.102337692E-01
 2.575494051E-01 -5.850835890E-02 -5.315947589E-01
 2.688836753E-01 -5.918687209E-02 -5.530041741E-01
 2.818989456E-01 -5.986540020E-02 -5.726560911E-01
 2.946764529E-01 -6.041985005E-02 -5.938690667E-01
 3.076311052E-01 -6.088741124E-02 -6.178955905E-01
 3.192387223E-01 -6.118390337E-02 -6.404943205E-01
 3.316905797E-01 -6.140538678E-02 -6.577029701E-01
 3.422883451E-01 -6.148659065E-02 -6.727735872E-01
 3.536845744E-01 -6.150214002E-02 -6.823825424E-01
 3.647749424E-01 -6.139807031E-02 -6.882636870E-01
 3.755772412E-01 -6.121142209E-02 -6.888772432E-01
 3.869327605E-01 -6.089577079E-02 -6.829381865E-01
 3.996044695E-01 -6.042624637E-02 -6.716530769E-01
 4.117394388E-01 -5.984048918E-02 -6.526106109E-01
 4.251587391E-01 -5.906452611E-02 -6.248477291E-01
 4.378754497E-01 -5.815402418E-02 -5.864424594E-01
 4.511363506E-01 -5.710934103E-02 -5.420196567E-01
 4.635784924E-01 -5.596978217E-02 -4.976186930E-01
 4.761869013E-01 -5.471828580E-02 -4.499113377E-01
 4.879883826E-01 -5.345816165E-02 -4.081206234E-01
 5.003598928E-01 -5.204748735E-02 -3.697214215E-01
 5.141258240E-01 -5.037071556E-02 -3.222480921E-01
 5.279557705E-01 -4.860002548E-02 -2.781386288E-01
 5.414712429E-01 -4.680972174E-02 -2.407800486E-01
 5.553300381E-01 -4.487682134E-02 -2.015158594E-01
 5.680624843E-01 -4.307645932E-02 -1.626632114E-01
 5.814577937E-01 -4.113653302E-02 -1.284356152E-01
 5.938171148E-01 -3.935082629E-02 -1.003458700E-01
 6.061789989E-01 -3.753376752E-02 -7.600369307E-02
 6.193150282E-01 -3.557573259E-02 -4.733101037E-02
 6.334598064E-01 -3.347626328E-02 -1.797569714E-02
 6.470036507E-01 -3.145043552E-02 8.978435871E-03
 6.606925726E-01 -2.945410460E-02 3.116457600E-02
 6.741756201E-01 -2.743688226E-02 5.343345815E-02
 6.868801713E-01 -2.558908053E-02 7.593046233E-02
 6.992397308E-01 -2.376671694E-02 9.699995574E-02
 7.139084339E-01 -2.167508379E-02 1.168661007E-01
 7.266500592E-01 -1.982391067E-02 1.397991341E-01
 7.383530140E-01 -1.820316538E-02 1.593718842E-01
 7.505386472E-01 -1.652079262E-02 1.745134162E-01
 7.634685040E-01 -1.481553353E-02 1.902154345E-01
 7.761013508E-01 -1.315006334E-02 2.063532712E-01
 7.879211307E-01 -1.162758004E-02 2.254040262E-01
 8.001295924E-01 -1.008619741E-02 2.445249473E-01
 8.114100099E-01 -8.754066192E-03 2.597396659E-01
 8.227826357E-01 -7.445546798E-03 2.720924915E-01
 8.350946903E-01 -6.104384083E-03 2.871008804E-01
 8.470943570E-01 -4.861364607E-03 3.028996524E-01
 8.591225743E-01 -3.718696302E-03 3.162455279E-01
 8.710003495E-01 -2.682071412E-03 3.279429971E-01
 8.829283118E-01 -1.743679750E-03 3.391952699E-01
 8.962599635E-01 -8.620417211E-04 3.479080783E-01
 9.063807130E-01 -2.954175579E-04 3.542472175E-01
 9.164590836E-01 1.766691421E-04 3.572423503E-01
 9.259120822E-01 5.306052044E-04 3.589160220E-01
 9.352090955E-01 7.900192868E-04 3.605720096E-01
 9.477299452E-01 1.019562013E-03 3.561417956E-01
 9.618068933E-01 1.107854769E-03 3.594268046E-01
 9.768962264E-01 1.023232471E-03 3.591576770E-01
 9.897049069E-01 7.963413373E-04 3.509458633E-01
 -5.000000000E-01 -1.000000000E+00 4.656806196E-02
 3.500000000E+00 -1.000000000E+00 1.157481362E-02
 3.500000000E+00 1.000000000E+00 2.928888599E-04
 -5.000000000E-01 1.000000000E+00 4.490256699E-02
 -5.000000000E-01 5.000000000E-01 8.782751265E-02
 -5.000000000E-01 2.752797990E-12 1.377631263E-01
 -5.000000000E-01 -5.000000000E-01 9.323228737E-02
 -9.421907698E-13 -1.000000000E+00 2.294916351E-02
 5.000000000E-01 -1.000000000E+00 -2.790504514E-02
 1.000000000E+00 -1.000000000E+00 -5.465019546E-03
 1.500000000E+00 -1.000000000E+00 2.657601134E-02
 2.000000000E+00 -1.000000000E+00 2.465061769E-02
 2.500000000E+00 -1.000000000E+00 1.716798661E-02
 3.000000000E+00 -1.000000000E+00 1.286505123E-02
 3.500000000E+00 -5.000000000E-01 1.234991014E-02
 3.500000000E+00 -2.752797990E-12 1.188448890E-02
 3.500000000E+00 5.000000000E-01 6.384441399E-03
 3.000000000E+00 1.000000000E+00 -5.423267862E-03
 2.500000000E+00 1.000000000E+00 -1.310963878E-02
 2.000000000E+00 1.000000000E+00 -2.767937394E-02
 1.500000000E+00 1.000000000E+00 -6.582300526E-02
 1.000000000E+00 1.000000000E+00 -1.135343540E-01
 5.000000000E-01 1.000000000E+00 -7.435754728E-02
 1.733724275E-12 1.000000000E+00 1.075611654E-02
 6.833775889E-01 -3.861617167E-02 6.523158118E-02
 7.864958754E-01 -2.322869000E-02 2.160737277E-01
 9.021742469E-01 -1.110037954E-02 3.361003880E-01
 5.897647664E-01 -5.350365796E-02 -1.096918015E-01
 7.100686385E-01 5.343334845E-02 -3.479206615E-01
 2.743892056E-01 6.538197333E-02 -4.248876401E-01
 2.761118045E-01 -7.192803080E-02 -5.441216052E-01
 8.045129223E-01 4.477580414E-02 -2.280157581E-01
 9.053049093E-01 2.905248079E-02 -8.515000702E-02
 6.131961882E-01 6.291248343E-02 -4.923301940E-01
 4.179292167E-01 -6.928898351E-02 -6.190676585E-01
 4.344563711E-01 6.785343225E-02 -5.585875212E-01
 1.709859596E+00 -5.387588131E-01 2.861826718E-02
 1.782019470E+00 6.616549357E-01 -2.025134949E-02
 3.031182579E+00 2.156807562E-01 5.531651815E-03
 7.500000000E-01 -5.669872981E-01 -5.717943746E-03
 4.966379362E-01 -6.215869988E-02 -3.729122424E-01
 3.461644407E-01 -6.043202166E-01 -1.036006578E-01
 1.119065695E-01 -5.735534129E-02 -2.708370136E-01
 1.793837038E-01 -6.134782607E-02 -3.927559266E-01
 3.452226306E-01 -7.565532286E-02 -6.457016706E-01
 7.245525591E-01 5.529751089E-01 -1.853123758E-01
 5.143119263E-01 6.489216052E-02 -5.830260380E-01
 2.734830648E+00 -5.327089511E-01 1.113974226E-02
 1.201073039E+00 6.275896217E-01 -4.970491693E-02
 9.640174168E-01 3.590049062E-01 -7.647532594E-02
 1.298022587E+00 -6.542402211E-01 4.326066407E-02
 1.504754126E+00 -2.684434257E-01 3.673334752E-02
 3.249647775E-01 6.295114289E-01 -1.064800255E-01
 1.053450021E-01 4.569587994E-02 -2.440042021E-01
 1.613811162E-01 5.263045439E-02 -3.128227767E-01
 3.464511316E-01 6.835510614E-02 -4.893571683E-01
 2.227839249E+00 -5.785426752E-01 1.459545556E-02
 2.012427461E+00 -2.119347433E-01 1.110057471E-02
 2.414604369E+00 -1.849316042E-01 6.961964405E-03
 2.184561910E+00 1.580868050E-01 1.909868357E-03
 1.784944524E+00 1.022909252E-01 6.638680210E-03
 -2.738315611E-01 2.319736655E-01 1.490295937E-01
 -1.011281844E-01 6.227997161E-01 3.002367151E-02
 2.252417489E-02 3.362662034E-01 2.017101641E-02
 4.830605469E-02 3.469477787E-02 -1.171812925E-01
 -2.710796221E-01 -2.367686345E-01 1.571774070E-01
 -1.039913397E-01 -6.163784868E-01 3.882775131E-02
 1.100121108E-01 -3.571782316E-01 -5.523629536E-02
 2.239614864E+00 5.566372902E-01 -7.795950040E-03
 2.746103646E+00 5.964234070E-01 -2.018303644E-03
 -2.350519629E-01 -4.644732329E-03 2.029140561E-01
 -1.273582953E-01 1.261881711E-01 2.211047381E-01
 -1.092558832E-01 -1.271253072E-01 2.367344065E-01
 6.183496363E-02 -4.142651470E-02 -1.529971290E-01
 -7.198773977E-02 -3.065251348E-01 9.382272127E-02
 -1.136373561E-03 -1.661749287E-01 1.387596311E-01
 1.653195813E-01 -2.155647671E-01 -2.044314322E-01
 2.263918049E-01 -7.244845328E-02 -4.607112613E-01
 -2.935528708E-02 -9.994069383E-02 2.668803532E-01
 2.995184624E-02 -3.120504468E-02 4.178192442E-02
 -1.093503889E-01 -2.364312999E-02 3.266843913E-01
 -7.012081602E-02 5.515294153E-02 3.547085680E-01
 1.920557112E-02 1.989841072E-02 1.388111249E-02
 2.589806349E-02 -1.041070094E-01 1.142095809E-01
 3.109350822E+00 -2.612901086E-01 1.044893959E-02
 -5.061101434E-02 -3.887876151E-02 4.412041430E-01
 -5.070163786E-02 1.131859975E-02 5.413907184E-01
 -2.125628035E-02 5.261561574E-02 3.739883453E-01
 -3.848174532E-02 1.021400699E-01 2.553912694E-01
 2.687666737E-02 1.022899805E-01 7.010614426E-02
 -5.201088913E-03 1.886090562E-01 1.046261163E-01
 8.218567948E-02 1.604794211E-01 -7.229895872E-02
 2.210170320E-01 6.036138891E-02 -3.742187136E-01
 1.743102286E-01 2.874362008E-01 -1.513130672E-01
 1.988828344E-01 5.836492551E-02 -3.534989341E-01
 2.084007510E-01 1.816992632E-01 -2.525494973E-01
 2.883979826E-01 2.568462235E-01 -2.935577844E-01
 3.196079666E-01 1.722095729E-01 -3.662079973E-01
 3.781207265E-01 2.032092811E-01 -3.795371668E-01
 3.125472460E-01 6.551070656E-02 -4.621478575E-01
 3.823234839E-01 1.423382288E-01 -4.432456956E-01
 4.476183064E-01 1.822738665E-01 -4.449011620E-01
 5.648700986E-01 6.746150769E-02 -5.509525530E-01
 5.390205778E-01 6.917248473E-02 -5.686754230E-01
 4.797765346E-01 6.924289688E-02 -5.803062982E-01
 4.541789252E-01 2.681759816E-01 -3.720256071E-01
 5.421878581E-01 2.133930531E-01 -4.241590896E-01
 3.959724774E-01 7.066626297E-02 -5.277406786E-01
 3.714990573E-01 6.973012580E-02 -5.089543942E-01
 5.482565625E-01 3.566673724E-01 -3.184466853E-01
 6.470199175E-01 2.746840533E-01 -3.191173239E-01
 6.600734963E-01 5.671353333E-02 -4.214363103E-01
 6.340597031E-01 1.651704716E-01 -3.968086343E-01
 7.224537973E-01 2.029516556E-01 -2.770139115E-01
 7.551911591E-01 4.932701733E-02 -2.833667093E-01
 7.598455724E-01 3.040115965E-01 -2.151141162E-01
 7.033414551E-01 1.264912490E-01 -3.272401130E-01
 7.668545101E-01 1.414586451E-01 -2.403214188E-01
 8.573976197E-01 3.887260846E-02 -1.703526619E-01
 8.313829383E-01 4.113575905E-02 -2.010175168E-01
 5.628708082E-01 1.389391506E-01 -4.848627309E-01
 6.511896931E-01 1.029307026E-01 -4.089106273E-01
 2.420920873E-01 1.320831052E-01 -3.340306788E-01
 1.475460056E-01 1.290088044E-01 -2.192137715E-01
 7.443959204E-01 9.015331191E-02 -2.848718943E-01
 7.874110071E-01 8.942879037E-02 -2.324297704E-01
 8.303128211E-01 1.288585945E-01 -1.730908430E-01
 7.861432307E-01 4.529488706E-02 -2.470848506E-01
 8.097437746E-01 2.088011699E-01 -1.793597841E-01
 8.932768885E-01 1.815794565E-01 -9.816994421E-02
 9.702805779E-01 1.619742574E-02 1.112637693E-01
 9.419875938E-01 2.327115210E-02 1.410170026E-02
 9.116032191E-01 1.088437259E-01 -6.884569306E-02
 9.665433330E-01 1.410987745E-01 -7.593159616E-03
 9.658913792E-01 9.150927157E-02 2.360853507E-02
 1.027013808E+00 1.214481823E-01 6.880920710E-02
 8.631753163E-01 8.710410907E-02 -1.428726393E-01
 9.126053026E-02 1.043607580E-01 -1.445634279E-01
 3.320695222E-01 1.113914673E-01 -4.354656320E-01
 6.843515707E-01 9.076077649E-02 -3.689334858E-01
 6.834276777E-01 5.441723011E-02 -3.873822537E-01
 4.352291970E-01 1.239305331E-01 -4.999585308E-01
 9.283209990E-01 6.673961655E-02 -3.067280473E-02
 8.242227065E-01 7.739650148E-02 -1.945885682E-01
 1.285743757E-01 8.593053203E-02 -2.253870427E-01
 1.284949786E-01 4.957444804E-02 -2.703467305E-01
 1.701955973E-01 8.910946029E-02 -2.833155521E-01
 4.959009339E-01 1.359654850E-01 -5.014697542E-01
 6.699766544E-01 4.144246151E-01 -2.375002381E-01
 5.310744010E-01 1.087501033E-01 -5.266692471E-01
 1.409169063E-01 4.561298317E-01 -5.188159928E-02
 5.692875085E-01 1.044131185E-01 -5.122445566E-01
 5.907923977E-01 6.441089745E-02 -5.274520417E-01
 7.104877721E-01 8.450636940E-02 -3.347611747E-01
 7.322079445E-01 5.057490999E-02 -3.171378022E-01
 1.955579400E-02 6.122682083E-02 1.107679153E-01
 3.709445991E-02 2.847961874E-02 -8.773050728E-02
 9.597312718E-01 5.254932437E-02 3.798072827E-02
 1.001158394E+00 5.803027037E-02 1.159344671E-01
 1.070983826E+00 6.539251062E-02 1.255049561E-01
 1.116475647E+00 1.569801590E-01 6.238703487E-02
 1.183595122E+00 6.980921941E-02 7.508257557E-02
 1.259924626E+00 1.879534573E-01 3.911983775E-02
 1.112398216E+00 -6.322329646E-02 1.332326843E-01
 9.848378749E-01 -9.864747409E-03 3.679204100E-01
 9.541973219E-01 -1.405000419E-02 3.441155376E-01
 9.298208632E-01 -1.030088075E-02 3.477143127E-01
 1.213692726E+00 -3.364181113E-02 7.976552123E-02
 1.187162426E+00 -1.449305348E-01 1.006878139E-01
 1.071021012E+00 -1.439158879E-01 1.537993129E-01
 1.106630129E+00 -2.432228732E-01 1.119847298E-01
 9.887668303E-01 -2.165152630E-01 1.576374103E-01
 8.421200107E-01 -1.878490480E-02 2.818700532E-01
 1.028656212E+00 -3.792997061E-01 9.646714844E-02
 9.475613520E-01 -1.244069923E-01 2.254043113E-01
 8.785267296E-01 -1.883716534E-01 1.656234070E-01
 8.434441307E-01 -1.202714826E-01 2.003714848E-01
 7.335598684E-01 -3.256975722E-02 1.441529970E-01
 7.576983948E-01 -2.804289015E-02 1.758255606E-01
 7.802858709E-01 -1.656611121E-01 1.178961208E-01
 7.848554150E-01 -2.476343137E-01 9.312083653E-02
 6.864453061E-01 -2.216333163E-01 2.044727518E-02
 6.902104233E-01 -1.250819022E-01 4.043242569E-02
 6.295759513E-01 -4.736816057E-02 -2.916351868E-02
 6.116242704E-01 -1.672229414E-01 -7.167311026E-02
 5.384003801E-01 -6.460542170E-02 -2.446542267E-01
 5.907557082E-01 -2.521864895E-01 -1.018479856E-01
 4.975839472E-01 -2.063766157E-01 -2.705956144E-01
 4.947780090E-01 -3.126541527E-01 -2.025854991E-01
 4.059458957E-01 -2.354980121E-01 -3.607932461E-01
 7.531877159E-01 -1.004062759E-01 1.330794362E-01
 4.408161949E-01 -1.555854886E-01 -4.221278498E-01
 3.788511031E-01 -7.377896047E-02 -6.557535091E-01
 4.533192476E-01 -6.958604098E-02 -5.141985375E-01
 3.544427632E-01 -1.729670839E-01 -4.637050811E-01
 3.126000030E-01 -7.615234991E-02 -6.004059135E-01
 3.176960700E-01 -2.470632819E-01 -3.362869981E-01
 4.958241436E-01 -1.421423699E-01 -3.112428103E-01
 9.080551551E-01 -7.347650166E-02 2.655919514E-01
 1.042440628E+00 -6.582753151E-02 1.935959932E-01
 1.062684419E+00 -5.619570333E-03 1.636883304E-01
 1.026394151E+00 2.641612396E-02 1.920531204E-01
 6.346891825E-01 -1.086682309E-01 -3.649544133E-02
 5.707848684E-01 -1.173161220E-01 -1.392983765E-01
 7.144739520E-01 -7.881791300E-02 9.424150748E-02
 7.078983694E-01 -3.590827569E-02 1.039659545E-01
 3.927213994E-01 -1.255001152E-01 -5.388261927E-01
 1.269576698E+00 -2.636603636E-01 6.897185450E-02
 3.880358785E-01 -3.716353270E-01 -2.314877843E-01
 5.193075050E-01 -4.838273131E-01 -1.210807254E-01
 1.014631728E+00 2.160821326E-01 -1.166291216E-02
 7.418409553E-01 -3.511441727E-01 3.245835131E-02
 2.553670047E-01 -1.809189992E-01 -3.584582781E-01
 3.018353439E-01 -1.400231949E-01 -4.766641978E-01
 1.127943211E+00 3.411749015E-01 -7.314053464E-03
 1.348046405E+00 3.908651074E-01 -1.799815328E-04
 4.620371646E-01 -1.138259283E-01 -4.290177313E-01
 4.250021055E-01 -1.069642853E-01 -5.355042619E-01
 1.474834905E+00 1.777638017E-01 1.765964358E-02
 6.032008708E-01 -9.183175585E-02 -8.765283852E-02
 5.650855807E-01 -5.814884880E-02 -1.677280486E-01
 7.479600265E-01 -6.383324000E-02 1.426631041E-01
 7.852365561E-01 -6.631171812E-02 1.847341613E-01
 1.025254954E+00 -3.063897529E-02 2.364470709E-01
 9.922793154E-01 -5.319531529E-02 2.707325328E-01
 4.734474040E-01 1.059403875E-01 -5.324776308E-01
 5.022361870E-01 9.735154047E-02 -5.457376224E-01
 4.563940832E-01 8.582280476E-02 -5.466303187E-01
 4.252815072E-01 4.056825042E-01 -2.676712421E-01
 1.301164871E-03 -6.159528934E-02 3.477718465E-01
 1.060152927E-02 -2.191076457E-02 3.208698469E-01
 9.835285170E-01 1.756979913E-02 1.518094850E-01
 9.738963607E-01 3.376991517E-02 1.019432569E-01
 3.674551547E-02 -6.920213486E-02 2.731288549E-02
 4.512515573E-02 -3.679366394E-02 -7.386912070E-02
 7.805525008E-02 -9.003737911E-02 -1.189982775E-01
 7.813413703E-02 -4.806512123E-02 -1.947474589E-01
 7.640072693E-02 -1.399123360E-01 -5.194762391E-02
 1.455038342E-01 -6.004501773E-02 -3.331264810E-01
 1.198437425E-01 -1.119358939E-01 -2.173287828E-01
 4.944837908E-01 7.802526675E-02 -5.709580823E-01
 5.477635101E-01 5.589698052E-01 -2.293906844E-01
 6.960092595E-01 5.571215257E-02 -3.688696335E-01
 1.003034907E+00 1.366475244E-02 2.304150305E-01
 3.702770871E-01 1.049013397E-01 -4.730681484E-01
 4.042539172E-01 1.036563576E-01 -4.964772942E-01
 6.140557645E-01 -4.993002216E-02 -6.117907567E-02
 6.260129221E-01 -6.945047030E-02 -4.076199568E-02
 6.551562797E-01 -4.256031972E-02 1.545241412E-02
 6.566550974E-01 -8.327717650E-02 1.183852225E-02
 6.027572858E-01 -6.430804370E-02 -8.502702685E-02
 5.819381596E-01 -7.198737689E-02 -1.276788116E-01
 5.575212088E-01 -7.952079717E-02 -1.916939265E-01
 5.245734009E-01 -8.514745216E-02 -2.683993249E-01
 5.189799720E-01 -6.862074695E-02 -2.930110751E-01
 6.439196393E-01 -5.876727302E-02 -5.995399683E-03
 4.062215051E-01 -7.151826169E-02 -6.370780460E-01
 4.325378023E-01 -7.238672229E-02 -5.768183228E-01
 4.988354746E-01 -1.045246822E-01 -3.300439887E-01
 7.984886898E-01 -1.045102646E-01 1.771371985E-01
 5.785601978E-01 6.360402282E-02 -5.420718827E-01
 5.814403318E-01 8.075109384E-02 -5.221728438E-01
 6.031517668E-01 1.057740068E-01 -4.704546480E-01
 5.520753585E-01 8.297157357E-02 -5.435232765E-01
 5.280844972E-01 8.530999758E-02 -5.540818910E-01
 6.022736404E-01 7.563861658E-02 -4.992972801E-01
 6.251560047E-01 7.776516777E-02 -4.634297025E-01
 6.356904764E-01 6.199776822E-02 -4.580987390E-01
 6.451207356E-01 7.527966007E-02 -4.345686513E-01
 6.728761010E-01 5.858062845E-02 -4.014873632E-01
 6.644434043E-01 7.342635527E-02 -4.066170731E-01
 6.017427865E-01 6.130929168E-02 -5.136963932E-01
 6.499068488E-01 6.060282104E-02 -4.373656740E-01
 1.481495249E+00 6.149384254E-01 -2.525179481E-02
 9.194751442E-01 2.703478057E-02 -4.874933629E-02
 9.131158880E-01 4.531902715E-02 -6.170024905E-02
 8.818794194E-01 3.397906600E-02 -1.361463704E-01
 8.975834946E-01 6.790546976E-02 -9.492014005E-02
 9.348861741E-01 3.927497247E-02 -9.272194511E-03
 8.954244265E-01 4.331280148E-02 -1.053239550E-01
 8.732577405E-01 5.183617998E-02 -1.416877587E-01
 8.440532774E-01 5.559880196E-02 -1.787656519E-01
 5.772617569E-01 -5.357057520E-02 -1.370372796E-01
 4.653417920E-01 7.152795850E-02 -5.732788970E-01
 4.842415022E-01 -6.716418351E-02 -4.078395341E-01
 5.515616901E-01 -5.879232215E-02 -2.065661658E-01
 4.235976770E-01 6.746914316E-02 -5.521773485E-01
 4.282293612E-01 8.501539504E-02 -5.347052590E-01
 8.692483970E-01 3.375855250E-02 -1.577704558E-01
 9.574461983E-01 2.120410333E-02 5.914449431E-02
 1.357315989E+00 -1.252170538E-01 5.305903154E-02
 6.688538230E-01 -4.180065977E-02 4.096415918E-02
 6.786080846E-01 -5.380853772E-02 5.013041842E-02
 6.973946747E-01 -5.165582824E-02 8.187237355E-02
 7.244453719E-01 -4.837086478E-02 1.215372771E-01
 7.466612238E-01 -4.141958808E-02 1.546023732E-01
 7.732069911E-01 -2.715818081E-02 1.959484826E-01
 7.666900589E-01 -4.365491239E-02 1.788777642E-01
 4.494668605E-01 6.950138106E-02 -5.643477140E-01
 6.949581070E-01 -3.510721461E-02 8.544726645E-02
 1.549224428E+00 -5.558305820E-02 2.360013553E-02
 6.419906352E-01 -4.422266944E-02 -4.263394841E-03
 8.174645872E-01 4.020258250E-02 -2.165706095E-01
 8.934084359E-01 2.885828809E-02 -1.144546033E-01
 7.212924206E-01 -3.166957843E-02 1.254285315E-01
 4.116927405E-01 7.065901113E-02 -5.396625000E-01
 7.453622296E-01 -2.735123869E-02 1.614553150E-01
 5.512879950E-01 6.589258555E-02 -5.641531601E-01
 9.307560529E-01 2.312522521E-02 -1.812034618E-02
 6.244546969E-01 6.055114838E-02 -4.755626530E-01
 6.013147861E-01 -4.892526353E-02 -8.653232028E-02
 2.562030746E+00 2.041931323E-01 1.120116666E-03
 -1.181710559E-01 2.670275340E-01 1.197199514E-01
 9.402424379E-02 7.263102478E-02 -1.868880951E-01
 8.494565210E-02 4.219911658E-02 -2.120471094E-01
 1.438385830E-01 6.449927940E-02 -2.753204518E-01
 7.468091256E-02 3.838535428E-02 -1.934731192E-01
 7.416509343E-02 5.327013927E-02 -1.696692641E-01
 9.380626183E-02 5.406433024E-02 -2.127859293E-01
 1.138727889E-01 6.120249372E-02 -2.347848577E-01
 7.212670045E-01 5.001436143E-02 -3.334227349E-01
 7.238494802E-01 6.521586707E-02 -3.224043437E-01
 7.443300273E-01 6.070446973E-02 -2.960485165E-01
 7.638020814E-01 6.705507562E-02 -2.676448761E-01
 1.406655193E-01 4.887724004E-02 -2.868535722E-01
 1.498486712E-01 4.965430626E-02 -2.986306292E-01
 8.733380266E-01 2.817216386E-01 -1.209953537E-01
 5.246247910E-01 6.844195131E-02 -5.760329052E-01
 8.436522336E-01 3.723915391E-02 -1.863813954E-01
 1.326460028E+00 4.804688490E-02 4.288879218E-02
 8.914066473E-01 -3.151280964E-01 1.105585140E-01
 5.507295398E-01 -6.803512796E-01 -7.067704134E-02
 4.755641407E-02 -4.939411933E-02 -5.480911548E-02
 2.918103998E-02 -4.773260228E-02 1.019891694E-01
 1.363311366E-02 -3.724792823E-02 2.459702003E-01
 -5.584131380E-03 -2.473077711E-02 5.539422173E-01
 5.378575192E-03 -1.517539365E-02 4.779853606E-01
 6.564389285E-02 -6.076621698E-02 -1.164424753E-01
 2.068149636E-02 -2.556943432E-02 1.210635003E-01
 -1.504510987E-02 -5.213002041E-03 8.060785611E-01
 9.147990666E-02 -6.219274402E-02 -2.052194795E-01
 1.157683417E-01 -8.051359518E-02 -2.428040965E-01
 1.281519066E-01 -6.499226313E-02 -2.950759019E-01
 1.456391585E-01 -8.549081417E-02 -2.988242746E-01
 1.586061025E-01 -1.145152236E-01 -2.903979989E-01
 1.676280201E-01 -7.070540999E-02 -3.590064828E-01
 1.803720208E-01 -9.452307789E-02 -3.492986378E-01
 1.971972463E-01 -6.140451541E-02 -4.210330659E-01
 1.979435187E-01 -1.355363396E-01 -3.324449402E-01
 1.369532974E-01 -1.577952069E-01 -2.090633911E-01
 2.137401072E-01 -9.360653103E-02 -4.086996729E-01
 2.485893802E-01 -1.183146779E-01 -4.364800060E-01
 2.508131029E-01 -7.217611882E-02 -5.012126583E-01
 2.833180072E-01 -1.062910248E-01 -5.024189678E-01
 3.174881558E-01 -1.017367395E-01 -5.571538225E-01
 9.036213078E-02 -4.765813339E-02 -2.307596834E-01
 1.000718390E-01 -5.008133318E-02 -2.515223625E-01
 -1.421981165E-02 1.644707816E-02 6.365197480E-01
 -3.524139594E-03 3.400309413E-02 3.506407326E-01
 1.037695162E-02 1.617156093E-02 1.084957374E-01
 1.652840593E-02 4.039810015E-02 1.307125621E-01
 7.244997053E-03 2.584890575E-02 2.091294722E-01
 -4.342801370E-03 1.789083190E-02 5.260826093E-01
 4.606101048E-03 1.509714039E-02 2.851224498E-01
 1.668472309E-03 9.563056025E-03 3.098526274E-01
 7.024988039E-03 1.213832179E-02 1.681278102E-01
 2.414010824E-02 3.075563849E-02 1.442689405E-02
 3.237946000E-02 4.123244300E-02 -6.662846696E-03
 4.940379665E-02 5.088514925E-02 -8.379251491E-02
 6.111354797E-02 7.557404933E-02 -9.140990668E-02
 1.639170041E+00 3.843704969E-01 -6.412376713E-03
 8.302891754E-01 -6.990073450E-02 2.279841216E-01
 8.098886527E-01 -4.320430153E-02 2.299815315E-01
 8.159040325E-01 -2.263878785E-02 2.523006570E-01
 7.869895281E-01 -3.859260570E-02 2.067827959E-01
 8.002189778E-01 -2.776243494E-02 2.296792661E-01
 8.304820220E-01 -3.439332753E-02 2.587558513E-01
 8.546564781E-01 -3.500292461E-02 2.793009373E-01
 8.790631108E-01 -1.473983712E-02 3.209666495E-01
 8.703988489E-01 -7.705226283E-02 2.480856409E-01
 8.869013588E-01 -4.665449462E-02 2.900049991E-01
 9.199398678E-01 -4.257936795E-02 3.040350211E-01
 9.540865094E-01 -7.444995038E-02 2.756101900E-01
 8.656830605E-01 -1.629445794E-02 3.066743876E-01
 8.292766783E-01 -1.787339021E-02 2.708335716E-01
 8.932502375E-01 -2.532476418E-02 3.176539236E-01
 8.904365432E-01 -1.058220775E-02 3.309846663E-01
 9.501964611E-01 -4.001086445E-02 3.115397742E-01
 9.163814848E-01 -1.879346743E-02 3.337880885E-01
 8.001019491E-02 -2.182519747E-01 -2.401022758E-02
 2.220083066E-01 -2.749336264E-01 -2.250735217E-01
 4.185495669E-01 -8.421591013E-02 -5.894776237E-01
 3.981704115E-01 -8.901460699E-02 -6.129868512E-01
 3.720787791E-01 -9.555247937E-02 -6.103664848E-01
 3.474434258E-01 -1.222952516E-01 -5.496864137E-01
 3.460246233E-01 -9.602710636E-02 -6.064867626E-01
 3.304533083E-01 -8.208766307E-02 -6.166695027E-01
 3.606082706E-01 -7.843445204E-02 -6.471513111E-01
 9.200762346E-01 -7.344916453E-03 3.476139090E-01
 9.120559721E-01 -7.895668604E-03 3.452529298E-01
 1.006486905E+00 -1.130306607E-01 2.129624812E-01
 1.724382108E+00 -2.113739436E-01 1.770329687E-02