TITLE     = "Visualization of the solution"
VARIABLES = "x"
"y"
"Pressure_Coefficient"
ZONE T="Zone"
 STRANDID=0, SOLUTIONTIME=0
 Nodes=694, Elements=1173, ZONETYPE=FEQuadrilateral
 DATAPACKING=POINT
 DT=(DOUBLE DOUBLE DOUBLE )
 9.997344613E-01 5.251342081E-04 2.843174344E-01
 9.862784743E-01 2.920411294E-03 2.116545858E-01
 9.744437337E-01 5.059806164E-03 1.368048667E-01
 9.605554342E-01 7.481875364E-03 7.862147056E-02
 9.475436211E-01 9.825431742E-03 3.021265464E-02
 9.351742864E-01 1.196824200E-02 -4.917812041E-03
 9.242403507E-01 1.384903584E-02 -4.782057925E-02
 9.119946361E-01 1.595809124E-02 -8.616018195E-02
 9.002593160E-01 1.782709174E-02 -1.125386563E-01
 8.879520893E-01 1.975146495E-02 -1.426974576E-01
 8.757184148E-01 2.159941941E-02 -1.663362665E-01
 8.637650013E-01 2.331412770E-02 -1.804690124E-01
 8.510103226E-01 2.506945096E-02 -1.962104162E-01
 8.392066956E-01 2.666395530E-02 -2.145231153E-01
 8.274627924E-01 2.821158245E-02 -2.208476378E-01
 8.141517043E-01 2.985734493E-02 -2.310549696E-01
 8.010654449E-01 3.151353449E-02 -2.493870672E-01
 7.890762687E-01 3.297484294E-02 -2.605378824E-01
 7.762209177E-01 3.449488431E-02 -2.762349273E-01
 7.639909387E-01 3.594398499E-02 -2.913974214E-01
 7.507290840E-01 3.744004667E-02 -3.059990584E-01
 7.365206480E-01 3.903105482E-02 -3.243331782E-01
 7.255529165E-01 4.022438452E-02 -3.391667796E-01
 7.142512798E-01 4.142617062E-02 -3.533998412E-01
 7.024076581E-01 4.265031964E-02 -3.720559503E-01
 6.886726618E-01 4.404278472E-02 -3.916443455E-01
 6.753590107E-01 4.532777518E-02 -4.088998343E-01
 6.650646925E-01 4.629362375E-02 -4.257551151E-01
 6.534649730E-01 4.734224826E-02 -4.451787801E-01
 6.426419616E-01 4.828717560E-02 -4.646230981E-01
 6.306017041E-01 4.929230735E-02 -4.770346199E-01
 6.194461584E-01 5.015664175E-02 -4.895238839E-01
 6.085963249E-01 5.097840726E-02 -5.071160385E-01
 5.959708095E-01 5.187841505E-02 -5.261864422E-01
 5.839802623E-01 5.267706513E-02 -5.393820399E-01
 5.703065991E-01 5.349133909E-02 -5.531546630E-01
 5.574929714E-01 5.420175567E-02 -5.694407847E-01
 5.447601676E-01 5.483910441E-02 -5.789750293E-01
 5.334591269E-01 5.532533675E-02 -5.815863381E-01
 5.214298964E-01 5.578508601E-02 -5.849176157E-01
 5.084256530E-01 5.622054264E-02 -5.870166064E-01
 4.974412620E-01 5.651600659E-02 -5.855505338E-01
 4.841679335E-01 5.682241544E-02 -5.825020365E-01
 4.710012972E-01 5.701388791E-02 -5.764337201E-01
 4.564577341E-01 5.715920031E-02 -5.736751050E-01
 4.423029721E-01 5.721073225E-02 -5.697647717E-01
 4.290318191E-01 5.718825385E-02 -5.606307153E-01
 4.156468213E-01 5.707350373E-02 -5.497161398E-01
 4.032621980E-01 5.691218376E-02 -5.410468486E-01
 3.906531036E-01 5.668004975E-02 -5.323110158E-01
 3.785787225E-01 5.640042201E-02 -5.227029258E-01
 3.676685393E-01 5.609184876E-02 -5.086137295E-01
 3.545240164E-01 5.565649644E-02 -4.981055758E-01
 3.426330686E-01 5.521431565E-02 -4.891506169E-01
 3.304722905E-01 5.469708517E-02 -4.807976756E-01
 3.201553226E-01 5.421645567E-02 -4.701055709E-01
 3.080209792E-01 5.359177664E-02 -4.573357241E-01
 2.951204777E-01 5.286872759E-02 -4.432399888E-01
 2.813159823E-01 5.202268809E-02 -4.288720415E-01
 2.685517073E-01 5.117214471E-02 -4.190055982E-01
 2.565825582E-01 5.032283813E-02 -4.082277561E-01
 2.440395355E-01 4.936965555E-02 -3.938343050E-01
 2.310884297E-01 4.831328243E-02 -3.800906246E-01
 2.188513130E-01 4.725073278E-02 -3.682793007E-01
 2.071741372E-01 4.618572816E-02 -3.582306759E-01
 1.959542036E-01 4.510163888E-02 -3.467056717E-01
 1.834786385E-01 4.382774234E-02 -3.344240373E-01
 1.716397703E-01 4.254912585E-02 -3.217844381E-01
 1.599297374E-01 4.121468589E-02 -3.122036123E-01
 1.479742825E-01 3.978851438E-02 -3.005089647E-01
 1.371103823E-01 3.841004148E-02 -2.870294066E-01
 1.258898228E-01 3.691204265E-02 -2.761284817E-01
 1.143343747E-01 3.528952971E-02 -2.652169144E-01
 1.037811786E-01 3.371339664E-02 -2.589195724E-01
 9.403979033E-02 3.218128905E-02 -2.446104019E-01
 8.284845948E-02 3.030778281E-02 -2.229890476E-01
 7.087171823E-02 2.814400196E-02 -2.060595779E-01
 6.108948588E-02 2.623903751E-02 -1.831739542E-01
 5.142269284E-02 2.419101633E-02 -1.516462317E-01
 4.251511022E-02 2.212414704E-02 -1.189220154E-01
 3.490397707E-02 2.018609829E-02 -1.067100322E-01
 2.837623470E-02 1.834768616E-02 -9.575001358E-02
 2.287400141E-02 1.662515290E-02 -8.798458891E-02
 1.895124838E-02 1.527409907E-02 -4.497362095E-02
 1.530771982E-02 1.389210206E-02 -2.498823204E-02
 1.277162135E-02 1.282840595E-02 -8.118677219E-04
 1.054779440E-02 1.181574166E-02 4.000838695E-02
 8.886014111E-03 1.098319143E-02 8.351737415E-02
 7.350190543E-03 1.015999261E-02 1.809744909E-01
 5.930720828E-03 9.322171099E-03 1.117764443E-01
 4.050542600E-03 8.066095412E-03 4.518834046E-01
 2.418239368E-03 6.776290014E-03 4.122657384E-01
 9.664258687E-04 5.363922101E-03 6.413826844E-01
 -4.096095508E-04 3.517252160E-03 6.205031417E-01
 -1.122843474E-03 2.023773268E-03 1.111707708E+00
 -1.439098618E-03 8.470433531E-04 8.454501306E-01
 -1.559090335E-03 -6.248517311E-04 8.878347746E-01
 -1.298724907E-03 -2.417466603E-03 9.153076814E-01
 -5.171928206E-04 -4.427346867E-03 6.998864558E-01
 8.767901454E-04 -6.597372238E-03 6.946574834E-01
 2.947760280E-03 -8.899051696E-03 5.488078652E-01
 4.811905324E-03 -1.054979861E-02 4.737697680E-01
 7.041748613E-03 -1.224219054E-02 4.196362739E-01
 8.617275394E-03 -1.330843382E-02 3.423887507E-01
 1.062066201E-02 -1.454871055E-02 2.770625328E-01
 1.302094199E-02 -1.590263844E-02 2.367352218E-01
 1.625607163E-02 -1.755387522E-02 1.858108933E-01
 1.940842345E-02 -1.901138015E-02 1.328404013E-01
 2.346806787E-02 -2.072727121E-02 6.977295284E-02
 2.895431034E-02 -2.280883491E-02 2.206685179E-02
 3.468839079E-02 -2.477400564E-02 -2.619390813E-02
 4.210638627E-02 -2.705227211E-02 -7.716734971E-02
 4.962004349E-02 -2.913732454E-02 -1.259303649E-01
 5.838675797E-02 -3.135641292E-02 -1.585027395E-01
 6.707271188E-02 -3.336705640E-02 -1.832125154E-01
 7.750310749E-02 -3.557515144E-02 -2.032615646E-01
 8.737974614E-02 -3.750533983E-02 -2.282260420E-01
 9.787455201E-02 -3.941871598E-02 -2.527651682E-01
 1.087370962E-01 -4.125374556E-02 -2.754319314E-01
 1.203210726E-01 -4.308257252E-02 -2.955564572E-01
 1.316301078E-01 -4.475282133E-02 -3.137753061E-01
 1.420587152E-01 -4.620368034E-02 -3.338307406E-01
 1.530552655E-01 -4.763242602E-02 -3.505533254E-01
 1.648657024E-01 -4.908802733E-02 -3.660356566E-01
 1.765193641E-01 -5.042880401E-02 -3.848454102E-01
 1.882485151E-01 -5.169351026E-02 -4.038987503E-01
 1.986809224E-01 -5.275070667E-02 -4.230760926E-01
 2.098238915E-01 -5.379921198E-02 -4.395820660E-01
 2.220833451E-01 -5.488425866E-02 -4.565212324E-01
 2.343312204E-01 -5.587040260E-02 -4.784881177E-01
 2.464740127E-01 -5.674984679E-02 -4.961183077E-01
 2.592970729E-01 -5.760780349E-02 -5.152538428E-01
 2.704668939E-01 -5.824970827E-02 -5.373138746E-01
 2.833441794E-01 -5.892252922E-02 -5.573590604E-01
 2.958731353E-01 -5.944409221E-02 -5.791831802E-01
 3.087979257E-01 -5.989311263E-02 -5.977595024E-01
 3.203260601E-01 -6.017598510E-02 -6.157911221E-01
 3.327718973E-01 -6.039915606E-02 -6.321963377E-01
 3.432022035E-01 -6.047971919E-02 -6.500022403E-01
 3.544652164E-01 -6.049162894E-02 -6.627586437E-01
 3.654577434E-01 -6.037836522E-02 -6.718358618E-01
 3.761076927E-01 -6.021341309E-02 -6.804490964E-01
 3.873857558E-01 -5.990356579E-02 -6.814847300E-01
 3.997448683E-01 -5.944077298E-02 -6.684569735E-01
 4.116682410E-01 -5.885202810E-02 -6.442138200E-01
 4.251232147E-01 -5.810169503E-02 -6.127251343E-01
 4.377261102E-01 -5.720718950E-02 -5.765469630E-01
 4.507529140E-01 -5.617906898E-02 -5.353036538E-01
 4.631568193E-01 -5.506253242E-02 -4.979477805E-01
 4.757967591E-01 -5.382856727E-02 -4.602163763E-01
 4.873400629E-01 -5.257128924E-02 -4.155783509E-01
 4.997399151E-01 -5.117626488E-02 -3.694914220E-01
 5.132421255E-01 -4.954539612E-02 -3.272511746E-01
 5.270983577E-01 -4.778260738E-02 -2.827410868E-01
 5.403258204E-01 -4.603645578E-02 -2.417442087E-01
 5.543367267E-01 -4.412527010E-02 -2.029202819E-01
 5.669684410E-01 -4.233041033E-02 -1.638371086E-01
 5.803588033E-01 -4.043778405E-02 -1.302091274E-01
 5.926458836E-01 -3.866788745E-02 -1.044154263E-01
 6.048431396E-01 -3.688392416E-02 -7.560947041E-02
 6.179897189E-01 -3.496313095E-02 -4.798047421E-02
 6.321731210E-01 -3.285519034E-02 -1.795547998E-02
 6.459707022E-01 -3.085226379E-02 7.351948212E-03
 6.593232751E-01 -2.886410803E-02 3.168320934E-02
 6.729758382E-01 -2.688558772E-02 5.775411435E-02
 6.858493090E-01 -2.504215576E-02 7.662847390E-02
 6.983942389E-01 -2.326332591E-02 9.402861583E-02
 7.132006884E-01 -2.116489597E-02 1.156275793E-01
 7.260172367E-01 -1.934155077E-02 1.409979223E-01
 7.378544807E-01 -1.776276343E-02 1.569878973E-01
 7.500710487E-01 -1.610117219E-02 1.709829883E-01
 7.630736828E-01 -1.439625770E-02 1.899915379E-01
 7.758186460E-01 -1.274689101E-02 2.068945709E-01
 7.877468467E-01 -1.123204269E-02 2.251805550E-01
 8.000588417E-01 -9.707579389E-03 2.446825529E-01
 8.114618659E-01 -8.390471339E-03 2.587734413E-01
 8.227686286E-01 -7.102446165E-03 2.723703552E-01
 8.352231383E-01 -5.789377727E-03 2.867492519E-01
 8.473049402E-01 -4.553393926E-03 3.017717377E-01
 8.594774008E-01 -3.425776027E-03 3.164571656E-01
 8.712226748E-01 -2.412655856E-03 3.279430304E-01
 8.834822774E-01 -1.485969056E-03 3.400784094E-01
 8.967154622E-01 -6.226329715E-04 3.478951358E-01
 9.064103365E-01 -6.856270920E-05 3.586017727E-01
 9.167268276E-01 3.878009156E-04 3.614878123E-01
 9.260566235E-01 7.256946410E-04 3.618106118E-01
 9.352640510E-01 9.720320231E-04 3.641440765E-01
 9.477559328E-01 1.184052206E-03 3.601582687E-01
 9.619378448E-01 1.253257506E-03 3.637850460E-01
 9.770038128E-01 1.137866755E-03 3.587161954E-01
 9.899828434E-01 8.703910862E-04 3.539743220E-01
 -5.000000000E-01 -1.000000000E+00 4.591769684E-02
 3.500000000E+00 -1.000000000E+00 1.125276579E-02
 3.500000000E+00 1.000000000E+00 5.901982053E-04
 -5.000000000E-01 1.000000000E+00 4.464696708E-02
 -5.000000000E-01 5.000000000E-01 8.620841494E-02
 -5.000000000E-01 2.752797990E-12 1.346850243E-01
 -5.000000000E-01 -5.000000000E-01 9.059485533E-02
 -9.421907698E-13 -1.000000000E+00 2.372249210E-02
 5.000000000E-01 -1.000000000E+00 -2.661987941E-02
 1.000000000E+00 -1.000000000E+00 -6.113854636E-03
 1.500000000E+00 -1.000000000E+00 2.689594215E-02
 2.000000000E+00 -1.000000000E+00 2.528891712E-02
 2.500000000E+00 -1.000000000E+00 1.751488359E-02
 3.000000000E+00 -1.000000000E+00 1.291765018E-02
 3.500000000E+00 -5.000000000E-01 1.180124298E-02
 3.500000000E+00 -2.752797990E-12 1.146117318E-02
 3.500000000E+00 5.000000000E-01 6.506049834E-03
 3.000000000E+00 1.000000000E+00 -5.439415294E-03
 2.500000000E+00 1.000000000E+00 -1.404133044E-02
 2.000000000E+00 1.000000000E+00 -3.002360326E-02
 1.500000000E+00 1.000000000E+00 -6.435271281E-02
 1.000000000E+00 1.000000000E+00 -1.149611865E-01
 5.000000000E-01 1.000000000E+00 -7.158215131E-02
 1.733724275E-12 1.000000000E+00 1.075802150E-02
 6.833356942E-01 -4.217039176E-02 6.611971820E-02
 7.849168675E-01 -2.501302020E-02 2.128534200E-01
 9.019533841E-01 -8.296333015E-03 3.415939472E-01
 7.082163889E-01 5.398835966E-02 -3.568066169E-01
 2.753704751E-01 6.295102754E-02 -4.133936842E-01
 2.757929498E-01 -7.234104975E-02 -5.239133235E-01
 9.080941312E-01 3.265290183E-02 -8.768981562E-02
 8.090617621E-01 4.471937955E-02 -2.338779728E-01
 6.023205710E-01 6.390559826E-02 -5.043533092E-01
 5.503699480E-01 -6.202163244E-02 -2.086279809E-01
 3.808008220E-01 -7.533857266E-02 -6.461134608E-01
 4.093148024E-01 6.771824213E-02 -5.335154249E-01
 5.042109350E-01 6.520736216E-02 -5.758785625E-01
 1.707449468E+00 -5.283366340E-01 2.811385291E-02
 1.765092101E+00 5.386747882E-01 -1.296486107E-02
 3.031191327E+00 2.156766730E-01 5.356730403E-03
 7.500000000E-01 -5.669872981E-01 -5.961800042E-04
 4.566532268E-01 -6.915480963E-02 -4.981731461E-01
 3.607916895E-01 -7.254068848E-01 -5.845174499E-02
 1.124919092E-01 -5.523515129E-02 -2.597823412E-01
 1.811714121E-01 -6.336298531E-02 -3.795903232E-01
 7.297800175E-01 5.815441005E-01 -1.833529959E-01
 2.734809359E+00 -5.327303217E-01 1.098957064E-02
 1.160160187E+00 6.819618088E-01 -6.145952006E-02
 9.896511925E-01 3.201133540E-01 -5.363490274E-02
 1.283759049E+00 -6.472624604E-01 4.725244145E-02
 1.501193920E+00 -2.417454604E-01 3.626122755E-02
 3.327827039E-01 6.147819145E-01 -1.091470951E-01
 1.067841855E-01 4.698698961E-02 -2.392379859E-01
 1.658240924E-01 5.174135809E-02 -3.033274754E-01
 2.227418900E+00 -5.768347207E-01 1.422398587E-02
 2.002227609E+00 -2.155185615E-01 1.126548820E-02
 2.412811643E+00 -1.852917243E-01 7.512445890E-03
 2.184490622E+00 1.579167896E-01 1.055141326E-03
 1.792596717E+00 1.262193427E-01 3.057000936E-03
 -2.736546975E-01 2.319692552E-01 1.464097150E-01
 -9.952775954E-02 6.201899975E-01 2.945419203E-02
 3.194226339E-02 3.279940157E-01 1.211780001E-02
 4.432354026E-02 3.108262494E-02 -1.036864105E-01
 -2.710184071E-01 -2.367835122E-01 1.542969937E-01
 -1.460644298E-01 -6.010318142E-01 4.443559425E-02
 1.283537999E-01 -3.698486024E-01 -5.303272432E-02
 2.191573261E+00 6.007199916E-01 -9.857235540E-03
 2.738100721E+00 6.037687827E-01 -2.650326319E-03
 -2.349212597E-01 -4.663446727E-03 1.983123613E-01
 -1.271453179E-01 1.260821695E-01 2.175211008E-01
 -1.090456158E-01 -1.271314526E-01 2.289980004E-01
 5.909511023E-02 -4.173547474E-02 -1.355289833E-01
 -7.189968907E-02 -3.065891373E-01 9.215285174E-02
 -2.524810086E-03 -1.681114096E-01 1.341311220E-01
 3.120577456E-02 -2.951485391E-02 2.015916684E-02
 1.680395727E-01 -2.364254678E-01 -1.761373004E-01
 2.261343978E-01 -7.011824790E-02 -4.470323094E-01
 -2.635036947E-02 -1.010356893E-01 2.626761927E-01
 -1.091555813E-01 -2.361035179E-02 3.206098843E-01
 -6.984682538E-02 5.488162243E-02 3.409541340E-01
 2.664930733E-02 -1.044983040E-01 1.072000091E-01
 3.109338918E+00 -2.613088687E-01 1.017182903E-02
 -5.045644723E-02 -3.892353089E-02 4.228745643E-01
 -5.052373479E-02 1.125170083E-02 5.366757784E-01
 -2.045026188E-02 5.408245835E-02 3.963180364E-01
 2.340460957E-02 2.294585294E-02 -5.026037684E-02
 -3.853136392E-02 1.019060714E-01 2.469277263E-01
 2.592608051E-02 1.015737605E-01 7.164482859E-02
 7.370071626E-02 3.999340012E-02 -1.896334306E-01
 -2.174677728E-02 1.820661905E-01 1.313638805E-01
 6.809996157E-02 1.737672037E-01 -3.994467001E-02
 2.120154149E-01 5.852110882E-02 -3.505808495E-01
 1.747038174E-01 2.851008440E-01 -1.457959086E-01
 3.481956027E-01 6.573326893E-02 -4.837162811E-01
 3.092742430E-01 6.809874889E-02 -4.455774365E-01
 1.872266529E-01 5.672984233E-02 -3.232319935E-01
 2.038515361E-01 1.742035015E-01 -2.424420164E-01
 2.830876524E-01 2.571220257E-01 -2.718212108E-01
 2.980305596E-01 1.631106925E-01 -3.508490800E-01
 3.669548603E-01 2.166912912E-01 -3.641548051E-01
 3.693958854E-01 1.383285570E-01 -4.310422150E-01
 4.480662086E-01 6.762267341E-02 -5.588510881E-01
 4.356585240E-01 1.780150564E-01 -4.367984106E-01
 5.532237704E-01 6.713697253E-02 -5.579149781E-01
 5.265106273E-01 6.766090585E-02 -5.687378458E-01
 4.442113142E-01 2.682001831E-01 -3.589459391E-01
 5.271815581E-01 2.042061350E-01 -4.237958402E-01
 5.389364962E-01 3.382555074E-01 -3.223045016E-01
 6.275283743E-01 2.562670140E-01 -3.404476675E-01
 6.613121356E-01 5.777466926E-02 -4.241838929E-01
 6.114419048E-01 1.582475093E-01 -4.228405496E-01
 7.047981944E-01 1.793007623E-01 -3.111821151E-01
 7.579235998E-01 4.719166456E-02 -2.940048708E-01
 7.306517580E-01 2.661605780E-01 -2.563706268E-01
 8.122930082E-01 1.975937607E-01 -1.976566932E-01
 8.583218411E-01 3.859740212E-02 -1.794318265E-01
 8.339585138E-01 4.165649388E-02 -2.096315152E-01
 7.671137337E-01 1.292324745E-01 -2.556089258E-01
 8.488835917E-01 1.243015153E-01 -1.650851149E-01
 6.638235969E-01 1.234023328E-01 -3.853236624E-01
 5.426712627E-01 1.362029843E-01 -4.887598621E-01
 2.425343470E-01 1.207471326E-01 -3.303434219E-01
 1.914138808E-01 1.167339092E-01 -2.774010653E-01
 8.949804369E-01 1.930949116E-01 -9.851895575E-02
 9.717258795E-01 1.882871694E-02 1.057265499E-01
 9.428998457E-01 2.099125823E-02 1.183404502E-02
 9.406332403E-01 1.212830910E-01 -3.259039404E-02
 9.905779450E-01 2.011973555E-01 -6.169993959E-03
 1.107876158E+00 2.389357946E-01 2.148375976E-02
 1.030450122E+00 1.171897416E-01 6.798430852E-02
 1.174014980E+00 1.085948255E-01 7.340244505E-02
 1.284421868E+00 2.501240727E-01 2.033910712E-02
 1.354872533E+00 7.700643111E-02 3.617885498E-02
 1.200370825E+00 -1.044390821E-01 9.232179895E-02
 1.093902944E+00 4.227947359E-02 1.274910585E-01
 8.986641839E-01 8.044507052E-02 -9.061503392E-02
 8.828584280E-01 3.529175269E-02 -1.423163229E-01
 5.865936014E-01 1.067012805E-01 -4.844412086E-01
 5.789491381E-01 6.541243342E-02 -5.325526802E-01
 9.830409724E-01 7.512405906E-02 5.500647350E-02
 1.029946137E+00 5.398530076E-02 1.348608429E-01
 8.086142889E-01 9.700016552E-02 -2.185914188E-01
 4.235719913E-01 1.149452278E-01 -4.943923966E-01
 8.916503393E-02 1.010998735E-01 -1.389994825E-01
 3.225242773E-01 1.169970365E-01 -4.111197471E-01
 6.876964418E-01 3.925287172E-01 -2.421939649E-01
 4.816281526E-01 1.293610543E-01 -4.987067657E-01
 4.792326909E-01 6.663024602E-02 -5.684854495E-01
 3.854505204E-01 1.008158422E-01 -4.799742743E-01
 3.736756739E-01 6.767026828E-02 -5.041061880E-01
 8.347787191E-01 3.082479859E-01 -1.670035757E-01
 3.514740098E-01 1.004901127E-01 -4.532312652E-01
 5.174892783E-01 1.031113806E-01 -5.301109273E-01
 1.450708884E-01 4.495943105E-01 -4.886751669E-02
 4.286011319E-01 3.916815329E-01 -2.678913926E-01
 1.017878041E-03 -5.773438339E-02 3.396594031E-01
 1.073327036E-02 -1.715367999E-02 2.783365159E-01
 5.563554107E-01 5.165987452E-01 -2.391880824E-01
 3.624196033E-02 -6.903583016E-02 3.191034652E-02
 4.571178722E-02 -3.642946728E-02 -8.003878483E-02
 7.875214292E-02 -8.606911098E-02 -1.160198683E-01
 8.118297963E-02 -4.688391677E-02 -1.925118190E-01
 8.162528402E-02 -1.416414459E-01 -5.556898635E-02
 1.444983517E-01 -5.781190484E-02 -3.200413430E-01
 1.313262843E-01 -9.877508155E-02 -2.439733689E-01
 1.529981135E+00 2.434217437E-01 9.756931865E-03
 1.417678183E+00 4.615140098E-01 -6.869584348E-03
 5.519152131E-01 1.018312255E-01 -5.182727817E-01
 2.100451066E-02 5.995488153E-02 1.063350574E-01
 5.678002886E-02 7.606847281E-02 -8.154317805E-02
 1.359707137E+00 -8.983352350E-02 5.023055214E-02
 1.260379542E+00 -2.321654074E-01 7.191729053E-02
 1.114052694E+00 -2.007434583E-01 1.232029127E-01
 9.723169646E-01 -1.071866047E-02 3.440990439E-01
 1.091471516E+00 -9.331179851E-02 1.559045035E-01
 9.923561116E-01 -1.539396607E-01 1.911348141E-01
 8.444168120E-01 -1.724598040E-02 2.863087667E-01
 1.002440201E+00 -2.632286271E-01 1.447838744E-01
 8.775845323E-01 -2.185765730E-01 1.530763365E-01
 9.037694946E-01 -1.241746389E-01 2.163788422E-01
 7.774569885E-01 -1.648244205E-01 1.212541342E-01
 6.129491846E-01 -5.106422858E-02 -5.971204225E-02
 6.419253846E-01 -4.188729010E-02 -2.593467484E-03
 5.891313722E-01 -5.245624496E-02 -1.123460075E-01
 7.343057495E-01 -2.764762522E-02 1.466497332E-01
 7.581471032E-01 -3.182209463E-02 1.740903411E-01
 7.714488951E-01 -2.824998915E-01 7.255074507E-02
 6.758019287E-01 -2.004079577E-01 5.814940270E-03
 6.574914852E-01 -3.011225546E-01 -3.848614044E-02
 5.599294461E-01 -2.348513586E-01 -1.473566154E-01
 5.984066827E-01 -1.476219762E-01 -9.583616918E-02
 5.088599606E-01 -6.169634818E-02 -3.361741315E-01
 4.939801855E-01 -1.806619608E-01 -2.874627565E-01
 4.609652133E-01 -2.503287944E-01 -2.955617483E-01
 4.015907445E-01 -1.758419252E-01 -4.324703605E-01
 3.249331175E-01 -7.223880175E-02 -5.974751175E-01
 3.030141724E-01 -6.926875596E-02 -5.716257728E-01
 3.493809377E-01 -7.043675543E-02 -6.355379736E-01
 4.181276093E-01 -7.488547348E-02 -5.944776530E-01
 3.506321505E-01 -2.442159356E-01 -3.364730426E-01
 3.030312062E-01 -1.770733242E-01 -4.013949242E-01
 6.594295662E-01 -1.252052827E-01 1.492931838E-03
 8.098756913E-01 -9.555250669E-02 1.887467557E-01
 5.494129197E-01 -1.138283073E-01 -1.964189748E-01
 4.495334385E-01 -1.291907532E-01 -4.234469689E-01
 3.502735493E-01 -1.427377057E-01 -4.944677144E-01
 5.304802177E-01 -3.739537448E-01 -1.710366623E-01
 6.206047878E-01 -9.857480891E-02 -5.309239409E-02
 9.583660560E-01 -8.488601970E-02 2.614637227E-01
 9.312307227E-01 -1.050219473E-02 3.487874101E-01
 9.100204278E-01 -6.887811922E-02 2.712089225E-01
 8.778973672E-01 -1.085449417E-02 3.235013645E-01
 8.992687965E-01 -3.844163354E-01 8.170451246E-02
 2.585250158E-01 -2.798303301E-01 -2.501148712E-01
 2.237070545E-01 -1.661180013E-01 -3.235720898E-01
 2.720629308E-01 -1.251439074E-01 -4.376803866E-01
 3.143235254E-01 -1.108162149E-01 -5.116587913E-01
 9.573409575E-01 -6.255678085E-01 3.692901805E-02
 9.451687818E-01 -4.962095253E-02 3.052451771E-01
 9.826606631E-01 -4.872003608E-02 2.777585310E-01
 6.550823143E-01 -8.462776312E-02 6.014310853E-03
 6.991567936E-01 -8.786517804E-02 6.877735148E-02
 7.058846907E-01 -3.408705639E-02 9.993764952E-02
 7.133343698E-01 -1.344025102E-01 6.734916272E-02
 7.548265718E-01 -9.370971217E-02 1.370967963E-01
 7.855853469E-01 -6.331313814E-02 1.903145829E-01
 8.233902700E-01 -5.356648496E-02 2.340815337E-01
 8.074486950E-01 -2.108981676E-02 2.448331623E-01
 8.607298344E-01 -8.148818083E-02 2.423817398E-01
 7.297902407E-01 -6.363507498E-02 1.214602572E-01
 2.331120608E-01 -1.110066023E-01 -4.029056297E-01
 2.517511129E-01 -7.060902347E-02 -4.850283392E-01
 1.866670963E-01 -1.117557961E-01 -3.311839213E-01
 8.538245193E-01 -4.764593982E-02 2.674624464E-01
 2.135877642E-01 9.033843902E-02 -3.196462290E-01
 2.354343071E-01 6.092185793E-02 -3.731722445E-01
 5.138911546E-01 6.502079834E-02 -5.754362373E-01
 3.621879918E-01 6.507480081E-02 -4.940643255E-01
 3.287460812E-01 -3.885273171E-01 -1.823485041E-01
 7.566684015E-01 -5.460493797E-02 1.596202741E-01
 1.547490280E+00 -1.035485140E-02 2.248108075E-02
 4.910405672E-01 6.689117337E-02 -5.717335788E-01
 4.861059357E-01 8.350664385E-02 -5.454418717E-01
 4.578592249E-01 1.012191897E-01 -5.251686578E-01
 8.854732893E-01 -4.122325048E-02 2.927588756E-01
 9.178392163E-01 -3.804311239E-02 3.108361159E-01
 3.373547647E-01 6.425950842E-02 -4.768677359E-01
 9.121707264E-01 -9.579489480E-03 3.458036344E-01
 1.135673020E+00 -3.716913634E-01 8.750170898E-02
 6.530166832E-01 -3.990071366E-02 1.634870958E-02
 2.500252294E-01 6.259150107E-02 -3.887003773E-01
 2.421536014E-01 8.309596955E-02 -3.601975955E-01
 2.701968414E-01 9.698437155E-02 -3.791799753E-01
 3.013285794E-01 9.424165925E-02 -4.109398251E-01
 2.918974170E-01 7.358963821E-02 -4.161181358E-01
 3.250123285E-01 8.758007161E-02 -4.428663442E-01
 2.610412244E-01 7.709291283E-02 -3.904911527E-01
 4.629711112E-01 7.418364536E-02 -5.557949774E-01
 9.979666555E-01 4.367316747E-02 1.348963153E-01
 2.134051577E-01 -8.365303454E-02 -4.059260747E-01
 2.033743203E-01 -6.592046297E-02 -4.127420906E-01
 2.376824790E-01 -8.179082445E-02 -4.476701091E-01
 2.620511491E-01 -8.853194718E-02 -4.740214552E-01
 2.859136302E-01 -9.110085055E-02 -5.110437830E-01
 9.546412432E-01 -1.235215577E-02 3.463932102E-01
 9.635739301E-01 -2.907914612E-02 3.166427512E-01
 3.956707469E-01 6.863488299E-02 -5.236144336E-01
 4.035592165E-01 8.605718671E-02 -5.110815386E-01
 4.230050367E-01 8.222269830E-02 -5.278196916E-01
 3.849366979E-01 7.829767430E-02 -5.040328375E-01
 2.218468303E-01 7.135088441E-02 -3.501980290E-01
 7.719166183E-01 -2.503906857E-02 1.955600314E-01
 3.271492177E-01 6.833618220E-02 -4.642650052E-01
 4.344962308E-01 6.969501783E-02 -5.503791561E-01
 2.149642225E-01 -6.567504321E-02 -4.313547447E-01
 1.910812647E-01 -7.746818743E-02 -3.771662970E-01
 1.693693236E-01 -7.837764165E-02 -3.340264053E-01
 3.847029890E-01 6.553665947E-02 -5.179930023E-01
 3.506160026E-01 -1.039773720E-01 -5.676197817E-01
 3.868964088E-01 -1.215239991E-01 -5.430019028E-01
 4.178448426E-01 -1.067003703E-01 -5.361718675E-01
 8.297075428E-01 -1.862346177E-02 2.700471905E-01
 5.665034080E-01 6.411833571E-02 -5.487961523E-01
 5.686169519E-01 8.064792133E-02 -5.289408630E-01
 5.898741298E-01 7.664997758E-02 -5.083319275E-01
 6.126015434E-01 8.095378451E-02 -4.749475477E-01
 6.361124313E-01 5.749557388E-02 -4.642588356E-01
 6.237685078E-01 1.127922209E-01 -4.403566847E-01
 6.445795346E-01 9.133087763E-02 -4.281735147E-01
 6.777750508E-01 8.757609606E-02 -3.822926392E-01
 6.836694477E-01 5.592990798E-02 -3.921040090E-01
 7.114964503E-01 1.154574814E-01 -3.256432487E-01
 7.419697196E-01 8.728212697E-02 -3.018190368E-01
 7.333423664E-01 4.839988682E-02 -3.259998691E-01
 7.775565034E-01 7.572887008E-02 -2.603163570E-01
 7.848902731E-01 4.931072124E-02 -2.607214830E-01
 7.460284049E-01 5.061735223E-02 -3.091266767E-01
 6.267235478E-01 5.793324708E-02 -4.737712231E-01
 7.092735886E-01 8.507854640E-02 -3.423754863E-01
 7.698869566E-01 5.178750883E-02 -2.776849070E-01
 7.992455845E-01 6.271121787E-02 -2.377004414E-01
 8.223068121E-01 6.122941933E-02 -2.128707495E-01
 8.472787390E-01 5.751465360E-02 -1.839609908E-01
 8.736414687E-01 5.385694291E-02 -1.487937083E-01
 8.962847177E-01 4.842463398E-02 -1.101766230E-01
 9.185043702E-01 5.093914730E-02 -6.091320970E-02
 9.248227280E-01 3.148051608E-02 -4.540231857E-02
 9.402990685E-01 3.713577667E-02 1.861387363E-03
 8.372435954E-01 8.907986537E-02 -1.883013978E-01
 7.364102930E-01 6.210339544E-02 -3.157444920E-01
 9.681623148E-01 4.166632065E-02 7.119106981E-02
 9.903614567E-01 2.377814937E-02 1.596261394E-01
 1.019820732E+00 2.213643389E-02 1.960669146E-01
 1.075451080E+00 -2.040088818E-02 1.519986347E-01
 1.034760378E+00 -1.028775663E-02 2.136843503E-01
 1.007181974E+00 -2.548788414E-02 3.118096043E-01
 1.020321111E+00 -6.243343484E-02 2.312775015E-01
 9.409446991E-01 7.202230892E-02 -1.235987239E-02
 -1.194793524E-01 2.640326672E-01 1.199724559E-01
 8.671351174E-01 -1.438988155E-02 3.120414507E-01
 6.170687799E-01 6.278093922E-02 -4.842709809E-01
 7.218326581E-01 -3.834106849E-02 1.236748774E-01
 6.763131278E-01 -6.198890960E-02 4.716018092E-02
 7.453759015E-01 -2.732181636E-02 1.603403668E-01
 2.552370967E+00 2.126609242E-01 6.290717505E-04
 2.621681644E-01 6.102337688E-02 -4.026734204E-01
 1.925112869E-01 -6.223917053E-02 -4.008663007E-01
 2.392746446E-01 -6.702766904E-02 -4.707888514E-01
 7.225382575E-01 5.232654498E-02 -3.378761406E-01
 8.383645883E-01 -3.262657280E-02 2.670237766E-01
 8.195923194E-01 -3.075372667E-02 2.492262266E-01
 7.993999474E-01 -3.680363508E-02 2.206892302E-01
 7.761057141E-01 -3.943264910E-02 1.917021891E-01
 -1.978917590E-02 -3.096409078E-02 5.176131012E-01
 -1.762573105E-02 -5.930874904E-03 7.614021291E-01
 -7.252456963E-03 1.454085569E-02 6.403545454E-01
 1.584812531E-01 -6.062678517E-02 -3.399518807E-01
 1.465578907E-01 -7.268806901E-02 -3.032268459E-01
 1.290330644E-01 -6.648245711E-02 -2.753335171E-01
 1.140667207E-03 3.705252315E-02 2.736083308E-01
 8.838217103E-03 1.995713482E-02 1.741999605E-01
 9.018420948E-03 1.279364765E-02 9.130095020E-02
 2.002666125E-02 3.601564725E-02 6.778074822E-02
 1.602567909E-02 1.693045813E-02 -2.335479553E-03
 8.459552224E-01 3.790039117E-02 -1.983292309E-01
 3.637924076E-01 7.989245580E-02 -4.826899362E-01
 8.181958103E-01 -1.719198454E-02 2.591653139E-01
 2.238472590E-01 5.727157328E-02 -3.642798707E-01
 5.095247921E-01 7.921038982E-02 -5.613008603E-01
 8.559826285E-01 -1.389898622E-02 3.021301209E-01
 4.749763031E-02 -5.053445319E-02 -5.288529227E-02
 2.988103689E-02 -4.602980569E-02 1.046664115E-01
 1.259629828E-02 -3.805094450E-02 2.849518435E-01
 1.739310233E-02 -2.220587597E-02 1.889307003E-01
 6.626560170E-02 -5.755633354E-02 -1.092267919E-01
 -1.339944900E-03 -3.110471483E-02 4.657735566E-01
 4.312146316E-03 -1.360630382E-02 5.213335654E-01
 2.041813177E-02 -3.079402151E-02 1.372786552E-01
 7.664051869E-03 -2.440585491E-02 3.572339076E-01
 5.397228790E-01 8.226006285E-02 -5.487729689E-01
 8.114264112E-02 6.939298028E-02 -1.651988856E-01
 1.317791359E-01 8.873631311E-02 -2.237251505E-01
 1.404782986E-01 4.805829760E-02 -2.809364863E-01
 5.764098278E-02 5.267484534E-02 -1.087146713E-01
 3.829817185E-02 4.109749655E-02 -2.648579941E-02
 3.391201170E-02 2.890864450E-02 -6.572857207E-02
 1.343624728E-01 -5.370716456E-02 -3.072909100E-01
 1.092712659E-01 -7.303732603E-02 -2.270187217E-01
 9.311627496E-02 -5.906955492E-02 -2.001741683E-01
 1.250898802E-01 -5.296203785E-02 -2.901507473E-01
 9.396139402E-01 -2.436828290E-02 3.302895264E-01
 6.967072755E-01 6.745942672E-02 -3.690717937E-01
 4.420746868E-01 8.613367633E-02 -5.354823910E-01
 1.868424866E-01 8.856692423E-02 -2.924826120E-01
 3.762899754E-01 -9.391048216E-02 -6.033073897E-01
 3.984542695E-01 -9.027418208E-02 -6.023088094E-01
 4.419488751E-01 -8.660851086E-02 -5.088073238E-01
 4.762179603E-01 -1.015612672E-01 -4.018025195E-01
 4.828255845E-01 -6.581041528E-02 -4.186779693E-01
 5.146398030E-01 -9.662590804E-02 -2.977791270E-01
 3.618092924E-01 -8.026045728E-02 -6.249694657E-01
 5.404146150E-01 -8.142405972E-02 -2.297197438E-01
 5.194852141E-01 -7.270954278E-02 -2.910185809E-01
 5.653061467E-01 -7.836922695E-02 -1.681069168E-01
 4.955880584E-01 -7.739399551E-02 -3.626119028E-01
 4.946970263E-01 -6.215825066E-02 -3.787530168E-01
 5.661521051E-01 -6.000080470E-02 -1.656514130E-01
 4.717372690E-01 -7.989700952E-02 -4.424972679E-01
 8.902434407E-01 -1.155774947E-02 3.293628275E-01
 9.020976110E-01 -2.188669814E-02 3.261783658E-01
 3.369696142E-01 -8.547467413E-02 -5.880197570E-01
 7.015158262E-01 -5.200765476E-02 8.801104037E-02
 1.733325428E+00 -1.760130906E-01 1.717640810E-02
 6.281135494E-01 -6.759189680E-02 -3.443229677E-02
 9.211109028E-01 -1.930077196E-02 3.362589914E-01
 9.551976940E-01 2.265489660E-02 4.945499957E-02
 3.986100190E-01 -7.120406038E-02 -6.459181147E-01
 5.578592362E-01 -5.561643593E-01 -9.565649801E-02
 6.739376250E-01 6.687752472E-02 -3.998924473E-01
 6.305494569E-01 -4.780486038E-02 -2.663633593E-02
 6.029306921E-01 -6.697743703E-02 -8.384881787E-02
 2.918373760E-01 -7.280037495E-02 -5.484428949E-01