TITLE     = "Visualization of the solution"
VARIABLES = "x"
"y"
"Pressure_Coefficient"
ZONE T="Zone"
 STRANDID=0, SOLUTIONTIME=0
 Nodes=688, Elements=1161, ZONETYPE=FEQuadrilateral
 DATAPACKING=POINT
 DT=(DOUBLE DOUBLE DOUBLE )
 9.998232722E-01 5.178157007E-04 3.400386550E-01
 9.837962389E-01 3.699804423E-03 2.660109097E-01
 9.705211520E-01 6.357045379E-03 1.755786795E-01
 9.553694725E-01 9.409821592E-03 1.131926076E-01
 9.415206909E-01 1.210540254E-02 7.069961893E-02
 9.297067523E-01 1.439852268E-02 3.258902155E-02
 9.187458158E-01 1.652571186E-02 -1.430583572E-04
 9.073315859E-01 1.869964413E-02 -3.545784848E-02
 8.958366513E-01 2.086947858E-02 -7.529456052E-02
 8.836739063E-01 2.309839986E-02 -1.053205122E-01
 8.715149760E-01 2.522005327E-02 -1.257703373E-01
 8.594607711E-01 2.726915851E-02 -1.458573461E-01
 8.475466371E-01 2.926900983E-02 -1.693124103E-01
 8.363175988E-01 3.111533262E-02 -1.963213408E-01
 8.248089552E-01 3.297559172E-02 -2.132482566E-01
 8.119978309E-01 3.494201973E-02 -2.269645207E-01
 7.996076345E-01 3.683897480E-02 -2.497121601E-01
 7.879843116E-01 3.859429061E-02 -2.741225627E-01
 7.758108974E-01 4.039281979E-02 -2.918179138E-01
 7.641125917E-01 4.204728454E-02 -3.148200945E-01
 7.514403462E-01 4.384909198E-02 -3.398464068E-01
 7.382341623E-01 4.562865943E-02 -3.528223403E-01
 7.270150781E-01 4.708908498E-02 -3.687446697E-01
 7.153631449E-01 4.860336334E-02 -3.936538034E-01
 7.034001350E-01 5.012301356E-02 -4.165386852E-01
 6.903706789E-01 5.170074478E-02 -4.344112414E-01
 6.771909595E-01 5.322168022E-02 -4.596892088E-01
 6.656804681E-01 5.454966798E-02 -4.875663652E-01
 6.534131169E-01 5.586311966E-02 -5.149639161E-01
 6.422358751E-01 5.704972148E-02 -5.413159943E-01
 6.298125386E-01 5.826494843E-02 -5.644772271E-01
 6.179484725E-01 5.939069763E-02 -5.873757452E-01
 6.070049405E-01 6.034985557E-02 -6.096875728E-01
 5.950436592E-01 6.136179715E-02 -6.390669643E-01
 5.831275582E-01 6.231159344E-02 -6.643613140E-01
 5.693316460E-01 6.330855191E-02 -6.831478688E-01
 5.560845733E-01 6.415976584E-02 -7.004252554E-01
 5.430048108E-01 6.494114548E-02 -7.136784950E-01
 5.314357877E-01 6.553886086E-02 -7.211615193E-01
 5.190037489E-01 6.611771137E-02 -7.298653417E-01
 5.066519380E-01 6.662901491E-02 -7.288704665E-01
 4.959052205E-01 6.698023528E-02 -7.205243089E-01
 4.831116498E-01 6.734674424E-02 -7.174086013E-01
 4.705234468E-01 6.763383001E-02 -7.101165167E-01
 4.573317468E-01 6.783990562E-02 -7.006706153E-01
 4.436489344E-01 6.796978414E-02 -6.935056618E-01
 4.308194518E-01 6.801322848E-02 -6.837591406E-01
 4.177146554E-01 6.798024476E-02 -6.701138290E-01
 4.050096273E-01 6.785709411E-02 -6.566817536E-01
 3.915903270E-01 6.766039878E-02 -6.496914424E-01
 3.795165718E-01 6.742403656E-02 -6.371048262E-01
 3.676162660E-01 6.710791588E-02 -6.180982091E-01
 3.542145789E-01 6.667318940E-02 -6.032529729E-01
 3.415113986E-01 6.619403511E-02 -5.942420857E-01
 3.289992213E-01 6.566610187E-02 -5.844916022E-01
 3.185304105E-01 6.514780968E-02 -5.704474980E-01
 3.067075908E-01 6.450958550E-02 -5.590356269E-01
 2.944915891E-01 6.379007548E-02 -5.469750553E-01
 2.810856104E-01 6.291279942E-02 -5.358047883E-01
 2.689460814E-01 6.204727665E-02 -5.227987297E-01
 2.570755184E-01 6.112505123E-02 -5.055900185E-01
 2.444773465E-01 6.005945057E-02 -4.925398835E-01
 2.319142520E-01 5.894222111E-02 -4.815025861E-01
 2.198559195E-01 5.777183175E-02 -4.677789431E-01
 2.081555128E-01 5.656573176E-02 -4.527165706E-01
 1.963297278E-01 5.525748432E-02 -4.359784280E-01
 1.841910481E-01 5.383380502E-02 -4.200107932E-01
 1.722813249E-01 5.234426260E-02 -4.045194905E-01
 1.605304182E-01 5.079273134E-02 -3.862007063E-01
 1.486767679E-01 4.911191389E-02 -3.682150569E-01
 1.375750303E-01 4.745179787E-02 -3.517894339E-01
 1.261990964E-01 4.564751312E-02 -3.324112556E-01
 1.150151119E-01 4.375397414E-02 -3.115427434E-01
 1.042434350E-01 4.181547463E-02 -2.951069036E-01
 9.419271350E-02 3.989070281E-02 -2.722502080E-01
 8.343411982E-02 3.768699616E-02 -2.487112204E-01
 7.271237671E-02 3.532440215E-02 -2.264983870E-01
 6.315898895E-02 3.305616975E-02 -2.054184969E-01
 5.409424379E-02 3.073338233E-02 -1.782898433E-01
 4.554005340E-02 2.835185826E-02 -1.466692870E-01
 3.776697442E-02 2.597988769E-02 -1.157167114E-01
 3.109269775E-02 2.375656925E-02 -9.350583802E-02
 2.526577935E-02 2.161515132E-02 -5.842415995E-02
 2.094163746E-02 1.987078786E-02 -2.526107966E-02
 1.691507176E-02 1.808691956E-02 1.279761769E-02
 1.380157657E-02 1.657227613E-02 3.462752931E-02
 1.109950431E-02 1.512577105E-02 6.386440534E-02
 9.174712934E-03 1.399717666E-02 1.355664551E-01
 7.348065730E-03 1.283229981E-02 1.850848387E-01
 5.610635504E-03 1.159608550E-02 2.145452610E-01
 3.442458808E-03 9.818323888E-03 2.595159896E-01
 1.733052777E-03 8.112451993E-03 2.946778001E-01
 4.060670035E-04 6.432621274E-03 6.060970926E-01
 -8.745353553E-04 4.140639678E-03 6.821856927E-01
 -1.480850158E-03 2.288274933E-03 7.460077159E-01
 -1.707834424E-03 7.320153527E-04 1.228963340E+00
 -1.668006531E-03 -1.139059197E-03 1.003299162E+00
 -1.236835145E-03 -3.303006990E-03 1.098327111E+00
 -2.550367208E-04 -5.804380402E-03 1.066103925E+00
 1.297285082E-03 -8.462748490E-03 9.606498600E-01
 3.319054376E-03 -1.109886263E-02 8.489356913E-01
 5.226534326E-03 -1.316335518E-02 7.492121964E-01
 7.463325281E-03 -1.526979823E-02 5.828477929E-01
 9.250736795E-03 -1.678567007E-02 5.239262204E-01
 1.134448685E-02 -1.841344871E-02 4.583664553E-01
 1.376844943E-02 -2.015182748E-02 4.081847069E-01
 1.687852666E-02 -2.218533494E-02 3.419020105E-01
 2.011207119E-02 -2.411966026E-02 2.417560287E-01
 2.406079136E-02 -2.628194354E-02 1.814461735E-01
 2.914421633E-02 -2.881486900E-02 1.001294970E-01
 3.443692252E-02 -3.120844625E-02 2.001643002E-02
 4.088127986E-02 -3.385286778E-02 -4.505200686E-02
 4.803376645E-02 -3.651572764E-02 -9.423769126E-02
 5.653282627E-02 -3.938770294E-02 -1.416286974E-01
 6.497429311E-02 -4.197791591E-02 -1.944539896E-01
 7.511045039E-02 -4.482295364E-02 -2.288866037E-01
 8.462415636E-02 -4.725414142E-02 -2.692989659E-01
 9.542196989E-02 -4.980983958E-02 -3.039109014E-01
 1.065253690E-01 -5.223402008E-02 -3.370991347E-01
 1.184921712E-01 -5.463658273E-02 -3.687930943E-01
 1.302720010E-01 -5.683788657E-02 -3.999518301E-01
 1.409778893E-01 -5.868153647E-02 -4.292785580E-01
 1.524773687E-01 -6.054016575E-02 -4.507592424E-01
 1.646061540E-01 -6.235603616E-02 -4.749405815E-01
 1.762871742E-01 -6.398843229E-02 -4.997227010E-01
 1.882074028E-01 -6.552855670E-02 -5.232089346E-01
 1.989801824E-01 -6.682460010E-02 -5.448900167E-01
 2.104860991E-01 -6.811351329E-02 -5.668495253E-01
 2.226760387E-01 -6.934243441E-02 -5.893630833E-01
 2.346928567E-01 -7.048026472E-02 -6.156818238E-01
 2.465586215E-01 -7.147291303E-02 -6.438354261E-01
 2.587528229E-01 -7.240213454E-02 -6.713192706E-01
 2.703094184E-01 -7.315527648E-02 -6.983224879E-01
 2.828724682E-01 -7.387060672E-02 -7.216282201E-01
 2.952819765E-01 -7.446615398E-02 -7.526160738E-01
 3.079201877E-01 -7.495578378E-02 -7.906292934E-01
 3.198550940E-01 -7.526859641E-02 -8.226551070E-01
 3.323810399E-01 -7.548682392E-02 -8.441681766E-01
 3.428902030E-01 -7.556720823E-02 -8.675965522E-01
 3.546216190E-01 -7.554617524E-02 -8.890458802E-01
 3.662527502E-01 -7.541812211E-02 -9.143034852E-01
 3.776284456E-01 -7.516691834E-02 -9.386623961E-01
 3.899601102E-01 -7.477319241E-02 -9.574676379E-01
 4.028168023E-01 -7.421086729E-02 -9.666251749E-01
 4.149466753E-01 -7.353939116E-02 -9.485354143E-01
 4.275981784E-01 -7.269057631E-02 -8.884718988E-01
 4.400302172E-01 -7.172433287E-02 -7.917444541E-01
 4.529742301E-01 -7.058417052E-02 -6.910474408E-01
 4.655392468E-01 -6.935979426E-02 -6.070987597E-01
 4.779499173E-01 -6.803604215E-02 -5.428993571E-01
 4.902829230E-01 -6.662192941E-02 -4.955840691E-01
 5.021041036E-01 -6.515032053E-02 -4.521688903E-01
 5.152664185E-01 -6.346199661E-02 -4.120949896E-01
 5.276302695E-01 -6.172910705E-02 -3.680273824E-01
 5.395113230E-01 -6.005233899E-02 -3.234060789E-01
 5.527171493E-01 -5.808085203E-02 -2.839682384E-01
 5.657824874E-01 -5.611253157E-02 -2.469955132E-01
 5.787797570E-01 -5.406874791E-02 -2.106942504E-01
 5.924839973E-01 -5.189367384E-02 -1.724028055E-01
 6.058865786E-01 -4.971946776E-02 -1.403675403E-01
 6.184538007E-01 -4.762880504E-02 -1.086448014E-01
 6.314912438E-01 -4.544839635E-02 -7.593331850E-02
 6.447764635E-01 -4.325295240E-02 -5.134899124E-02
 6.575749516E-01 -4.108513519E-02 -2.701838338E-02
 6.710694432E-01 -3.880850226E-02 7.129051046E-04
 6.832975149E-01 -3.670757636E-02 2.812209232E-02
 6.958147287E-01 -3.461759910E-02 4.969198875E-02
 7.101688385E-01 -3.215918317E-02 7.296531193E-02
 7.232811451E-01 -2.996187471E-02 9.874635407E-02
 7.347503304E-01 -2.802727930E-02 1.179641987E-01
 7.480968833E-01 -2.576678060E-02 1.425544720E-01
 7.613587379E-01 -2.356369048E-02 1.683310568E-01
 7.754097581E-01 -2.126970701E-02 1.881749208E-01
 7.877354622E-01 -1.925520226E-02 2.116067835E-01
 8.005630374E-01 -1.721709780E-02 2.340724308E-01
 8.113786578E-01 -1.550286449E-02 2.552326820E-01
 8.224706650E-01 -1.382883266E-02 2.733429749E-01
 8.346539140E-01 -1.203832589E-02 2.890212186E-01
 8.468668461E-01 -1.029456407E-02 3.071718101E-01
 8.587712646E-01 -8.623900823E-03 3.307739990E-01
 8.690621257E-01 -7.254566066E-03 3.553245331E-01
 8.798846602E-01 -5.929179955E-03 3.717234216E-01
 8.923519850E-01 -4.552275874E-03 3.823441276E-01
 9.022906423E-01 -3.528799396E-03 3.964856574E-01
 9.133557081E-01 -2.536691492E-03 4.066027813E-01
 9.240661860E-01 -1.704089926E-03 4.171869487E-01
 9.349314570E-01 -1.004224760E-03 4.265883329E-01
 9.476895928E-01 -3.494156117E-04 4.230204809E-01
 9.623686671E-01 1.576198265E-04 4.381167159E-01
 9.767284393E-01 4.385779030E-04 4.283495544E-01
 9.899378419E-01 5.179980071E-04 4.667893200E-01
 -5.000000000E-01 -1.000000000E+00 5.927576810E-02
 3.500000000E+00 -1.000000000E+00 1.340932693E-02
 3.500000000E+00 1.000000000E+00 1.305238229E-03
 -5.000000000E-01 1.000000000E+00 5.675813337E-02
 -5.000000000E-01 5.000000000E-01 1.139793585E-01
 -5.000000000E-01 2.752797990E-12 1.781297286E-01
 -5.000000000E-01 -5.000000000E-01 1.204382565E-01
 -9.421907698E-13 -1.000000000E+00 2.691262389E-02
 5.000000000E-01 -1.000000000E+00 -4.600030488E-02
 1.000000000E+00 -1.000000000E+00 -2.751956785E-02
 1.500000000E+00 -1.000000000E+00 2.121295922E-02
 2.000000000E+00 -1.000000000E+00 2.547145627E-02
 2.500000000E+00 -1.000000000E+00 1.813243924E-02
 3.000000000E+00 -1.000000000E+00 1.398662345E-02
 3.500000000E+00 -5.000000000E-01 1.474352360E-02
 3.500000000E+00 -2.752797990E-12 1.478413325E-02
 3.500000000E+00 5.000000000E-01 8.535346716E-03
 3.000000000E+00 1.000000000E+00 -4.859906289E-03
 2.500000000E+00 1.000000000E+00 -1.290930958E-02
 2.000000000E+00 1.000000000E+00 -2.812103523E-02
 1.500000000E+00 1.000000000E+00 -7.009719823E-02
 1.000000000E+00 1.000000000E+00 -1.361981306E-01
 5.000000000E-01 1.000000000E+00 -8.809936870E-02
 1.733724275E-12 1.000000000E+00 1.980717065E-02
 6.684940820E-01 -5.508721813E-02 -8.389888314E-03
 7.703547750E-01 -3.519171063E-02 1.744186698E-01
 8.854986388E-01 -1.387364852E-02 3.620745947E-01
 5.752169340E-01 -6.496725936E-02 -2.203820322E-01
 6.964458154E-01 6.221471708E-02 -4.206003990E-01
 2.870729169E-01 7.879450661E-02 -5.214625191E-01
 9.148846035E-01 2.730458883E-02 -1.494019070E-02
 7.964328303E-01 4.989417553E-02 -2.529492094E-01
 2.872963488E-01 -8.740801408E-02 -7.049928000E-01
 5.732676365E-01 7.728966641E-02 -6.593783046E-01
 3.969964022E-01 7.992333804E-02 -6.372679375E-01
 4.086804358E-01 -8.942988662E-02 -9.152166675E-01
 1.837396773E+00 -5.850237830E-01 2.506931238E-02
 1.756098714E+00 5.939548940E-01 -1.596491630E-02
 3.031189246E+00 2.156778074E-01 7.523098804E-03
 7.644706731E-01 -5.517710767E-01 -2.739453803E-02
 4.841431762E-01 -7.948112582E-02 -4.979403655E-01
 3.494270736E-01 -6.482653189E-01 -1.144756384E-01
 1.238163612E-01 -6.959282908E-02 -3.645423018E-01
 1.818582611E-01 -7.500252790E-02 -4.929725048E-01
 7.350873789E-01 5.383453727E-01 -2.190470622E-01
 4.766091643E-01 7.912869596E-02 -6.976524494E-01
 2.894343384E-01 6.446949751E-01 -1.037012895E-01
 1.176426937E-01 5.634305110E-02 -2.980053832E-01
 1.762686554E-01 6.663456302E-02 -3.920043711E-01
 2.734813209E+00 -5.327261660E-01 1.238340574E-02
 1.139424481E+00 6.842178850E-01 -7.925519682E-02
 9.886854873E-01 3.450575198E-01 -3.760873717E-02
 8.554787870E-01 3.931480911E-02 -1.517450502E-01
 1.258749277E+00 -6.820141830E-01 4.420470923E-02
 1.443115359E+00 -2.293212226E-01 5.116334839E-02
 2.249080146E+00 -5.862777148E-01 1.641090998E-02
 2.036579479E+00 -2.151829703E-01 1.150189503E-02
 2.422150366E+00 -1.868003807E-01 8.180898146E-03
 2.184500952E+00 1.579483041E-01 2.835436430E-03
 1.788131179E+00 1.102552365E-01 8.776835650E-03
 -2.741381887E-01 2.323467460E-01 1.897833149E-01
 -1.074091326E-01 6.246808406E-01 4.373968331E-02
 2.641793909E-02 3.297664390E-01 2.733835258E-02
 4.549781497E-02 3.886105023E-02 -1.027553929E-01
 -2.715941302E-01 -2.370487589E-01 1.959819375E-01
 -1.435176666E-01 -6.014803271E-01 5.819530247E-02
 1.376072872E-01 -3.779294244E-01 -7.635328427E-02
 2.207718076E+00 5.811292874E-01 -7.701118260E-03
 2.740790232E+00 6.005041885E-01 -8.893309990E-04
 -2.355533402E-01 -4.656696090E-03 2.581245806E-01
 -1.280639956E-01 1.265535249E-01 2.636839292E-01
 -1.204508364E-01 -1.426428094E-01 2.768631199E-01
 6.786008267E-02 -5.117538450E-02 -1.747025136E-01
 4.167787981E-02 -4.138072052E-02 -1.847197297E-03
 -7.484980882E-02 -3.242447375E-01 1.202500164E-01
 5.152756618E-03 -1.834089621E-01 1.569169377E-01
 1.604527013E-01 -2.475303288E-01 -2.231070808E-01
 2.394824741E-01 -8.462712160E-02 -6.017998512E-01
 2.636548600E-01 -8.669102379E-02 -6.544113581E-01
 2.151467815E-01 -7.710886505E-02 -5.594253563E-01
 -3.849602218E-02 -9.924954338E-02 3.969873820E-01
 2.056186075E-02 -2.878708118E-02 2.636855643E-01
 -1.100679223E-01 -2.381497413E-02 4.123906951E-01
 -7.110140830E-02 5.497412168E-02 4.296060803E-01
 2.160736769E-02 2.490349351E-02 2.697835103E-03
 2.936663330E-02 -1.114563188E-01 1.456738139E-01
 3.109340997E+00 -2.613050220E-01 1.242525084E-02
 -4.955578752E-02 -3.599793446E-02 6.075494359E-01
 -5.134847184E-02 1.104233710E-02 6.077391308E-01
 -2.966197546E-02 4.949398596E-02 4.824081863E-01
 -3.714626524E-02 1.014943501E-01 2.964498753E-01
 3.208488543E-02 1.125692532E-01 8.052293671E-02
 8.587188689E-02 4.958434108E-02 -2.310932549E-01
 7.951506651E-04 1.887340949E-01 1.264776790E-01
 7.873505448E-02 1.505313450E-01 -6.124043239E-02
 1.952654631E-01 2.910394054E-01 -2.047425572E-01
 2.341859103E-01 7.084621428E-02 -4.687271095E-01
 1.948952771E-01 1.884595939E-01 -2.863226018E-01
 -1.167341939E-01 2.660603808E-01 1.528724763E-01
 1.442098344E-01 4.567212529E-01 -6.255789145E-02
 8.132614328E-02 1.045434726E-01 -1.366005604E-01
 3.051309425E-01 4.058141976E-01 -2.537558616E-01
 3.217189110E-01 2.715274921E-01 -3.699710565E-01
 3.467242150E-01 8.094966701E-02 -5.804419795E-01
 4.416923161E-01 3.100518365E-01 -4.145070943E-01
 2.950529246E-01 1.633669010E-01 -4.395502292E-01
 4.031337551E-01 2.227498721E-01 -4.761411220E-01
 4.367753887E-01 8.165800542E-02 -6.694655042E-01
 5.220090486E-01 2.254978309E-01 -5.106931269E-01
 6.358474141E-01 6.694562241E-02 -5.442875744E-01
 6.162979000E-01 7.345455204E-02 -5.780920915E-01
 6.639683178E-01 6.400983608E-02 -4.842843897E-01
 5.257274688E-01 7.883348035E-02 -7.077540168E-01
 5.544767881E-01 7.718702584E-02 -6.851653440E-01
 5.580586055E-01 3.431001757E-01 -3.934812054E-01
 6.337239470E-01 2.330405479E-01 -4.348086077E-01
 3.518818104E-01 1.395102657E-01 -5.177115039E-01
 5.794880387E-01 1.616332508E-01 -5.567039009E-01
 6.688989862E-01 1.519851606E-01 -4.184736059E-01
 7.490672542E-01 5.887419255E-02 -3.314571971E-01
 7.233279047E-01 5.705111607E-02 -3.717897277E-01
 7.224047604E-01 2.197021992E-01 -3.075186954E-01
 7.519077765E-01 1.428960609E-01 -2.924831329E-01
 8.096327102E-01 1.906500199E-01 -2.068400434E-01
 8.379975851E-01 1.343153069E-01 -1.622954004E-01
 6.865271513E-01 3.527639173E-01 -2.919429535E-01
 5.199382272E-01 1.520391244E-01 -6.043902212E-01
 8.879070026E-01 1.906988327E-01 -9.317816861E-02
 9.633318626E-01 1.849724394E-02 1.345242919E-01
 9.234700823E-01 1.196909675E-01 -2.416937270E-02
 9.683783040E-01 1.804343324E-01 9.164568162E-03
 1.084402301E+00 2.438611258E-01 2.763258661E-02
 1.100642579E+00 1.080764907E-01 1.181245513E-01
 1.221797381E+00 1.680992139E-01 5.675190637E-02
 1.216966862E+00 3.033924588E-02 9.821098496E-02
 1.380764649E+00 8.279589902E-02 4.695000650E-02
 1.374175216E+00 2.853559416E-01 2.288506876E-02
 7.998813266E-01 9.631424924E-02 -2.337925159E-01
 7.734049879E-01 5.441987968E-02 -2.922767493E-01
 4.578967507E-01 4.748765043E-01 -2.973186142E-01
 6.205735045E-01 1.316162656E-01 -5.229321776E-01
 8.760725959E-01 9.625347767E-02 -1.043424880E-01
 1.108398807E+00 -7.115480435E-04 1.562342737E-01
 1.170961803E+00 -9.267553293E-02 1.259080066E-01
 9.712950560E-01 -1.731027613E-02 3.903201265E-01
 1.061205122E+00 -9.435075505E-02 2.149414223E-01
 1.119148121E+00 -1.970771298E-01 1.444326856E-01
 9.985475765E-01 -2.036241227E-01 1.870695981E-01
 8.313261181E-01 -2.541769263E-02 2.743394711E-01
 1.039957409E+00 -3.318469350E-01 1.185606472E-01
 1.235634572E+00 -3.563574092E-01 7.667172854E-02
 9.619509732E-01 -1.101615336E-01 2.728553243E-01
 8.939526424E-01 -1.887906594E-01 1.869370693E-01
 9.319044857E-01 -1.296074875E-02 3.955321496E-01
 9.106784737E-01 -1.192244133E-02 3.903305230E-01
 8.714896955E-01 -1.058265551E-01 2.377996427E-01
 7.951687651E-01 -1.556081520E-01 1.365076271E-01
 7.202686782E-01 -4.404609852E-02 8.908743396E-02
 7.445540483E-01 -4.043855000E-02 1.308865494E-01
 8.192290599E-01 -2.678154152E-01 9.790668224E-02
 7.204142914E-01 -2.215158759E-01 2.861616120E-02
 7.176868030E-01 -1.315508544E-01 4.670426781E-02
 6.336936782E-01 -1.721393694E-01 -8.068708947E-02
 6.152635675E-01 -6.116671646E-02 -1.170942980E-01
 6.384157759E-01 -5.446729102E-02 -6.304647912E-02
 6.295482752E-01 -2.704629618E-01 -9.726436647E-02
 5.436927073E-01 -2.050096837E-01 -2.751848345E-01
 5.365476955E-01 -7.316091515E-02 -3.289293088E-01
 5.310372287E-01 -3.116445353E-01 -2.605710882E-01
 3.474072944E-01 -8.659883585E-02 -8.482807900E-01
 4.342028607E-01 -2.460837779E-01 -4.832430141E-01
 4.690578636E-01 -1.650601389E-01 -5.179566282E-01
 4.486737215E-01 -8.079641893E-02 -7.186860904E-01
 3.773284137E-01 -1.777963936E-01 -6.542473858E-01
 3.449810802E-01 -2.616493025E-01 -4.697750999E-01
 2.835675788E-01 -1.884744385E-01 -5.244383169E-01
 8.077086039E-01 -9.214847409E-02 1.892661837E-01
 5.240513749E-01 -1.427173030E-01 -3.262152976E-01
 6.576264138E-01 -1.150124785E-01 -4.250360998E-02
 6.045855346E-01 -1.144796655E-01 -1.411168370E-01
 3.264237200E-01 -1.432795814E-01 -6.736810865E-01
 4.197190602E-01 -3.717699944E-01 -3.160915369E-01
 7.066535455E-01 1.143623683E-01 -3.697340838E-01
 9.202593885E-01 -6.954164077E-02 3.153171977E-01
 6.944582284E-01 -8.946572078E-02 2.764020441E-02
 6.932547243E-01 -4.826469481E-02 3.874911983E-02
 4.178749285E-01 -1.397721153E-01 -7.337447751E-01
 7.366157179E-01 -3.468171362E-01 1.097634850E-02
 8.880669101E-01 -3.963806820E-01 8.087080789E-02
 2.408701135E-01 -2.796985936E-01 -3.348314558E-01
 2.056268403E-01 -1.655881524E-01 -3.941491958E-01
 1.386086144E-01 -1.752851132E-01 -2.410790975E-01
 8.808281288E-01 -5.872600924E-02 2.996403783E-01
 8.556443788E-01 -2.098069938E-02 3.138215739E-01
 5.524299369E-01 1.226552202E-01 -6.305019218E-01
 2.490239255E-01 -1.296483606E-01 -5.439182354E-01
 1.725175614E-01 -1.280802084E-01 -3.808780755E-01
 1.042269415E+00 -5.802777470E-01 6.166294185E-02
 1.043602900E+00 4.549878127E-02 1.922947116E-01
 1.003392589E+00 1.068373550E-01 9.206685563E-02
 9.561533114E-01 7.162312291E-02 6.221674819E-02
 9.969146271E-01 5.711142920E-02 1.599008197E-01
 5.864387144E-01 1.132006970E-01 -5.958056353E-01
 7.561314266E-01 -9.220810387E-02 1.280721057E-01
 1.340007418E+00 -8.701043525E-02 6.683839763E-02
 1.562402965E+00 -4.129974682E-02 2.923065172E-02
 1.050626195E+00 -8.704817130E-03 2.241340989E-01
 1.022925123E+00 -5.230939749E-02 3.011365266E-01
 4.876561749E-01 -1.195567461E-01 -4.579975049E-01
 4.553913390E-01 -1.196206993E-01 -6.410324216E-01
 9.506079192E-01 2.186937758E-02 8.580082467E-02
 9.618214860E-01 3.747961112E-02 1.151345014E-01
 9.379210535E-01 4.105037774E-02 4.212235381E-02
 9.144161026E-01 6.818678177E-02 -2.368235568E-02
 8.812569111E-01 3.924214861E-02 -1.015066718E-01
 5.401400405E-01 -4.930423724E-01 -1.702592397E-01
 8.520313978E-01 2.987292790E-01 -1.586151212E-01
 2.900427991E-01 -1.297236829E-01 -6.302106067E-01
 3.137334754E-01 -8.666838487E-02 -7.794133035E-01
 5.176882948E-01 -1.048672257E-01 -3.632575672E-01
 5.115273575E-01 -8.074257541E-02 -4.070892487E-01
 9.665792943E-01 -5.231092096E-02 3.385443000E-01
 6.282790407E-01 -9.462336100E-02 -8.617149240E-02
 1.327073987E-01 -1.189831462E-01 -2.928673554E-01
 1.531584695E-01 -7.492617272E-02 -4.259491146E-01
 9.863635302E-03 -6.793577330E-02 3.148623619E-01
 -1.554513556E-02 -4.561973735E-02 5.074546770E-01
 9.373998396E-01 2.304853892E-02 5.087303158E-02
 2.099643312E-01 -1.199555659E-01 -4.749345877E-01
 9.825006807E-01 2.382213929E-02 1.906795647E-01
 1.007380462E+00 2.944258422E-02 2.450260863E-01
 9.942416773E-01 1.435790776E-02 2.674499540E-01
 1.376610608E-01 1.397593187E-01 -2.370046724E-01
 1.212660440E-01 9.517690890E-02 -2.452784020E-01
 1.503415504E-01 6.211401441E-02 -3.528378277E-01
 5.874146968E-01 7.260754112E-02 -6.412140909E-01
 7.069007761E-01 -4.367341826E-02 6.382618355E-02
 7.104343221E-01 -6.115961581E-02 6.196319250E-02
 1.123151848E-02 6.459939556E-02 2.005411674E-01
 5.161833879E-01 1.144303178E-01 -6.611682945E-01
 5.023596840E-01 8.042856023E-02 -7.068542410E-01
 4.773940800E-01 1.211916845E-01 -6.406773258E-01
 4.567157231E-01 1.769565049E-01 -5.609447618E-01
 4.273164050E-01 1.232399453E-01 -6.090727675E-01
 3.878408740E-01 1.169707477E-01 -5.839251369E-01
 3.738179969E-01 7.966223620E-02 -6.131138191E-01
 4.119987149E-01 8.089541234E-02 -6.483375868E-01
 4.692702127E-02 7.580149586E-02 -3.819362414E-02
 6.863662898E-02 4.446561688E-02 -1.890763605E-01
 5.541897873E-01 -1.096436533E-01 -2.636672854E-01
 1.021623611E+00 9.718844070E-03 2.636731672E-01
 4.056371202E-01 9.808394526E-02 -6.233159054E-01
 4.254750817E-01 9.381175318E-02 -6.438712123E-01
 4.468840377E-01 9.978034969E-02 -6.527241045E-01
 5.542059331E-01 -7.047396992E-01 -1.083035077E-01
 7.813059823E-01 -6.903752700E-02 1.680843810E-01
 7.949266684E-01 -2.986198847E-02 2.158379771E-01
 8.059713351E-01 -2.554337566E-02 2.372956061E-01
 8.071130710E-01 -3.887880086E-02 2.298260895E-01
 8.409280342E-01 -6.415522231E-02 2.554973042E-01
 7.860988689E-01 -4.508250357E-02 1.926135405E-01
 7.611686117E-01 -5.403982356E-02 1.484244164E-01
 7.829051065E-01 -3.013222239E-02 1.960814840E-01
 7.356199221E-01 -5.910948417E-02 1.082134048E-01
 7.571066113E-01 -3.580011105E-02 1.541225469E-01
 4.497918108E-01 8.192834440E-02 -6.779734993E-01
 9.262421326E-01 2.702621969E-02 1.736354783E-02
 2.737499424E-01 -4.176082128E-01 -2.328562516E-01
 1.558085082E-01 1.003494186E-01 -3.115048556E-01
 3.855931069E-01 9.164193642E-02 -6.126306252E-01
 3.648410805E-01 9.673733119E-02 -5.805126225E-01
 3.128701698E-01 1.196094309E-01 -5.013351514E-01
 3.161953493E-01 7.458442194E-02 -5.578157448E-01
 2.787669084E-01 1.240139693E-01 -4.573288082E-01
 2.611477229E-01 7.109458948E-02 -4.987164149E-01
 4.963081637E-01 -7.683332571E-02 -4.584569521E-01
 4.945785967E-01 -9.251377185E-02 -4.383683727E-01
 4.728696442E-01 -9.523825461E-02 -5.380880170E-01
 4.290564811E-01 -1.023080184E-01 -8.125153874E-01
 4.025136827E-01 -1.130193351E-01 -8.489267701E-01
 3.767208140E-01 -8.536816526E-02 -9.079838540E-01
 3.914445421E-01 -9.217801617E-02 -9.088274932E-01
 3.750082885E-01 -1.046526346E-01 -8.489161031E-01
 5.880234047E-01 -6.477117498E-02 -1.823021368E-01
 5.784391492E-01 -8.290419543E-02 -2.088701399E-01
 6.045630870E-01 -7.798774277E-02 -1.370302287E-01
 4.613871303E-01 -8.215987445E-02 -6.224189030E-01
 4.346849356E-01 -8.341068375E-02 -8.122871979E-01
 4.723778230E-01 -7.885501826E-02 -5.512592499E-01
 7.316948248E-01 -4.031665734E-02 1.105241396E-01
 6.012441270E-01 -6.110775516E-02 -1.502416786E-01
 4.245566585E-01 7.847172883E-02 -6.634783782E-01
 9.052010109E-01 -4.180198049E-02 3.419848828E-01
 9.357077176E-01 -4.147210455E-02 3.523547607E-01
 9.462867584E-01 -2.509458522E-02 3.957493078E-01
 9.205419680E-01 -2.687646504E-02 3.715771041E-01
 -1.663684387E-02 -1.021676057E-02 9.097816757E-01
 -1.580431340E-04 -1.301439757E-02 9.219012542E-01
 -4.721348123E-03 -2.897360194E-02 6.837055502E-01
 1.019797428E-02 -2.270902619E-02 4.876673099E-01
 6.734255359E-03 -1.766865059E-02 5.811878869E-01
 8.327258024E-03 -4.869485942E-02 4.134393292E-01
 3.094736783E-02 -3.599900990E-02 1.071940306E-01
 2.552000273E-02 -4.870077419E-02 1.978909783E-01
 4.311958311E-02 -5.979272746E-02 3.278832663E-02
 6.927830147E-02 -8.690467170E-02 -9.805755776E-02
 9.225791283E-02 -6.271036683E-02 -2.646475012E-01
 6.278931415E-01 -5.622856527E-02 -8.574942250E-02
 5.611958859E-01 -6.877033808E-02 -2.557316731E-01
 6.599372092E-01 -7.796725607E-02 -2.896079754E-02
 2.943013138E-01 9.757340201E-02 -5.097685662E-01
 2.557069634E+00 2.086086716E-01 1.955102053E-03
 5.240807096E-01 -7.365080149E-02 -3.722818717E-01
 3.855028809E-01 7.726238920E-02 -6.314021531E-01
 3.623655579E-01 -8.787009542E-02 -8.737747408E-01
 3.552315547E-01 -1.006744151E-01 -8.273942571E-01
 3.354064598E-01 -1.004452936E-01 -7.863169669E-01
 3.567411678E-01 -1.255735191E-01 -7.697574712E-01
 3.373336024E-01 1.995430519E-01 -4.431886446E-01
 3.126329214E-01 -1.063207753E-01 -7.302600055E-01
 2.729657803E-01 -1.029538163E-01 -6.429316377E-01
 2.504285048E-01 -9.787797569E-02 -6.010881579E-01
 8.838798307E-01 6.151080962E-02 -9.069506956E-02
 1.017975653E+00 -1.540941193E-02 3.686052217E-01
 9.947560401E-01 -2.271736547E-02 4.250600298E-01
 8.173021354E-01 -2.717035875E-02 2.542353027E-01
 8.255529657E-01 -4.385058622E-02 2.514444271E-01
 8.438293711E-01 -3.558379674E-02 2.801209294E-01
 5.520005141E-01 6.802685619E-01 -2.142968935E-01
 5.720426164E-01 -1.487979350E-01 -1.959673724E-01
 6.358413196E-01 -7.243161749E-02 -7.905703603E-02
 8.565990334E-01 6.850675541E-02 -1.427355002E-01
 8.332177328E-01 4.315801711E-02 -1.935163986E-01
 8.997643837E-01 4.535965985E-02 -5.660410926E-02
 8.193825594E-01 4.583607678E-02 -2.136811273E-01
 8.333740241E-01 6.063629439E-02 -1.868145499E-01
 8.356111638E-01 8.615413642E-02 -1.765016993E-01
 8.107886920E-01 6.277624057E-02 -2.233088823E-01
 7.886729375E-01 6.456901883E-02 -2.628569713E-01
 7.678569763E-01 7.257757605E-02 -2.944418643E-01
 7.435025580E-01 8.032645994E-02 -3.310570673E-01
 7.186973067E-01 8.575140208E-02 -3.649686136E-01
 8.471626047E-01 5.154966624E-02 -1.649519846E-01
 8.439446721E-01 3.888136698E-02 -1.759316326E-01
 9.167761687E-01 4.009808651E-02 -1.067707430E-02
 1.891236589E-02 -3.910488224E-02 2.524190277E-01
 1.008963111E-02 -3.146933568E-02 4.402885679E-01
 9.201093643E-01 -1.120008731E-02 3.983358596E-01
 8.664459488E-01 4.962930563E-02 -1.292527413E-01
 8.117052190E-02 -2.547059123E-01 -3.245186426E-02
 4.657709860E-01 9.214746365E-02 -6.744588409E-01
 3.702763874E-03 -2.365753916E-02 5.812784967E-01
 5.321078119E-01 -8.839209077E-02 -3.366856163E-01
 5.510878257E-01 -8.256296037E-02 -2.793492129E-01
 4.503438753E-01 -9.392232490E-02 -6.926583929E-01
 4.916142150E-01 9.396325107E-02 -6.827777323E-01
 8.660256173E-01 -3.781530374E-02 3.048093976E-01
 8.687606044E-01 -2.371708236E-02 3.335820943E-01
 8.825123251E-01 -2.903016472E-02 3.410156005E-01
 1.551896147E+00 1.575104982E-01 2.032239339E-02
 8.998678634E-01 -1.879796791E-02 3.723725893E-01
 6.128158663E-01 9.493388646E-02 -5.676008083E-01
 6.455191249E-01 1.058646967E-01 -4.938310778E-01
 6.775196800E-01 9.850186294E-02 -4.332078986E-01
 6.799413808E-01 7.179049580E-02 -4.456829551E-01
 9.824944600E-02 8.001261605E-02 -2.043785196E-01
 1.394152890E-01 7.783512726E-02 -3.085442614E-01
 8.092535183E-01 -6.070144011E-02 2.138539548E-01
 1.723804310E+00 -2.319683998E-01 2.208676917E-02
 2.738924507E-01 9.576243280E-02 -4.862394486E-01
 2.427371241E-01 1.101321874E-01 -4.312393115E-01
 2.428071330E-01 1.544245646E-01 -3.887113844E-01
 1.956684036E-01 1.254087945E-01 -3.540077855E-01
 2.122689407E-01 9.391827470E-02 -4.128848890E-01
 2.033889742E-01 7.200766653E-02 -4.264266973E-01
 1.850431587E-01 8.570398924E-02 -3.782926018E-01
 2.206748124E-01 7.679868712E-02 -4.452829524E-01
 1.890443129E-01 6.668750163E-02 -4.118247356E-01
 6.508399670E-01 -5.738191172E-02 -3.995419393E-02
 6.817086150E-01 -6.551482464E-02 1.716933228E-02
 8.076052744E-01 4.574866256E-02 -2.328782948E-01
 1.875585489E-01 -1.021418086E-01 -4.553080589E-01
 2.285753011E-01 -1.007890352E-01 -5.516995113E-01
 1.608962712E-01 -9.853003947E-02 -4.069769312E-01
 1.917839652E-01 -8.497762332E-02 -4.960096841E-01
 1.371138813E-01 -8.385324522E-02 -3.692486162E-01
 1.111955871E-01 -8.940649413E-02 -2.575366513E-01
 1.234533273E-01 -6.090566566E-01 -3.293681865E-02
 3.366131646E-01 1.022875255E-01 -5.480800881E-01
 3.295695083E-01 8.266477594E-02 -5.636705569E-01
 7.627790977E-02 6.699401527E-02 -1.606097958E-01
 1.007334204E-01 5.985349484E-02 -2.519398565E-01
 1.171357381E-01 7.181975536E-02 -2.704202068E-01
 5.295076181E-02 5.398042795E-02 -1.043969650E-01
 3.020668394E-01 7.854124792E-02 -5.380370309E-01
 -1.595046107E-02 1.590677999E-02 7.268855483E-01
 -3.091497794E-03 3.705645060E-02 3.964186610E-01
 6.235202054E-03 1.610962767E-02 2.889542296E-01
 7.237875921E-01 -8.562682974E-02 8.103547038E-02
 1.146796133E+00 4.089310008E-01 -1.214679019E-04
 1.417731036E+00 5.607079258E-01 -1.033960621E-02
 9.274852719E-01 4.777524861E-01 -1.126878353E-01