TITLE     = "Visualization of the solution"
VARIABLES = "x"
"y"
"Pressure_Coefficient"
ZONE T="Zone"
 STRANDID=0, SOLUTIONTIME=0
 Nodes=690, Elements=1165, ZONETYPE=FEQuadrilateral
 DATAPACKING=POINT
 DT=(DOUBLE DOUBLE DOUBLE )
 9.999010563E-01 5.303760991E-04 3.119642019E-01
 9.878206849E-01 2.883492503E-03 2.457879986E-01
 9.762519002E-01 5.216803402E-03 1.588526407E-01
 9.617308378E-01 8.120478131E-03 1.013644108E-01
 9.480583668E-01 1.075611729E-02 5.192252206E-02
 9.352483749E-01 1.329601184E-02 2.619445426E-03
 9.242405891E-01 1.535604242E-02 -2.421490348E-02
 9.122646451E-01 1.757097989E-02 -6.450582783E-02
 9.012560844E-01 1.961554401E-02 -1.036683440E-01
 8.895429969E-01 2.169569768E-02 -1.306321986E-01
 8.769620657E-01 2.379615232E-02 -1.556475335E-01
 8.648744822E-01 2.578523569E-02 -1.810410625E-01
 8.526560068E-01 2.771483921E-02 -1.985181084E-01
 8.412908316E-01 2.944984473E-02 -2.107320200E-01
 8.293923736E-01 3.121741116E-02 -2.250371810E-01
 8.164226413E-01 3.312137723E-02 -2.412330692E-01
 8.032692671E-01 3.498548642E-02 -2.628898648E-01
 7.909642458E-01 3.673437238E-02 -2.827901778E-01
 7.783476114E-01 3.843893111E-02 -2.984043925E-01
 7.662081718E-01 4.006101191E-02 -3.177458339E-01
 7.529138327E-01 4.178809747E-02 -3.405140765E-01
 7.390491366E-01 4.355335236E-02 -3.625660456E-01
 7.279037237E-01 4.491503537E-02 -3.804024354E-01
 7.162814736E-01 4.631034657E-02 -3.982168628E-01
 7.041873336E-01 4.771598056E-02 -4.183794624E-01
 6.902380586E-01 4.929606244E-02 -4.448608772E-01
 6.766641736E-01 5.078601092E-02 -4.694127973E-01
 6.660180688E-01 5.188633502E-02 -4.933905933E-01
 6.539264321E-01 5.312154070E-02 -5.151530529E-01
 6.418187022E-01 5.426577479E-02 -5.328481672E-01
 6.298783422E-01 5.536456406E-02 -5.509417169E-01
 6.180597544E-01 5.637487769E-02 -5.735360914E-01
 6.070635915E-01 5.730270222E-02 -5.976298571E-01
 5.944226384E-01 5.826719105E-02 -6.168937830E-01
 5.824776292E-01 5.911856890E-02 -6.356739914E-01
 5.688582659E-01 6.000627950E-02 -6.518271549E-01
 5.561924577E-01 6.075829640E-02 -6.632225109E-01
 5.437298417E-01 6.141711399E-02 -6.727784643E-01
 5.325220823E-01 6.194781139E-02 -6.811065273E-01
 5.207437873E-01 6.245756894E-02 -6.799134935E-01
 5.078982711E-01 6.289049238E-02 -6.803260610E-01
 4.968358278E-01 6.324950606E-02 -6.738894631E-01
 4.834588170E-01 6.354395300E-02 -6.629576288E-01
 4.701475501E-01 6.378359348E-02 -6.576079369E-01
 4.560738504E-01 6.395383924E-02 -6.482975682E-01
 4.425172508E-01 6.401580572E-02 -6.376134878E-01
 4.296393991E-01 6.401899457E-02 -6.251091322E-01
 4.166113436E-01 6.392075866E-02 -6.136466387E-01
 4.041991830E-01 6.378383189E-02 -6.020924370E-01
 3.916427195E-01 6.355536729E-02 -5.889490759E-01
 3.793162405E-01 6.328082830E-02 -5.794074005E-01
 3.679583669E-01 6.296609342E-02 -5.664510204E-01
 3.548195660E-01 6.253062934E-02 -5.521985107E-01
 3.424426615E-01 6.205455214E-02 -5.389025533E-01
 3.294910491E-01 6.149164587E-02 -5.308484172E-01
 3.186573982E-01 6.097801030E-02 -5.173863548E-01
 3.063424826E-01 6.031469256E-02 -5.016978368E-01
 2.930677235E-01 5.954115465E-02 -4.892662096E-01
 2.789114714E-01 5.862941220E-02 -4.778579647E-01
 2.665483654E-01 5.776353180E-02 -4.650538465E-01
 2.544258833E-01 5.684034154E-02 -4.514294754E-01
 2.419895083E-01 5.582655594E-02 -4.385042326E-01
 2.294595540E-01 5.473979563E-02 -4.273061512E-01
 2.171927094E-01 5.359897390E-02 -4.141031605E-01
 2.054392546E-01 5.243133754E-02 -4.010398618E-01
 1.940411478E-01 5.123604834E-02 -3.901151664E-01
 1.816788018E-01 4.986667261E-02 -3.768457779E-01
 1.697609127E-01 4.845112190E-02 -3.592709752E-01
 1.581043899E-01 4.698022082E-02 -3.439369506E-01
 1.462840885E-01 4.542251676E-02 -3.310723877E-01
 1.357140243E-01 4.393444210E-02 -3.147446406E-01
 1.242330819E-01 4.222756252E-02 -2.971635474E-01
 1.128953546E-01 4.043887183E-02 -2.765196051E-01
 1.022219136E-01 3.863919154E-02 -2.601079041E-01
 9.260810167E-02 3.692962229E-02 -2.425595427E-01
 8.170918375E-02 3.485584632E-02 -2.198279477E-01
 7.034870237E-02 3.252554312E-02 -1.992194747E-01
 6.083059311E-02 3.041340038E-02 -1.715518210E-01
 5.144778267E-02 2.816709131E-02 -1.378481567E-01
 4.287928715E-02 2.591471933E-02 -1.023070039E-01
 3.554410115E-02 2.381759696E-02 -7.538193701E-02
 2.912537195E-02 2.179715037E-02 -3.782866361E-02
 2.357672900E-02 1.987243816E-02 -9.181328523E-03
 1.951299980E-02 1.832568645E-02 2.806497967E-02
 1.575237699E-02 1.674980670E-02 7.209945745E-02
 1.294166874E-02 1.546586771E-02 1.238291176E-01
 1.038461272E-02 1.418546587E-02 1.661422583E-01
 8.551935665E-03 1.317891665E-02 1.998609832E-01
 6.915459875E-03 1.220337022E-02 2.325341620E-01
 5.367666017E-03 1.118715759E-02 2.813340376E-01
 3.374308813E-03 9.706092067E-03 4.174000950E-01
 1.657347428E-03 8.170879446E-03 3.943690665E-01
 2.118589327E-04 6.546549499E-03 6.491390682E-01
 -1.147237257E-03 4.341755062E-03 8.566613444E-01
 -1.740028383E-03 2.639925806E-03 9.689535401E-01
 -1.939318026E-03 1.250556437E-03 8.604704493E-01
 -1.866498846E-03 -3.339642717E-04 1.204011510E+00
 -1.450630021E-03 -2.047831658E-03 8.983221822E-01
 -5.371657899E-04 -4.046311136E-03 9.588360715E-01
 8.894150960E-04 -6.130649243E-03 8.080576741E-01
 2.895749174E-03 -8.318952285E-03 6.210531126E-01
 4.728137515E-03 -9.949439205E-03 5.077587516E-01
 6.798981223E-03 -1.154233050E-02 3.966894552E-01
 8.442614228E-03 -1.267520897E-02 3.374519762E-01
 1.049201563E-02 -1.396582834E-02 3.043586446E-01
 1.288248505E-02 -1.533439383E-02 2.584207802E-01
 1.612064242E-02 -1.701008901E-02 1.667333306E-01
 1.912002265E-02 -1.842219941E-02 9.514861498E-02
 2.296784520E-02 -2.008223720E-02 4.572022665E-02
 2.835865691E-02 -2.216745168E-02 -3.513179301E-04
 3.418448567E-02 -2.419739962E-02 -5.380588832E-02
 4.137397185E-02 -2.644542791E-02 -1.094227083E-01
 4.903558269E-02 -2.860138193E-02 -1.478558382E-01
 5.790661275E-02 -3.086779267E-02 -1.807417930E-01
 6.674953550E-02 -3.292568773E-02 -2.053672334E-01
 7.694056630E-02 -3.510159254E-02 -2.274561668E-01
 8.696276695E-02 -3.707215190E-02 -2.473493353E-01
 9.755130857E-02 -3.901145235E-02 -2.720457137E-01
 1.086303666E-01 -4.088238627E-02 -2.936739390E-01
 1.202892959E-01 -4.272788763E-02 -3.108191576E-01
 1.320395321E-01 -4.446302727E-02 -3.302218549E-01
 1.428181380E-01 -4.595148936E-02 -3.470519097E-01
 1.538490653E-01 -4.738922045E-02 -3.618105858E-01
 1.659343541E-01 -4.887214303E-02 -3.781647339E-01
 1.775545031E-01 -5.021257326E-02 -3.971246113E-01
 1.895328164E-01 -5.150250718E-02 -4.144274787E-01
 2.002233565E-01 -5.257563293E-02 -4.307891583E-01
 2.115541399E-01 -5.364369228E-02 -4.461505082E-01
 2.239208817E-01 -5.472784117E-02 -4.650067078E-01
 2.365605682E-01 -5.574211106E-02 -4.864085850E-01
 2.487644702E-01 -5.662431940E-02 -5.051177069E-01
 2.615316510E-01 -5.746352300E-02 -5.215638919E-01
 2.728826702E-01 -5.812294781E-02 -5.403837544E-01
 2.858534157E-01 -5.878126249E-02 -5.595203380E-01
 2.985678315E-01 -5.932977051E-02 -5.844887546E-01
 3.116006553E-01 -5.976069719E-02 -6.063171730E-01
 3.235782981E-01 -6.005367264E-02 -6.239990776E-01
 3.360718489E-01 -6.025789306E-02 -6.404970629E-01
 3.470094502E-01 -6.033906341E-02 -6.581160857E-01
 3.584709466E-01 -6.032540277E-02 -6.702205589E-01
 3.694788516E-01 -6.020488217E-02 -6.761842929E-01
 3.803855777E-01 -5.999192223E-02 -6.764155458E-01
 3.921641409E-01 -5.965159461E-02 -6.692561410E-01
 4.051133692E-01 -5.916823819E-02 -6.591905832E-01
 4.174948037E-01 -5.852645636E-02 -6.383148067E-01
 4.304226339E-01 -5.774142221E-02 -6.047427776E-01
 4.429889619E-01 -5.683172494E-02 -5.667254198E-01
 4.556069374E-01 -5.582078174E-02 -5.278742727E-01
 4.677005708E-01 -5.469675362E-02 -4.881734386E-01
 4.802159667E-01 -5.344418064E-02 -4.427332700E-01
 4.919336140E-01 -5.216963962E-02 -4.001987700E-01
 5.042282939E-01 -5.077594519E-02 -3.606691206E-01
 5.178315043E-01 -4.910037667E-02 -3.177822051E-01
 5.313679576E-01 -4.737738892E-02 -2.733591058E-01
 5.443739295E-01 -4.562309012E-02 -2.312037893E-01
 5.573538542E-01 -4.386906326E-02 -1.939925850E-01
 5.701283813E-01 -4.206150770E-02 -1.598450298E-01
 5.830664635E-01 -4.022997245E-02 -1.254416840E-01
 5.953419805E-01 -3.842835128E-02 -9.311147004E-02
 6.075503230E-01 -3.662349284E-02 -5.835976052E-02
 6.213018894E-01 -3.463921323E-02 -3.376145285E-02
 6.351450086E-01 -3.258343786E-02 -8.916294366E-03
 6.489237547E-01 -3.054872528E-02 2.123301666E-02
 6.619117856E-01 -2.863625623E-02 4.440156333E-02
 6.751732826E-01 -2.669807896E-02 6.664599070E-02
 6.873773932E-01 -2.492021583E-02 8.742406350E-02
 6.998978853E-01 -2.310494892E-02 1.098306864E-01
 7.143616676E-01 -2.106554061E-02 1.296613608E-01
 7.268129587E-01 -1.927847974E-02 1.515271325E-01
 7.385653257E-01 -1.766975224E-02 1.733932036E-01
 7.516258955E-01 -1.594199613E-02 1.832393610E-01
 7.637218237E-01 -1.428799704E-02 2.032241053E-01
 7.767278552E-01 -1.260401774E-02 2.273609744E-01
 7.885455489E-01 -1.114191581E-02 2.383509485E-01
 8.010706902E-01 -9.577500634E-03 2.567614140E-01
 8.124559522E-01 -8.285833523E-03 2.736739781E-01
 8.239429593E-01 -6.992613431E-03 2.826335336E-01
 8.361368179E-01 -5.645873956E-03 3.030221015E-01
 8.486188650E-01 -4.406950902E-03 3.201270646E-01
 8.605359197E-01 -3.285878338E-03 3.318609871E-01
 8.720953465E-01 -2.301214496E-03 3.461707084E-01
 8.840560913E-01 -1.409329008E-03 3.560043478E-01
 8.969320655E-01 -5.715598236E-04 3.641568675E-01
 9.071034789E-01 -3.011059016E-05 3.738989628E-01
 9.174879789E-01 4.271089274E-04 3.745822077E-01
 9.269808531E-01 7.567890570E-04 3.766876617E-01
 9.362926483E-01 9.891622467E-04 3.816972936E-01
 9.483638406E-01 1.175378216E-03 3.721983029E-01
 9.613361955E-01 1.230101916E-03 3.873284787E-01
 9.763444066E-01 1.115232939E-03 3.677842388E-01
 9.888083935E-01 8.608254720E-04 3.930249548E-01
 -5.000000000E-01 -1.000000000E+00 5.078664708E-02
 3.500000000E+00 -1.000000000E+00 1.248121638E-02
 3.500000000E+00 1.000000000E+00 -9.118299505E-04
 -5.000000000E-01 1.000000000E+00 4.471459226E-02
 -5.000000000E-01 5.000000000E-01 9.685090960E-02
 -5.000000000E-01 2.752797990E-12 1.461249431E-01
 -5.000000000E-01 -5.000000000E-01 9.911154601E-02
 -9.421907698E-13 -1.000000000E+00 2.756659521E-02
 5.000000000E-01 -1.000000000E+00 -2.397806539E-02
 1.000000000E+00 -1.000000000E+00 -2.401356592E-03
 1.500000000E+00 -1.000000000E+00 3.172536955E-02
 2.000000000E+00 -1.000000000E+00 2.957098638E-02
 2.500000000E+00 -1.000000000E+00 2.016149847E-02
 3.000000000E+00 -1.000000000E+00 1.445560959E-02
 3.500000000E+00 -5.000000000E-01 1.352341662E-02
 3.500000000E+00 -2.752797990E-12 1.315985489E-02
 3.500000000E+00 5.000000000E-01 6.136026088E-03
 3.000000000E+00 1.000000000E+00 -6.895540706E-03
 2.500000000E+00 1.000000000E+00 -1.576663921E-02
 2.000000000E+00 1.000000000E+00 -3.268925863E-02
 1.500000000E+00 1.000000000E+00 -7.451070044E-02
 1.000000000E+00 1.000000000E+00 -1.339624177E-01
 5.000000000E-01 1.000000000E+00 -8.855475186E-02
 1.733724275E-12 1.000000000E+00 9.413090287E-03
 6.827290025E-01 -4.144626523E-02 7.453580200E-02
 7.826460993E-01 -2.387145761E-02 2.248753559E-01
 9.024866810E-01 -9.109537622E-03 3.535292425E-01
 6.984716236E-01 5.962008249E-02 -4.205482745E-01
 2.779346116E-01 -6.964780060E-02 -5.308252236E-01
 2.839788961E-01 7.408330587E-02 -4.645575653E-01
 9.127346639E-01 3.057029536E-02 -6.196830129E-02
 7.977629476E-01 4.818878089E-02 -2.660127087E-01
 5.750864330E-01 -5.482702464E-02 -1.453671864E-01
 5.916190489E-01 7.230995775E-02 -6.039802263E-01
 4.094125837E-01 -7.527053846E-02 -6.135132706E-01
 4.114051001E-01 7.611223586E-02 -5.945164768E-01
 1.788696573E+00 -5.286574627E-01 2.838395569E-02
 1.772123296E+00 6.104908172E-01 -2.012141659E-02
 3.031171573E+00 2.156859074E-01 5.974690495E-03
 7.500000000E-01 -5.669872981E-01 -1.253902337E-02
 4.857289695E-01 -6.787621006E-02 -4.049358793E-01
 3.008036339E-01 -7.302636086E-01 -5.067215357E-02
 1.132020999E-01 -5.721397107E-02 -2.723711227E-01
 1.789969039E-01 -6.278067240E-02 -3.814520577E-01
 7.628075652E-01 6.651341943E-01 -1.858931677E-01
 4.925027213E-01 7.628793736E-02 -6.523210196E-01
 3.331064566E-01 6.149688332E-01 -1.586459234E-01
 1.160407838E-01 4.927181532E-02 -2.687514641E-01
 1.860694182E-01 6.088596113E-02 -3.661462466E-01
 2.734857541E+00 -5.326819718E-01 1.277368749E-02
 1.210239593E+00 6.965769771E-01 -7.301348552E-02
 9.793979203E-01 3.338369171E-01 -6.011951215E-02
 1.244680164E+00 -6.507840181E-01 4.995868039E-02
 1.538211429E+00 -2.950618718E-01 3.681269387E-02
 2.241002316E+00 -5.768223625E-01 1.742576862E-02
 2.025798715E+00 -1.912134206E-01 1.149863473E-02
 2.420237294E+00 -1.842850532E-01 7.968427833E-03
 2.184652159E+00 1.583014659E-01 8.322619435E-04
 1.777395914E+00 1.258149721E-01 6.743909865E-03
 -2.708660103E-01 -2.365842579E-01 1.632274567E-01
 -1.459154138E-01 -6.008278549E-01 5.083063877E-02
 1.204509069E-01 -3.664777171E-01 -4.931392180E-02
 -2.733658102E-01 2.285629974E-01 1.588708210E-01
 -1.316718496E-01 6.533570758E-01 3.859101287E-02
 2.041336580E-02 3.572515955E-01 1.572661733E-02
 4.497787219E-02 3.769722997E-02 -7.119026139E-02
 2.215237224E+00 5.745904333E-01 -1.083448038E-02
 2.742035683E+00 5.994177911E-01 -2.910638390E-03
 -2.392426034E-01 -6.711550896E-03 2.168448710E-01
 -1.195650439E-01 -1.418520590E-01 2.242480793E-01
 6.260847795E-02 -4.073521808E-02 -1.673392215E-01
 -7.190892166E-02 -3.057748657E-01 1.026064216E-01
 -4.419695933E-03 -1.701660446E-01 1.347609228E-01
 2.890984834E-02 -2.887856618E-02 2.586746094E-02
 1.630560411E-01 -2.156651710E-01 -1.911082283E-01
 3.397597663E-01 -7.040394532E-02 -6.229808569E-01
 3.716584679E-01 -7.410541226E-02 -6.460337695E-01
 3.170683847E-01 -7.500980255E-02 -5.854892895E-01
 2.304529393E-01 -7.204661094E-02 -4.526074700E-01
 -3.675720910E-02 -9.741568319E-02 3.302668807E-01
 -1.016816779E-01 -2.109419117E-02 3.565057024E-01
 2.802676603E-02 -1.058908570E-01 1.109316649E-01
 3.109365867E+00 -2.612664303E-01 1.163514297E-02
 -4.211779144E-02 -4.071101459E-02 4.703252174E-01
 6.221465948E-04 -5.724259797E-02 3.233851414E-01
 1.020910112E-02 -1.698012435E-02 3.392078177E-01
 3.597887783E-02 -6.881060608E-02 2.332961583E-02
 4.539703598E-02 -3.582676855E-02 -1.014992667E-01
 7.905826259E-02 -9.007238695E-02 -1.206483346E-01
 8.054053771E-02 -4.839455480E-02 -2.047282879E-01
 7.409284598E-02 -1.432553494E-01 -5.792470337E-02
 1.467232206E-01 -5.905724197E-02 -3.320235318E-01
 1.195841706E-01 -1.099183037E-01 -2.174656094E-01
 2.558254238E+00 2.078471039E-01 7.828588502E-04
 -1.978558852E-02 -3.042901037E-02 6.621439759E-01
 -4.047533541E-02 -9.241133303E-04 5.997156022E-01
 2.399900251E-03 -1.072109060E-02 7.119399201E-01
 4.802020688E-02 -4.891618002E-02 -6.085492477E-02
 2.992455140E-02 -4.634281304E-02 8.373671331E-02
 1.404812285E-02 -3.589228632E-02 2.409720740E-01
 1.683672223E-02 -2.296025487E-02 1.886997758E-01
 6.651056103E-02 -6.045742802E-02 -1.205267350E-01
 9.285700322E-02 -6.581562219E-02 -2.039149846E-01
 1.157202008E-01 -7.907595792E-02 -2.436226798E-01
 1.290509017E-01 -6.362216692E-02 -2.958245817E-01
 1.462962627E-01 -8.198555557E-02 -3.002983834E-01
 1.612159322E-01 -1.170474651E-01 -2.869706123E-01
 1.632929357E-01 -6.781812934E-02 -3.509101828E-01
 -1.710404229E-03 -2.986680857E-02 4.445757408E-01
 7.443326425E-03 -2.383041043E-02 3.855181133E-01
 6.639696187E-03 -1.353219767E-02 4.277004994E-01
 1.393955430E-03 -1.790961987E-02 5.193801238E-01
 1.806554919E-01 -8.369006447E-02 -3.553356944E-01
 2.088507188E-01 -1.143981985E-01 -3.630048627E-01
 2.075398143E-01 -6.261820978E-02 -4.270554419E-01
 1.804734054E-01 -1.532477889E-01 -2.827222703E-01
 2.394386914E-01 -1.675488020E-01 -3.411716732E-01
 2.381625947E-01 -2.662430078E-01 -2.471246234E-01
 3.299367341E-01 -1.961618139E-01 -3.976231070E-01
 3.362765687E-01 -2.943712376E-01 -2.744302180E-01
 4.274277656E-01 -2.320062091E-01 -3.336194397E-01
 4.429125786E-01 -3.333900907E-01 -2.360138827E-01
 5.447965708E-01 -2.753063446E-01 -1.698241489E-01
 5.207267297E-01 -1.698973381E-01 -2.469823301E-01
 6.313808265E-01 -4.673667424E-02 -1.814526437E-02
 5.393887147E-01 -5.775264892E-02 -2.402196295E-01
 6.178069384E-01 -1.911865460E-01 -5.910710088E-02
 4.463154202E-01 -1.539053774E-01 -4.007672774E-01
 4.483291392E-01 -6.801689247E-02 -5.301668323E-01
 5.844229100E-01 -1.268406551E-01 -1.185905422E-01
 6.762255252E-01 -1.365256837E-01 3.117876539E-02
 7.328816897E-01 -2.787791256E-02 1.557934759E-01
 7.085455440E-01 -2.106390933E-01 5.146127256E-02
 8.444853513E-01 -1.695129385E-02 3.019404806E-01
 8.194001495E-01 -2.153350834E-02 2.671805670E-01
 8.662601424E-01 -1.407023744E-02 3.247205371E-01
 7.388042626E-01 -1.377474304E-01 1.089480240E-01
 7.891402108E-01 -1.995164195E-01 1.252355493E-01
 9.701029796E-01 -1.176129682E-02 3.554508725E-01
 9.423664574E-01 -1.041865769E-02 3.623786919E-01
 7.033609099E-01 -8.852638087E-02 8.415296441E-02
 7.121392127E-01 -3.979594790E-02 1.199531964E-01
 7.569077744E-01 -8.099888642E-02 1.558253292E-01
 7.604259577E-01 -2.701918574E-02 1.902854300E-01
 8.006773241E-01 -1.155028690E-01 1.790134003E-01
 8.634116448E-01 -1.590236482E-01 1.884901235E-01
 8.672402194E-01 -2.453625468E-01 1.409482043E-01
 9.619488277E-01 -2.138531328E-01 1.769199214E-01
 9.513190882E-01 -3.380551799E-01 1.207755599E-01
 1.083693426E+00 -2.665544643E-01 1.238155495E-01
 1.088072045E+00 -1.156137200E-01 1.604541818E-01
 8.759432476E-01 -9.100710475E-02 2.521494000E-01
 9.910202351E-01 -1.200655563E-01 2.237134435E-01
 7.731965262E-01 -3.390500524E-01 5.984560634E-02
 1.215605467E+00 -1.952040473E-01 9.359917701E-02
 1.217288283E+00 -6.520772396E-02 8.523679012E-02
 8.331804761E-01 -7.159529422E-02 2.391060967E-01
 1.125604169E+00 -1.761214694E-02 1.307711593E-01
 1.192726223E+00 7.574843097E-02 7.805435482E-02
 1.380451784E+00 2.988812848E-02 3.868687476E-02
 1.316146111E+00 2.587322232E-01 2.095686532E-02
 1.078602842E+00 1.247883891E-01 9.178014518E-02
 9.604419699E-01 2.535343888E-02 8.220401266E-02
 4.925400598E-01 -1.204022757E-01 -3.395749512E-01
 2.985687409E-01 -1.335513058E-01 -4.596826843E-01
 6.522150378E-01 -8.937526657E-02 1.024047915E-02
 6.569969131E-01 -4.351289903E-02 3.121169667E-02
 3.682632814E-01 -1.407665675E-01 -4.988337974E-01
 3.382445568E-01 -1.136236471E-01 -5.380379022E-01
 4.509542356E-01 -1.113982139E-01 -4.541338181E-01
 5.776957628E-01 -4.122155698E-01 -1.035551072E-01
 7.256619284E-01 -6.234169838E-02 1.281845367E-01
 6.153489799E-01 -4.947140055E-02 -4.804899245E-02
 6.275927458E-01 -6.666690095E-02 -2.710722045E-02
 6.050084801E-01 -6.426800611E-02 -7.153041940E-02
 6.148787324E-01 -9.051697181E-02 -5.499425716E-02
 6.471960367E-01 -5.848728054E-02 9.523620661E-03
 9.246203221E-01 -1.307218870E-01 2.315565905E-01
 9.345290736E-01 -7.714183488E-02 2.820831833E-01
 8.958181066E-01 -4.694197274E-02 3.047877554E-01
 9.797141493E-01 -6.441505658E-02 2.855209570E-01
 9.272766264E-01 -3.926841180E-02 3.243975487E-01
 9.216185561E-01 -9.519290656E-03 3.633862516E-01
 1.062239485E+00 4.052212985E-02 1.572049484E-01
 9.987858056E-01 9.194948909E-02 8.273320421E-02
 1.014955703E+00 1.896261824E-01 1.450570023E-02
 8.598851972E-01 3.933272715E-02 -1.801629952E-01
 9.042450713E-01 1.457967727E-01 -8.819974937E-02
 9.391702947E-01 9.429293068E-02 -1.791785993E-02
 1.124129458E+00 2.325532602E-01 3.113268093E-02
 6.985013924E-01 -5.487282906E-02 9.270509634E-02
 1.089039222E+00 -4.622334323E-01 8.698233905E-02
 1.270309279E+00 -3.609060704E-01 6.818803612E-02
 8.798594448E-01 -1.292596040E-02 3.387987054E-01
 8.755646756E-01 -2.961171723E-02 3.157878072E-01
 8.920914844E-01 -2.415416118E-02 3.330426514E-01
 8.626989031E-01 -5.000859920E-02 2.838860683E-01
 8.572173050E-01 -2.652222918E-02 3.043141824E-01
 8.382313925E-01 -3.454607198E-02 2.775054479E-01
 8.142051058E-01 -4.309271001E-02 2.456651776E-01
 8.054462162E-01 -2.845961239E-02 2.480923641E-01
 7.925196372E-01 -3.893592870E-02 2.249625614E-01
 6.031345658E-01 -4.894661654E-02 -7.542195035E-02
 5.797628886E-01 -7.736621989E-02 -1.321302534E-01
 5.424841594E-01 -1.083884838E-01 -2.195483874E-01
 5.631172046E-01 -6.434238526E-02 -1.748532209E-01
 5.135224921E-01 -9.205162642E-02 -2.999706782E-01
 5.115193302E-01 -6.238510720E-02 -3.280727566E-01
 4.815630984E-01 -9.140335183E-02 -3.962905581E-01
 4.717413380E-01 -7.533908364E-02 -4.439326587E-01
 9.114772710E-01 -7.835176123E-03 3.622306153E-01
 9.098345476E-01 -2.157904725E-02 3.416839985E-01
 9.314900435E-01 -2.081826037E-02 3.498991803E-01
 9.467942401E-01 -2.715898049E-02 3.401054957E-01
 8.324393341E-01 -1.713387231E-02 2.872353985E-01
 6.439285079E-01 -4.237380339E-02 7.013621398E-03
 9.566229185E-01 -1.305593536E-02 3.625249871E-01
 9.707737978E-01 -3.140215731E-02 3.239423797E-01
 1.004753251E+00 -2.759608917E-02 3.008833984E-01
 1.018374885E+00 1.497761042E-02 2.381095360E-01
 9.851139809E-01 -1.137551813E-02 3.951360523E-01
 1.023226113E+00 -7.143058568E-02 2.392827198E-01
 9.921288748E-01 4.587422485E-02 1.504393451E-01
 9.852357442E-01 1.470806061E-02 2.069722371E-01
 7.220647984E-01 -3.046634256E-02 1.402528004E-01
 6.729847379E-01 -5.921973191E-02 5.081059372E-02
 6.444082684E-01 -2.856795212E-01 -3.582614387E-02
 9.318379918E-01 -7.191275576E-03 3.673236417E-01
 7.731783453E-01 -3.576493986E-02 2.038676583E-01
 7.527090928E-01 -4.811094765E-02 1.699129723E-01
 5.902334686E-01 -5.401103182E-02 -1.068169674E-01
 8.905599922E-01 -9.675910261E-03 3.496052335E-01
 2.539576470E-01 -1.115441777E-01 -4.342304040E-01
 2.595477041E-01 -6.811264347E-02 -5.041167397E-01
 2.865182370E-01 -1.018787531E-01 -4.909855749E-01
 3.122429372E-01 -9.796187959E-02 -5.330071263E-01
 5.430512793E-01 -7.953542270E-02 -2.265462207E-01
 1.055296733E+00 -2.051847913E-02 2.004874385E-01
 4.081702833E-01 -1.241620640E-01 -5.133016520E-01
 3.746057692E-01 -1.074785380E-01 -5.748070041E-01
 4.243909484E-01 -9.562685334E-02 -5.467543963E-01
 4.325829388E-01 -7.585529625E-02 -5.674515932E-01
 3.979881185E-01 -9.275603836E-02 -5.922011441E-01
 3.549988700E-01 -8.748995681E-02 -6.052001343E-01
 3.899545357E-01 -7.521944178E-02 -6.387956278E-01
 9.522559631E-01 -4.858312791E-02 3.164618349E-01
 9.562936526E-01 5.702108264E-02 5.246827707E-02
 9.357525390E-01 2.779086015E-02 8.867239225E-03
 9.214588088E-01 5.721897519E-02 -4.000635893E-02
 8.964189048E-01 4.765069536E-02 -9.805055740E-02
 8.846565597E-01 3.535739910E-02 -1.312642800E-01
 8.755389452E-01 5.331620251E-02 -1.497549319E-01
 8.885057607E-01 8.403273290E-02 -1.083526600E-01
 8.413367766E-01 1.292285745E-01 -1.824109547E-01
 7.491245955E-01 5.556555011E-02 -3.415138769E-01
 7.219938746E-01 5.486448731E-02 -3.859137540E-01
 8.504602221E-01 1.952150938E-01 -1.584449838E-01
 7.688459483E-01 1.805012071E-01 -2.641104995E-01
 6.486607380E-01 6.678822498E-02 -5.120262760E-01
 6.714813176E-01 6.263001688E-02 -4.735813262E-01
 6.238095666E-01 6.938673228E-02 -5.521470864E-01
 8.186215066E-01 2.867839420E-01 -1.958740499E-01
 6.950577311E-01 2.608533478E-01 -3.420159663E-01
 6.777249367E-01 1.641818483E-01 -4.051207559E-01
 5.888266838E-01 2.155537807E-01 -4.625298833E-01
 5.380731078E-01 7.383341057E-02 -6.601260068E-01
 5.616280296E-01 7.323778408E-02 -6.423780816E-01
 5.924145487E-01 3.092529143E-01 -4.007952509E-01
 4.864118629E-01 2.713072567E-01 -4.345069388E-01
 3.493124099E-01 7.447536518E-02 -5.346433223E-01
 5.061752589E-01 1.816622399E-01 -5.273069456E-01
 4.489406590E-01 7.571275103E-02 -6.281485021E-01
 4.019946893E-01 2.141328056E-01 -4.352435251E-01
 3.864800221E-01 2.978550563E-01 -3.602382219E-01
 2.962381520E-01 2.383101437E-01 -3.322023585E-01
 2.335783337E-01 6.452802023E-02 -4.198574116E-01
 2.609328660E-01 6.696248400E-02 -4.478062307E-01
 2.441042123E-01 3.660316741E-01 -1.920963031E-01
 6.074035396E-01 1.456339044E-01 -5.130514488E-01
 3.379760075E-01 1.598702441E-01 -4.361635851E-01
 2.394134596E-01 1.698990250E-01 -3.264430615E-01
 7.345686666E-01 1.230006776E-01 -3.369773780E-01
 7.821461186E-01 1.041150825E-01 -2.687967518E-01
 8.506919573E-01 7.968827920E-02 -1.757552472E-01
 8.231352893E-01 4.943600016E-02 -2.281924700E-01
 3.952773187E-01 1.462491634E-01 -5.030655504E-01
 2.077379215E-01 2.387163514E-01 -2.315614595E-01
 1.653998822E-01 1.734862016E-01 -2.214343783E-01
 1.553616455E-01 5.876546149E-02 -3.263597307E-01
 1.964426537E-01 1.265585662E-01 -3.152083835E-01
 1.455813188E-01 1.116241237E-01 -2.550296034E-01
 9.781028575E-02 1.526063134E-01 -1.079128334E-01
 7.409974197E-02 4.360660900E-02 -1.791712958E-01
 2.895481161E-01 1.278205599E-01 -4.144316901E-01
 3.123372203E-01 7.239776453E-02 -4.985659646E-01
 6.489653727E-01 1.165922977E-01 -4.748799781E-01
 9.904878975E-02 9.628899786E-02 -1.651811314E-01
 4.075453812E-02 1.142986986E-01 4.480035523E-02
 1.664718964E-02 2.185291970E-02 9.275920002E-02
 4.735060694E-01 4.068444642E-01 -3.208287767E-01
 3.614376796E-01 1.124528331E-01 -5.089172226E-01
 3.840869786E-01 7.258107968E-02 -5.732644272E-01
 3.243464620E-01 1.083172809E-01 -4.767159110E-01
 6.091532956E-01 1.076228730E-01 -5.405470566E-01
 5.711232873E-01 1.152367590E-01 -5.844004761E-01
 1.968646082E-02 2.141872014E-01 5.882591941E-02
 -4.047450595E-02 1.376795986E-01 2.030020546E-01
 -3.404809896E-03 8.412430060E-02 2.468961808E-01
 8.157287099E-01 7.712186331E-02 -2.260749813E-01
 1.065522035E-01 2.539099804E-01 -8.587141936E-02
 6.778713089E-01 4.220615740E-01 -2.800734501E-01
 7.525148938E-01 9.176070463E-02 -3.230226203E-01
 7.748996528E-01 5.110337447E-02 -2.992043082E-01
 7.200893832E-01 9.212101480E-02 -3.685390655E-01
 3.347571512E-01 7.350342951E-02 -5.218283588E-01
 8.443543090E-01 5.413841387E-02 -1.959774590E-01
 5.583902294E-01 1.549756066E-01 -5.522448726E-01
 1.294126592E-01 7.645673017E-02 -2.576549324E-01
 1.790489066E-01 9.265752172E-02 -3.214104717E-01
 2.136229653E-01 9.323012681E-02 -3.648600872E-01
 2.115828467E-01 6.913409022E-02 -3.908115022E-01
 1.417469154E-01 5.978710741E-02 -3.019284051E-01
 3.994370692E-01 1.071045327E-01 -5.465192067E-01
 4.353175586E-01 1.169678684E-01 -5.651531339E-01
 4.458065627E-01 1.641787132E-01 -5.219874521E-01
 1.533155916E-01 7.784641021E-02 -2.992301502E-01
 1.687421040E-01 6.778751680E-02 -3.375406660E-01
 4.349227630E-01 7.662397085E-02 -6.147355781E-01
 3.424274547E-01 9.044122676E-02 -5.114870274E-01
 3.609962433E-01 8.533161305E-02 -5.341055112E-01
 7.625964220E-01 5.095586107E-02 -3.210557502E-01
 7.637848988E-01 7.015278875E-02 -3.090791829E-01
 7.399786093E-01 7.257148277E-02 -3.491335567E-01
 7.895854624E-01 6.586218877E-02 -2.719231628E-01
 8.369666647E-01 4.127281158E-02 -2.107223785E-01
 7.863119840E-01 4.806552952E-02 -2.832356146E-01
 3.977243476E-01 7.447497913E-02 -5.820455317E-01
 3.719655015E-01 7.430336662E-02 -5.591532960E-01
 3.610104175E-01 7.192141352E-02 -5.496719714E-01
 1.259289817E-01 5.575483326E-02 -2.785570614E-01
 2.223578600E-01 6.458086101E-02 -4.094385497E-01
 1.959037768E-01 7.666631568E-02 -3.607810626E-01
 1.986072888E-01 6.207075058E-02 -3.830503065E-01
 6.351260246E-02 8.009096752E-02 -8.368847613E-02
 2.996763327E-02 7.152729935E-02 7.014768872E-02
 -7.635644696E-04 4.901464482E-02 3.340199860E-01
 -4.770306231E-02 5.332537381E-02 3.903506487E-01
 -2.180181924E-02 2.601845918E-02 6.732783267E-01
 -1.349007970E-01 1.101898749E-01 2.376398530E-01
 7.121200495E-01 5.603130769E-02 -4.012120699E-01
 3.235248906E-01 8.404458160E-02 -4.991688947E-01
 3.021591598E-01 8.986751300E-02 -4.679260048E-01
 2.736663196E-01 9.973092681E-02 -4.271629754E-01
 2.420536414E-01 1.186196689E-01 -3.740411287E-01
 2.719842924E-01 6.884257531E-02 -4.589956303E-01
 7.329526470E-01 5.718592490E-02 -3.667906889E-01
 8.544392323E-01 4.302619270E-01 -1.602182246E-01
 8.751265036E-02 6.525480513E-02 -1.744841088E-01
 4.934519102E-02 5.665606979E-02 -6.663213677E-02
 2.782044588E-02 4.754291849E-02 6.371933819E-02
 2.471482250E-02 2.628372870E-02 2.569726779E-02
 9.705619411E-02 4.944197515E-02 -2.283021131E-01
 8.427624754E-02 4.859527542E-02 -1.970153737E-01
 1.069732616E-01 4.816970610E-02 -2.531590558E-01
 1.084264258E-01 6.285134201E-02 -2.308853859E-01
 8.470306019E-01 3.838172731E-02 -1.992213448E-01
 6.382350657E-01 8.414458542E-02 -5.153422792E-01
 6.639897586E-01 9.102467664E-02 -4.671131403E-01
 6.086126082E-01 8.094410481E-02 -5.676599810E-01
 5.865196036E-01 9.354188932E-02 -5.920991471E-01
 2.988850027E-01 6.965261599E-02 -4.854174554E-01
 2.446452884E-01 9.063612725E-02 -4.058934898E-01
 4.760549063E-01 1.298096588E-01 -5.792527062E-01
 4.623358739E-01 1.035660244E-01 -6.047422574E-01
 4.633085451E-01 8.132251533E-02 -6.313721158E-01
 4.854857610E-01 9.575803008E-02 -6.251054317E-01
 5.156798188E-01 7.414702021E-02 -6.650852930E-01
 5.225809195E-01 1.176421726E-01 -6.045199951E-01
 5.043379074E-01 7.286808621E-02 -6.639139241E-01
 5.082097656E-01 8.732679712E-02 -6.452572451E-01
 5.270863234E-01 8.613353954E-02 -6.485496917E-01
 5.488070382E-01 8.917472840E-02 -6.353910196E-01
 5.768974190E-01 7.426025092E-02 -6.245336267E-01
 4.909163776E-01 -6.299320835E-01 -7.844329771E-02
 3.778411523E-01 -8.740987744E-02 -6.148552346E-01
 5.494582800E-01 6.218018131E-01 -2.236595499E-01
 1.169693849E+00 4.319994742E-01 -1.961503425E-02
 1.427848247E+00 4.963056148E-01 -1.786669398E-02
 6.961289773E-01 -3.682804139E-02 9.617199601E-02
 9.877606548E-01 -7.183912547E-01 1.331533362E-02
 2.307001320E-01 -9.499751947E-02 -4.238632748E-01
 7.751369532E-01 -5.337090529E-02 1.935028115E-01
 7.178599404E-01 6.833187491E-02 -3.866875550E-01
 4.446138433E-01 9.064716902E-02 -6.064021174E-01
 4.218192001E-01 9.032281973E-02 -5.862782677E-01
 7.444215354E-01 -3.017774579E-02 1.692350847E-01
 1.742808033E+00 -1.416320830E-01 1.855951735E-02
 3.827850483E-01 8.806700588E-02 -5.532534708E-01
 5.007784311E-01 -7.559111021E-02 -3.488540337E-01
 8.553402098E-01 -1.398190501E-02 3.162910365E-01
 6.848352642E-01 6.230581235E-02 -4.471534793E-01
 6.985874340E-01 7.697464235E-02 -4.150242537E-01