TITLE     = "Visualization of the solution"
VARIABLES = "x"
"y"
"Pressure_Coefficient"
ZONE T="Zone"
 STRANDID=0, SOLUTIONTIME=0
 Nodes=706, Elements=1197, ZONETYPE=FEQuadrilateral
 DATAPACKING=POINT
 DT=(DOUBLE DOUBLE DOUBLE )
 1.000112772E+00 5.192145472E-04 2.859868336E-01
 9.880103469E-01 2.743129386E-03 2.389072421E-01
 9.759677649E-01 4.938460421E-03 1.642709095E-01
 9.611246586E-01 7.617676165E-03 9.289362897E-02
 9.471871853E-01 1.016728673E-02 5.168508146E-02
 9.333103299E-01 1.263258792E-02 1.329297335E-02
 9.216631055E-01 1.467411406E-02 -3.161952374E-02
 9.093708396E-01 1.686432213E-02 -6.748169157E-02
 8.973556161E-01 1.884816401E-02 -9.467413232E-02
 8.852370977E-01 2.084929496E-02 -1.325374480E-01
 8.728051782E-01 2.282436006E-02 -1.507493409E-01
 8.602656722E-01 2.465420589E-02 -1.607643835E-01
 8.476441503E-01 2.650058642E-02 -1.855783897E-01
 8.363825083E-01 2.813902125E-02 -2.068007644E-01
 8.245021105E-01 2.977265604E-02 -2.160305027E-01
 8.113646507E-01 3.152403980E-02 -2.286319176E-01
 7.983248234E-01 3.324842453E-02 -2.489706918E-01
 7.861762047E-01 3.483269736E-02 -2.676441509E-01
 7.735698223E-01 3.641068190E-02 -2.807598874E-01
 7.613394260E-01 3.789980337E-02 -2.910010492E-01
 7.480999827E-01 3.947874159E-02 -3.136540017E-01
 7.343819737E-01 4.111822695E-02 -3.367111038E-01
 7.234221101E-01 4.236458242E-02 -3.461963664E-01
 7.119907141E-01 4.361001402E-02 -3.601060941E-01
 7.003589869E-01 4.489133134E-02 -3.795059998E-01
 6.865777373E-01 4.632845521E-02 -4.033506120E-01
 6.733388901E-01 4.768934846E-02 -4.231769662E-01
 6.630434990E-01 4.867638275E-02 -4.345551349E-01
 6.512426734E-01 4.977335408E-02 -4.533186102E-01
 6.396459341E-01 5.082618818E-02 -4.738834453E-01
 6.278384328E-01 5.183763802E-02 -4.960323315E-01
 6.165887713E-01 5.276631936E-02 -5.145031181E-01
 6.055130363E-01 5.361041054E-02 -5.266051181E-01
 5.928045511E-01 5.452293903E-02 -5.413556897E-01
 5.809997320E-01 5.532100052E-02 -5.592464241E-01
 5.675936937E-01 5.616088584E-02 -5.754657246E-01
 5.550038815E-01 5.686376989E-02 -5.891560359E-01
 5.427090526E-01 5.748826638E-02 -6.010949284E-01
 5.316995978E-01 5.799353495E-02 -6.072467621E-01
 5.200729370E-01 5.845025182E-02 -6.135402019E-01
 5.075557232E-01 5.889957026E-02 -6.167109389E-01
 4.964302182E-01 5.921376497E-02 -6.110209818E-01
 4.833253026E-01 5.951013416E-02 -6.054108495E-01
 4.703023136E-01 5.974128470E-02 -5.999270654E-01
 4.561077654E-01 5.990426615E-02 -5.984220900E-01
 4.427769780E-01 5.999863520E-02 -5.931107560E-01
 4.298996031E-01 5.998771265E-02 -5.805167024E-01
 4.170643091E-01 5.990570411E-02 -5.702165516E-01
 4.046770930E-01 5.976925045E-02 -5.624606427E-01
 3.924374282E-01 5.958238989E-02 -5.544222895E-01
 3.801290989E-01 5.931577086E-02 -5.447838744E-01
 3.690868616E-01 5.903313309E-02 -5.331085014E-01
 3.561362028E-01 5.862648413E-02 -5.221046978E-01
 3.442389667E-01 5.820473656E-02 -5.092122061E-01
 3.315594792E-01 5.767478421E-02 -4.987387207E-01
 3.207691014E-01 5.719299242E-02 -4.877984372E-01
 3.084730208E-01 5.656861886E-02 -4.741921321E-01
 2.953393757E-01 5.584717169E-02 -4.613856861E-01
 2.814074159E-01 5.499747023E-02 -4.494531755E-01
 2.688152492E-01 5.416189507E-02 -4.363004361E-01
 2.568607330E-01 5.329727754E-02 -4.219719231E-01
 2.442696989E-01 5.232946202E-02 -4.106556668E-01
 2.313873619E-01 5.127217621E-02 -3.999370888E-01
 2.191700190E-01 5.019455403E-02 -3.860163927E-01
 2.073479593E-01 4.907716066E-02 -3.746121306E-01
 1.959629804E-01 4.795175791E-02 -3.619579179E-01
 1.834165305E-01 4.663618281E-02 -3.513840547E-01
 1.712522954E-01 4.527917504E-02 -3.364386921E-01
 1.596208662E-01 4.390054196E-02 -3.213560703E-01
 1.473437250E-01 4.236068577E-02 -3.076218376E-01
 1.365373433E-01 4.093341529E-02 -2.949233119E-01
 1.248042658E-01 3.929788992E-02 -2.793622037E-01
 1.130297557E-01 3.754172847E-02 -2.657744317E-01
 1.024061888E-01 3.586381674E-02 -2.499665380E-01
 9.254703671E-02 3.421726078E-02 -2.308060102E-01
 8.122388273E-02 3.219260275E-02 -2.103638892E-01
 6.943365186E-02 2.991831675E-02 -1.873363081E-01
 5.963169783E-02 2.786713466E-02 -1.593762654E-01
 5.001269281E-02 2.567685582E-02 -1.358973483E-01
 4.139218479E-02 2.353649959E-02 -1.078566694E-01
 3.408775851E-02 2.153653838E-02 -7.609901856E-02
 2.770914696E-02 1.961472258E-02 -4.473188204E-02
 2.232338674E-02 1.782834902E-02 -2.307119756E-02
 1.845164038E-02 1.640635356E-02 7.306670079E-03
 1.492272969E-02 1.498904638E-02 4.157649366E-02
 1.228430029E-02 1.382935699E-02 7.356991384E-02
 9.897621349E-03 1.267551072E-02 7.826015909E-02
 8.171495050E-03 1.176664699E-02 1.046816463E-01
 6.614382379E-03 1.087817270E-02 1.181085928E-01
 5.164321046E-03 9.968480095E-03 1.933833008E-01
 3.246043343E-03 8.610513061E-03 2.366484563E-01
 1.593550085E-03 7.207099814E-03 3.835692883E-01
 1.694097591E-04 5.701614544E-03 4.397604463E-01
 -1.156073995E-03 3.712571459E-03 9.947280975E-01
 -1.770454808E-03 2.145534847E-03 6.830846665E-01
 -1.998757012E-03 8.904428687E-04 1.077012433E+00
 -1.973259263E-03 -5.505449953E-04 9.384631433E-01
 -1.613362576E-03 -2.128220629E-03 7.651794416E-01
 -7.856864249E-04 -3.927752376E-03 7.674224524E-01
 5.655423156E-04 -5.827693734E-03 5.975803361E-01
 2.486246871E-03 -7.808147464E-03 5.313429099E-01
 4.254113883E-03 -9.275294840E-03 4.266278065E-01
 6.294401828E-03 -1.072788332E-02 3.184878959E-01
 7.853451185E-03 -1.171650644E-02 2.642960580E-01
 9.799594060E-03 -1.283991057E-02 2.230699564E-01
 1.210828125E-02 -1.405527256E-02 1.826398784E-01
 1.521969680E-02 -1.552900765E-02 1.283659492E-01
 1.814264245E-02 -1.678882539E-02 7.691264070E-02
 2.192383632E-02 -1.827126183E-02 4.006860066E-02
 2.717249282E-02 -2.013046294E-02 -1.331597219E-02
 3.277199343E-02 -2.190912887E-02 -6.433032056E-02
 3.989995643E-02 -2.394532599E-02 -1.016959612E-01
 4.733053222E-02 -2.586276084E-02 -1.292847224E-01
 5.608779937E-02 -2.791935764E-02 -1.528011929E-01
 6.471220404E-02 -2.977407351E-02 -1.837511526E-01
 7.473434508E-02 -3.175438568E-02 -2.086633436E-01
 8.464618027E-02 -3.356631473E-02 -2.254273230E-01
 9.496290237E-02 -3.533170000E-02 -2.410741386E-01
 1.057734117E-01 -3.705648705E-02 -2.581945086E-01
 1.171902716E-01 -3.876395896E-02 -2.730363597E-01
 1.286934167E-01 -4.037835449E-02 -2.873340787E-01
 1.394851953E-01 -4.181158915E-02 -3.032439241E-01
 1.503428519E-01 -4.316836223E-02 -3.151304695E-01
 1.623648256E-01 -4.459112138E-02 -3.281903604E-01
 1.740321517E-01 -4.589877650E-02 -3.443538066E-01
 1.859589517E-01 -4.715366289E-02 -3.622489996E-01
 1.965899318E-01 -4.820398241E-02 -3.788951762E-01
 2.078475654E-01 -4.925290495E-02 -3.942131037E-01
 2.201987058E-01 -5.032918230E-02 -4.115703677E-01
 2.328407615E-01 -5.134191737E-02 -4.295887254E-01
 2.453488111E-01 -5.227003619E-02 -4.491164412E-01
 2.582064867E-01 -5.312613398E-02 -4.704551621E-01
 2.695880830E-01 -5.381171778E-02 -4.916025034E-01
 2.825903296E-01 -5.449900031E-02 -5.092292585E-01
 2.954246700E-01 -5.508063734E-02 -5.298379440E-01
 3.084162176E-01 -5.557703599E-02 -5.526119544E-01
 3.204207122E-01 -5.592062324E-02 -5.742065865E-01
 3.329596817E-01 -5.617973581E-02 -5.886296473E-01
 3.438979983E-01 -5.631817132E-02 -6.045382753E-01
 3.552375734E-01 -5.636072531E-02 -6.154511375E-01
 3.663412035E-01 -5.632556230E-02 -6.266438885E-01
 3.771600723E-01 -5.618282035E-02 -6.359045310E-01
 3.885782957E-01 -5.592793971E-02 -6.343484846E-01
 4.012754858E-01 -5.551974475E-02 -6.268340829E-01
 4.135286212E-01 -5.499165505E-02 -6.128488795E-01
 4.265895486E-01 -5.428944528E-02 -5.875306952E-01
 4.392538071E-01 -5.348061770E-02 -5.556421778E-01
 4.515480995E-01 -5.257987976E-02 -5.237754067E-01
 4.636807442E-01 -5.156343430E-02 -4.881761947E-01
 4.763646722E-01 -5.039465800E-02 -4.459267002E-01
 4.878427088E-01 -4.922205955E-02 -4.006560886E-01
 5.001325607E-01 -4.789711162E-02 -3.560326131E-01
 5.136444569E-01 -4.634868354E-02 -3.142282554E-01
 5.271746516E-01 -4.471295699E-02 -2.731986846E-01
 5.405794382E-01 -4.300407693E-02 -2.320345957E-01
 5.536568761E-01 -4.130581766E-02 -1.947181485E-01
 5.666127801E-01 -3.955180198E-02 -1.600810851E-01
 5.794837475E-01 -3.779147938E-02 -1.270420473E-01
 5.914792418E-01 -3.609901667E-02 -9.512303507E-02
 6.040090919E-01 -3.436417133E-02 -6.908146587E-02
 6.173157692E-01 -3.246334940E-02 -4.194593908E-02
 6.314320564E-01 -3.046895936E-02 -1.260864060E-02
 6.452458501E-01 -2.849438787E-02 1.396765283E-02
 6.585389376E-01 -2.663376369E-02 3.677391719E-02
 6.718139648E-01 -2.476095222E-02 5.694836712E-02
 6.842207909E-01 -2.302327007E-02 7.958289137E-02
 6.965624094E-01 -2.131159790E-02 1.004099248E-01
 7.108632922E-01 -1.934931427E-02 1.216650681E-01
 7.235794663E-01 -1.762424968E-02 1.430922470E-01
 7.355651855E-01 -1.604777388E-02 1.598337374E-01
 7.481449842E-01 -1.440709457E-02 1.755381144E-01
 7.608275414E-01 -1.280674245E-02 1.925696326E-01
 7.735294104E-01 -1.118898299E-02 2.124061911E-01
 7.850036621E-01 -9.786931798E-03 2.346775580E-01
 7.981349230E-01 -8.301968686E-03 2.468406432E-01
 8.093141913E-01 -7.063540164E-03 2.580763155E-01
 8.206173182E-01 -5.834253971E-03 2.767448332E-01
 8.332388997E-01 -4.568089731E-03 2.930167370E-01
 8.456099629E-01 -3.404952819E-03 3.068204715E-01
 8.575541377E-01 -2.365862951E-03 3.200221876E-01
 8.694277406E-01 -1.441161847E-03 3.330128546E-01
 8.819386363E-01 -6.141492049E-04 3.403623901E-01
 8.950512409E-01 1.461736829E-04 3.472319491E-01
 9.055772424E-01 6.150731933E-04 3.548604724E-01
 9.160201550E-01 9.881237056E-04 3.553499966E-01
 9.255942106E-01 1.241046004E-03 3.568395220E-01
 9.349607229E-01 1.403389382E-03 3.564331579E-01
 9.474585056E-01 1.501260907E-03 3.485580988E-01
 9.607872963E-01 1.458368963E-03 3.570636432E-01
 9.755695462E-01 1.242028666E-03 3.338304708E-01
 9.886551499E-01 9.088047664E-04 3.693218431E-01
 -5.000000000E-01 -1.000000000E+00 4.616314658E-02
 3.500000000E+00 -1.000000000E+00 1.107960546E-02
 3.500000000E+00 1.000000000E+00 -2.965342432E-04
 -5.000000000E-01 1.000000000E+00 4.352852781E-02
 -5.000000000E-01 5.000000000E-01 8.615886054E-02
 -5.000000000E-01 2.752797990E-12 1.328680472E-01
 -5.000000000E-01 -5.000000000E-01 8.950675514E-02
 -9.421907698E-13 -1.000000000E+00 1.895789728E-02
 5.000000000E-01 -1.000000000E+00 -2.617827904E-02
 1.000000000E+00 -1.000000000E+00 -3.452664974E-03
 1.500000000E+00 -1.000000000E+00 2.908307319E-02
 2.000000000E+00 -1.000000000E+00 2.735210816E-02
 2.500000000E+00 -1.000000000E+00 1.832547478E-02
 3.000000000E+00 -1.000000000E+00 1.295083548E-02
 3.500000000E+00 -5.000000000E-01 1.182414481E-02
 3.500000000E+00 -2.752797990E-12 1.159951466E-02
 3.500000000E+00 5.000000000E-01 5.953990808E-03
 3.000000000E+00 1.000000000E+00 -6.289458475E-03
 2.500000000E+00 1.000000000E+00 -1.479403864E-02
 2.000000000E+00 1.000000000E+00 -3.097365493E-02
 1.500000000E+00 1.000000000E+00 -7.043301699E-02
 1.000000000E+00 1.000000000E+00 -1.216965766E-01
 5.000000000E-01 1.000000000E+00 -8.330192121E-02
 1.733724275E-12 1.000000000E+00 1.098709744E-02
 6.783345741E-01 -3.882528682E-02 6.351043775E-02
 7.821057833E-01 -2.445346624E-02 2.181460703E-01
 9.007186466E-01 -8.697584148E-03 3.397131266E-01
 7.082367225E-01 5.550214912E-02 -3.613198158E-01
 2.740251038E-01 -6.611886101E-02 -4.802070488E-01
 2.732871307E-01 6.742960193E-02 -4.287856430E-01
 9.050812853E-01 2.826173185E-02 -7.411528237E-02
 8.089276492E-01 4.594542536E-02 -2.293670283E-01
 5.759455652E-01 -5.203699127E-02 -1.352095660E-01
 6.126349493E-01 6.209569428E-02 -5.091429462E-01
 4.091088584E-01 -6.726073766E-02 -5.939346450E-01
 4.221492538E-01 7.005641415E-02 -5.631207037E-01
 5.151784579E-01 7.192195645E-02 -5.991317223E-01
 1.837200109E+00 -5.839442510E-01 2.547836224E-02
 1.763614198E+00 5.805536584E-01 -1.627523163E-02
 3.031167572E+00 2.156877615E-01 5.241356798E-03
 7.500000000E-01 -5.669872981E-01 -2.041795340E-02
 4.818347381E-01 -6.403264997E-02 -4.095981400E-01
 7.574560607E-01 5.691717566E-01 -1.826584361E-01
 2.734867515E+00 -5.326720102E-01 1.121558159E-02
 1.167009277E+00 6.149020142E-01 -6.104649845E-02
 9.869352099E-01 3.435089428E-01 -5.510550190E-02
 1.276176122E+00 -5.950796570E-01 5.030542268E-02
 1.490166422E+00 -2.511993971E-01 3.632583753E-02
 2.919026849E-01 6.583367470E-01 -9.012203011E-02
 1.045166292E-01 4.470331638E-02 -2.403800993E-01
 1.607215829E-01 5.800948141E-02 -3.084597663E-01
 2.126319226E-01 -5.385259703E-01 -5.555832481E-02
 7.732786572E-02 -4.192231480E-02 -1.923868024E-01
 1.360962830E-01 -5.158316051E-02 -2.826958611E-01
 1.900475966E-01 -5.927404091E-02 -3.557229678E-01
 2.249094982E+00 -5.860231341E-01 1.600875510E-02
 2.036421997E+00 -2.138491058E-01 1.194816959E-02
 2.422185611E+00 -1.864153504E-01 7.558789055E-03
 2.184686039E+00 1.583809458E-01 -1.799287727E-04
 1.771500415E+00 1.322345404E-01 2.811671145E-03
 -2.711384377E-01 -2.547265644E-01 1.456374266E-01
 -1.614494581E-01 -5.658563787E-01 5.482322492E-02
 -2.729733123E-01 2.313740894E-01 1.482518414E-01
 -1.058980140E-01 6.269917546E-01 2.821453796E-02
 2.970045715E-02 3.285541615E-01 1.938018306E-02
 5.486656852E-02 3.488923930E-02 -1.281879082E-01
 2.203166016E+00 5.863736455E-01 -9.354155196E-03
 2.740022040E+00 6.013824431E-01 -2.659119176E-03
 -2.509967946E-01 -9.999086003E-04 1.948008317E-01
 -1.423213737E-01 -1.291218915E-01 2.211002064E-01
 3.222627250E-02 -2.873941096E-02 -1.773017534E-02
 3.882191029E-02 -3.652681360E-01 1.778452556E-02
 2.860094258E-01 -3.227516228E-01 -1.967739678E-01
 3.506990067E-01 -6.488836850E-02 -5.944457183E-01
 3.129596715E-01 -6.754737350E-02 -5.409293182E-01
 -1.210677534E-01 1.101031513E-01 2.261872768E-01
 -1.238863266E-01 -4.227592496E-03 2.879612277E-01
 -5.719902811E-02 -6.702094410E-02 3.406915894E-01
 -5.046543697E-02 -1.505256290E-01 1.911129974E-01
 2.139620354E-03 -9.398953705E-02 1.940936941E-01
 2.752402158E-02 -1.997707023E-01 4.171286775E-02
 -1.555639014E-02 -5.304113487E-02 3.936552833E-01
 1.909047809E-02 -2.059732645E-02 8.005561588E-02
 9.738505451E-03 -1.573787591E-02 2.446169155E-01
 -5.924215180E-02 -1.104714763E-02 4.544085076E-01
 6.621214435E-02 -1.073134878E-01 -5.091350811E-02
 1.148104367E-01 -1.583054239E-01 -1.302096286E-01
 1.201677424E-01 -9.780083905E-02 -2.010670171E-01
 1.757021975E-01 -1.245704148E-01 -2.614089193E-01
 2.391912551E-01 -6.144646439E-02 -4.275540750E-01
 1.806397948E-01 -1.782898352E-01 -2.210883354E-01
 2.326278528E-01 -1.493258127E-01 -3.198180638E-01
 1.284630837E-01 -2.469487002E-01 -1.039166216E-01
 1.556589626E-01 -8.498358964E-02 -2.733712028E-01
 1.652283496E-01 -5.437683394E-02 -3.207910304E-01
 2.228496046E-01 -1.068555562E-01 -3.482577761E-01
 2.129114572E-01 -6.263122570E-02 -3.861292237E-01
 2.637048640E-01 -1.081501930E-01 -4.060629405E-01
 2.917152546E-01 -1.553893877E-01 -3.826944121E-01
 3.064429755E-01 -1.068818080E-01 -4.672095065E-01
 3.499404391E-01 -1.416226561E-01 -4.510477573E-01
 3.265449432E-01 -2.140734139E-01 -3.338103523E-01
 3.991052816E-01 -1.989712366E-01 -3.655413450E-01
 4.052682471E-01 -1.399376809E-01 -4.588523545E-01
 4.490684086E-01 -6.625504564E-02 -5.064834155E-01
 3.725619048E-01 -1.054354610E-01 -5.288724404E-01
 3.844450965E-01 -6.718070049E-02 -6.111294778E-01
 3.406758192E-01 -9.655866450E-02 -5.219047124E-01
 2.431800930E-01 -2.277202250E-01 -2.442364394E-01
 3.109371460E+00 -2.612577163E-01 1.021079946E-02
 3.770781254E-02 -7.284563468E-02 4.994457938E-02
 5.898398027E-02 -3.749192162E-02 -1.393388405E-01
 1.285054481E-02 -5.178465285E-02 2.091158794E-01
 -3.011589732E-02 -2.805028407E-02 5.129487823E-01
 2.072593374E-03 -1.048294741E-02 4.903237556E-01
 3.845195075E-01 -2.752793068E-01 -2.816502286E-01
 4.673152002E-01 -2.700872491E-01 -2.520641617E-01
 4.259661782E-01 -3.791761273E-01 -1.789861362E-01
 5.780978385E-01 -3.596784306E-01 -1.040042180E-01
 6.178835633E-01 -2.190927625E-01 -5.040386012E-02
 6.274328843E-01 -4.539108957E-02 -2.394550794E-02
 5.223165250E-01 -1.632578708E-01 -2.302415591E-01
 5.349671971E-01 -5.995673308E-02 -2.424583900E-01
 7.194303265E-01 -3.190678977E-01 3.618621755E-02
 7.512794566E-01 -1.893718885E-01 8.626155199E-02
 8.384568857E-01 -2.682617802E-01 1.067352036E-01
 8.399723774E-01 -1.685413782E-02 2.864666099E-01
 9.658774208E-01 -1.407092079E-02 3.212189142E-01
 8.173602685E-01 -1.643771157E-02 2.618172071E-01
 8.639543746E-01 -1.672943232E-02 3.096161976E-01
 7.297539652E-01 -2.667821832E-02 1.463503204E-01
 7.575944091E-01 -2.815156420E-02 1.814815914E-01
 8.644958896E-01 -1.592256831E-01 1.806049744E-01
 9.595134760E-01 -2.461337980E-01 1.506756433E-01
 9.869895373E-01 -1.327755583E-01 1.981373638E-01
 1.069077471E+00 -1.825980632E-01 1.399867498E-01
 1.115905114E+00 -9.993359540E-02 1.294142553E-01
 1.185614648E+00 -1.832498443E-01 9.329644130E-02
 1.217092553E+00 -7.161112398E-02 8.264717515E-02
 1.124683462E+00 4.824711222E-03 1.041202717E-01
 1.265226771E+00 5.554569356E-02 5.736995089E-02
 7.959288829E-01 -1.130634818E-01 1.654968523E-01
 6.800460807E-01 -1.363199359E-01 3.139715960E-02
 9.237841495E-01 -9.018233521E-02 2.531187329E-01
 9.311262798E-01 -1.030979047E-02 3.396377784E-01
 1.150480462E+00 1.375985052E-01 6.310655591E-02
 9.705775705E-01 1.753198633E-02 1.185615067E-01
 1.298205502E+00 2.355847263E-01 2.271344952E-02
 1.026201408E+00 -5.972127217E-02 2.145380713E-01
 9.613624164E-01 -3.879185129E-01 9.257470048E-02
 1.360150620E+00 -2.476113443E-02 4.527979626E-02
 1.141471809E+00 -3.244647479E-01 9.159996623E-02
 1.064824129E+00 8.045012601E-02 1.075242615E-01
 5.225369730E-01 -5.255021595E-01 -1.153792240E-01
 9.926216096E-01 -6.289034636E-01 5.977668212E-02
 1.447947288E+00 1.112815939E-01 2.134085013E-02
 1.505089700E+00 3.586847910E-01 -1.311363457E-03
 1.154903381E+00 3.057919198E-01 9.141420246E-03
 1.037948185E+00 1.980728737E-01 2.346066153E-02
 8.784268026E-01 2.237840096E-01 -1.233089746E-01
 8.546984488E-01 3.743681806E-02 -1.680865346E-01
 9.467929178E-01 1.466418992E-01 -2.088185943E-02
 9.974761225E-01 9.914074617E-02 7.489707048E-02
 9.345605967E-01 7.727373040E-02 -1.677819131E-02
 8.824216996E-01 1.167691973E-01 -1.069599946E-01
 7.539107244E-01 5.282527438E-02 -3.000578549E-01
 7.929457934E-01 1.721382634E-01 -2.159560310E-01
 9.431843561E-01 2.232425680E-02 4.056896564E-02
 7.716304438E-01 2.620596170E-01 -2.168259138E-01
 7.035863854E-01 2.033839364E-01 -3.061424757E-01
 6.617067508E-01 5.975709117E-02 -4.297233862E-01
 6.792108613E-01 5.874718206E-02 -4.081516255E-01
 6.773530413E-01 3.165085958E-01 -2.852516580E-01
 5.976211094E-01 2.306387378E-01 -3.896661112E-01
 3.510460667E-01 6.774125541E-02 -5.078819602E-01
 3.861718548E-01 7.168775463E-02 -5.362134659E-01
 5.619002923E-01 6.728626846E-02 -5.719454230E-01
 6.296594150E-01 1.554390609E-01 -4.142274966E-01
 5.230932090E-01 1.870773971E-01 -4.713095105E-01
 4.754777799E-01 7.924144292E-02 -5.817315002E-01
 4.997671862E-01 2.645196160E-01 -3.943211092E-01
 4.410773328E-01 1.852951011E-01 -4.516690641E-01
 3.974181055E-01 2.950030474E-01 -3.466932241E-01
 3.355899093E-01 2.009792822E-01 -3.745360537E-01
 2.235616460E-01 6.626215124E-02 -3.776899842E-01
 2.914344148E-01 3.016074216E-01 -2.516934319E-01
 2.364398895E-01 2.114917839E-01 -2.635041115E-01
 6.875027500E-01 1.344742835E-01 -3.531418112E-01
 8.208655881E-01 1.048459702E-01 -1.960163293E-01
 2.757106855E-01 1.430674076E-01 -3.584673787E-01
 3.128645615E-01 6.611997462E-02 -4.706142721E-01
 2.028208405E-01 1.337416725E-01 -2.856382620E-01
 3.847038197E-01 1.417992265E-01 -4.621546158E-01
 4.791525509E-01 3.906750437E-01 -3.054804801E-01
 4.352293371E-01 1.301981216E-01 -5.090306549E-01
 4.509130181E-01 7.051106846E-02 -5.848564947E-01
 5.748639433E-01 1.249363527E-01 -4.952288786E-01
 6.487876646E-01 1.115295284E-01 -4.169751357E-01
 6.344125109E-01 5.954037909E-02 -4.778155458E-01
 1.526509377E-01 1.873383769E-01 -1.809327417E-01
 1.232696170E-01 1.223636596E-01 -1.798882907E-01
 7.246718824E-02 1.809405738E-01 -5.101576751E-02
 4.301438119E-02 1.109486923E-01 3.184957749E-02
 2.462211226E-02 2.354823698E-02 -3.927871950E-03
 3.857129382E-02 2.969772525E-02 -6.846916528E-02
 2.425528203E-01 1.085958653E-01 -3.595271787E-01
 2.497544043E-01 6.585555964E-02 -4.045461239E-01
 -1.656701985E-02 1.806381423E-01 1.305964776E-01
 -2.185175827E-02 8.473178765E-02 2.802464694E-01
 8.890077558E-01 7.130097826E-02 -1.005789573E-01
 8.802533779E-01 3.356660576E-02 -1.322923940E-01
 1.656746464E-01 1.030243822E-01 -2.705180789E-01
 1.876785967E-01 5.965260036E-02 -3.392854561E-01
 1.537842604E-01 2.770136273E-01 -1.405995953E-01
 8.513700390E-02 8.776734946E-02 -1.459910245E-01
 2.374998610E-02 7.188209981E-02 1.390248028E-01
 -1.167619087E-01 2.601142944E-01 1.223542766E-01
 2.803797331E-01 1.020145825E-01 -4.016184989E-01
 3.333901440E-01 1.327082538E-01 -4.273978048E-01
 1.655770681E-01 4.410741755E-01 -8.337042226E-02
 4.056194429E-01 1.086422538E-01 -5.108359780E-01
 3.687813201E-01 1.054779326E-01 -4.869937449E-01
 6.829408833E-01 9.174432889E-02 -3.812429106E-01
 7.262963066E-01 9.540196081E-02 -3.211970185E-01
 7.299265133E-01 5.358885440E-02 -3.349443663E-01
 3.337713516E-01 9.231241693E-02 -4.670642044E-01
 7.370486119E-01 1.443513041E-01 -2.874969044E-01
 6.943890313E-01 5.750818442E-02 -3.843213014E-01
 7.034665728E-01 7.263522473E-02 -3.619576307E-01
 3.250278192E-01 -6.531257784E-02 -5.620141347E-01
 3.206408672E-01 -8.052760622E-02 -5.286398964E-01
 3.017602442E-01 -7.796555255E-02 -5.044881000E-01
 2.896861756E-01 6.881060773E-02 -4.440750978E-01
 3.622768261E-01 6.948928373E-02 -5.167483714E-01
 3.402351346E-01 7.137842424E-02 -4.939318297E-01
 3.028871180E-01 6.585613589E-02 -4.597864367E-01
 3.059866265E-01 8.185686640E-02 -4.467595864E-01
 3.241977091E-01 7.108924314E-02 -4.784934556E-01
 3.970189799E-01 -6.539319279E-02 -6.101204921E-01
 3.974179420E-01 -8.109138998E-02 -5.733159674E-01
 4.209930448E-01 -7.940222058E-02 -5.524880354E-01
 7.210428746E-01 6.630704684E-02 -3.390499547E-01
 7.394812476E-01 6.531778192E-02 -3.170647503E-01
 7.623445515E-01 7.371910174E-02 -2.824592047E-01
 7.811732681E-01 4.620203997E-02 -2.680408865E-01
 7.749118242E-01 1.163580762E-01 -2.530903078E-01
 9.030169600E-02 -7.884706346E-02 -1.629152608E-01
 1.072320003E-01 -4.902971727E-02 -2.431937683E-01
 2.893024185E-01 -6.676598253E-02 -5.024684173E-01
 2.824823419E-01 -8.404210814E-02 -4.685448603E-01
 2.625875404E-01 -7.739484270E-02 -4.468763096E-01
 4.206392035E-01 -6.543061281E-02 -5.792922653E-01
 4.413412690E-01 -8.749763168E-02 -4.889371107E-01
 4.662222147E-01 -7.615635806E-02 -4.444553492E-01
 4.676023764E-01 -9.907830159E-02 -4.104918476E-01
 4.910568298E-01 -8.046208943E-02 -3.572334990E-01
 5.073760867E-01 -6.225700066E-02 -3.228885728E-01
 1.462293336E+00 6.370427146E-01 -2.277730496E-02
 3.015726444E-01 -6.458731638E-02 -5.257665820E-01
 4.635877086E-01 -1.745922068E-01 -3.271074410E-01
 -6.156072673E-03 -3.301692842E-02 4.348189347E-01
 8.662601774E-01 3.382071255E-02 -1.515174055E-01
 8.679910191E-01 4.929591830E-02 -1.408712188E-01
 8.325556543E-01 4.086395624E-02 -2.032186821E-01
 3.613793962E-01 -6.637632636E-02 -6.023015978E-01
 4.936485848E-01 -6.077418225E-02 -3.686000648E-01
 5.200740413E-01 -8.149681740E-02 -2.693218105E-01
 5.505769765E-01 -7.573922290E-02 -1.942701884E-01
 5.398427413E-01 -1.140825906E-01 -2.047355918E-01
 5.755354478E-01 -1.032518624E-01 -1.296238974E-01
 2.515930339E-01 -6.454197496E-02 -4.445744626E-01
 2.632000496E-01 -6.299870609E-02 -4.668794495E-01
 5.612060006E-01 -5.580938676E-02 -1.718523509E-01
 5.718540732E-01 -7.273567780E-02 -1.394162192E-01
 6.008407491E-01 -4.848849099E-02 -7.929396016E-02
 6.015567630E-01 -8.543550631E-02 -8.054652616E-02
 6.145578284E-01 -1.302645668E-01 -5.594493170E-02
 5.890861916E-01 -6.290941260E-02 -1.033715928E-01
 3.384071161E-01 -6.985814537E-02 -5.696691614E-01
 4.094345176E-01 7.253763979E-02 -5.532186067E-01
 6.141659190E-01 -4.522185848E-02 -5.125936000E-02
 6.164570662E-01 -6.165190532E-02 -5.094183251E-02
 6.530228885E-01 -4.166987914E-02 2.288118271E-02
 6.403648748E-01 -5.574006296E-02 -2.786494738E-03
 6.639880780E-01 -5.695487201E-02 3.475818100E-02
 6.926727269E-01 -5.412712216E-02 7.924190598E-02
 7.042804920E-01 -3.538112908E-02 1.050217747E-01
 6.397515699E-01 -8.575550799E-02 -8.293551746E-03
 6.780808288E-01 -8.289457999E-02 4.739937322E-02
 7.139456883E-01 -8.131546191E-02 9.409157340E-02
 5.206472867E-01 -5.895443833E-02 -2.825656930E-01
 6.546510547E-02 -6.909748753E-02 -1.091998835E-01
 4.346179448E-02 -5.079402980E-02 -2.700104221E-02
 2.402090685E-02 -3.740653736E-02 8.273263694E-02
 6.394997108E-01 -4.035287578E-02 1.359199221E-03
 5.481972977E-01 -5.516304747E-02 -2.062891971E-01
 7.692727419E-01 5.239425594E-02 -2.791925207E-01
 1.061964249E+00 1.522503031E-02 1.448271209E-01
 1.021378573E+00 4.615583244E-02 1.586972191E-01
 1.038769291E+00 -2.464291517E-02 1.988174205E-01
 4.329808803E-01 -6.772592895E-02 -5.453434011E-01
 8.462718724E-01 4.976958423E-02 -1.786013091E-01
 8.266420649E-01 5.944908259E-02 -2.016071193E-01
 8.032799963E-01 6.867201732E-02 -2.285499848E-01
 8.555333333E-01 7.523845515E-02 -1.579682138E-01
 6.912141986E-01 -3.453368121E-02 8.567904394E-02
 9.175337375E-02 -5.619178886E-02 -1.926842521E-01
 4.602535383E-01 -6.144151832E-02 -4.828328994E-01
 8.435105268E-01 3.654199324E-02 -1.900943263E-01
 1.317300211E+00 -3.187652810E-01 5.302664799E-02
 9.763305113E-02 -4.426285456E-02 -2.342679593E-01
 7.189237869E-01 5.227452936E-02 -3.477225676E-01
 3.552352690E-01 -7.987225111E-02 -5.695760069E-01
 3.738315932E-01 -7.757490417E-02 -5.845018903E-01
 7.154962958E-01 -5.450588135E-02 1.169670546E-01
 7.461823913E-01 -6.973033016E-02 1.478375423E-01
 7.374765000E-01 -1.179602197E-01 1.116002991E-01
 7.960855855E-01 -6.674373356E-02 1.990194347E-01
 8.366758668E-01 -8.846371802E-02 2.243326527E-01
 8.276581503E-01 -5.144424163E-02 2.417170722E-01
 8.595661762E-01 -5.822738094E-02 2.621766093E-01
 8.001830243E-01 -3.786560113E-02 2.279506616E-01
 7.722989912E-01 -4.335552688E-02 1.883397387E-01
 8.237926704E-01 -2.784833237E-02 2.599155909E-01
 8.055073370E-01 -2.050323067E-02 2.463375322E-01
 5.873670990E-01 -4.746507818E-02 -1.071090977E-01
 2.556241059E+00 2.098036654E-01 6.762588518E-04
 1.923122047E-01 -9.077516994E-02 -3.219005147E-01
 1.482060722E-01 -6.510212202E-02 -2.867325857E-01
 1.295546646E-01 -7.007407001E-02 -2.494290553E-01
 5.701048867E-01 -1.582120565E-01 -1.333471173E-01
 1.092433061E-01 -6.718959958E-02 -2.160142095E-01
 -6.419438205E-02 3.469236129E-02 3.979357238E-01
 -2.356514175E-02 4.163537486E-02 4.417565484E-01
 -2.229995877E-02 6.635528105E-03 7.234110211E-01
 6.113218520E-03 4.734037057E-02 2.370736051E-01
 1.242297700E-02 1.735658601E-02 1.051469911E-01
 8.486191274E-01 -3.096340491E-02 2.806586023E-01
 4.363239723E-01 9.882208233E-02 -5.415527132E-01
 4.691795540E-01 1.064102673E-01 -5.483619815E-01
 4.868353136E-01 1.426763064E-01 -5.141071942E-01
 5.115589447E-01 1.137135710E-01 -5.494480698E-01
 5.428223731E-01 1.047417691E-01 -5.472403989E-01
 5.366993886E-01 6.870863773E-02 -5.916380617E-01
 5.480007083E-01 6.673793523E-02 -5.853175425E-01
 4.933848192E-01 9.345163687E-02 -5.706616442E-01
 3.977243373E-01 8.742061791E-02 -5.277569413E-01
 4.179522030E-01 8.481852270E-02 -5.453228907E-01
 4.983773480E-01 7.342145775E-02 -5.935804049E-01
 4.939606039E-01 -1.214221771E-01 -3.179373228E-01
 8.845049135E-01 -9.942808242E-02 2.395085033E-01
 8.734382527E-01 -3.324937692E-02 2.971973707E-01
 8.937224062E-01 -5.439059731E-02 2.813758470E-01
 9.312455179E-01 -5.242951637E-02 2.869615629E-01
 9.137837338E-01 -3.480321892E-02 3.112293034E-01
 8.798941414E-01 -1.639377890E-02 3.214365797E-01
 8.025767717E-01 3.861377389E-01 -1.840112972E-01
 9.219871968E-01 5.370227222E-01 -1.132932072E-01
 6.143490686E-01 4.595095985E-01 -2.497423233E-01
 5.527115144E-01 6.885605927E-01 -1.793880499E-01
 1.525695667E+00 -6.812503048E-02 2.550066245E-02
 1.766629998E-01 -7.048255211E-02 -3.181999067E-01
 9.339056824E-01 -2.852629783E-02 3.170370657E-01
 9.597884036E-01 -3.726980412E-02 3.045197284E-01
 9.628730377E-01 -7.012255428E-02 2.624383694E-01
 3.550426516E-01 8.179974439E-02 -4.984585155E-01
 3.740853552E-01 8.263641164E-02 -5.148734673E-01
 6.551718335E-01 8.213047089E-02 -4.284764740E-01
 6.283858418E-01 9.189390951E-02 -4.624135449E-01
 6.154508687E-01 1.156606554E-01 -4.622450376E-01
 5.991080123E-01 8.881801927E-02 -5.054216579E-01
 5.862011769E-01 6.862674089E-02 -5.379551862E-01
 5.732579075E-01 6.593481472E-02 -5.584943212E-01
 5.695946426E-01 8.227917792E-02 -5.441992214E-01
 1.994777152E-01 -7.226938085E-02 -3.551012781E-01
 9.915119793E-01 -5.149427382E-02 2.659496378E-01
 7.494973380E-01 -4.216384393E-02 1.602730054E-01
 2.811149783E-01 8.138215059E-02 -4.247275718E-01
 2.610497873E-01 7.863175486E-02 -4.023837375E-01
 2.377443725E-01 7.733387630E-02 -3.795949092E-01
 2.160938018E-01 8.946758980E-02 -3.438016185E-01
 1.880124538E-01 8.511253467E-02 -3.161632113E-01
 2.054039224E-01 6.395976409E-02 -3.553481137E-01
 1.730473024E+00 -2.260831053E-01 2.131793973E-02
 8.899069914E-01 -9.661487198E-03 3.327772258E-01
 8.958123800E-01 -2.327115282E-02 3.166811757E-01
 9.153160179E-01 -1.724159730E-02 3.335298563E-01
 9.473145003E-01 -1.710018703E-02 3.316778168E-01
 7.186612727E-01 -3.285045848E-02 1.277909150E-01
 9.141592676E-01 5.617306529E-02 -5.150666762E-02
 8.964137690E-01 4.374200420E-02 -9.089825932E-02
 9.254784224E-01 3.705963825E-02 -2.535696437E-02
 9.460686390E-01 4.420680150E-02 2.863643359E-02
 1.727936141E-01 7.144084068E-02 -3.078668024E-01
 1.468128204E-01 8.042354620E-02 -2.637097111E-01
 1.303315896E-01 5.264773177E-02 -2.721387461E-01
 1.201889423E-01 7.278111467E-02 -2.289378875E-01
 1.443408809E-01 6.055478415E-02 -2.813895355E-01
 7.411600884E-01 5.046577584E-02 -3.215682811E-01
 2.157048103E-01 -7.885136327E-02 -3.720696976E-01
 6.023979280E-01 6.749481142E-02 -5.182713490E-01