TITLE     = "Visualization of the solution"
VARIABLES = "x"
"y"
"Pressure_Coefficient"
ZONE T="Zone"
 STRANDID=0, SOLUTIONTIME=0
 Nodes=706, Elements=1197, ZONETYPE=FEQuadrilateral
 DATAPACKING=POINT
 DT=(DOUBLE DOUBLE DOUBLE )
 9.998798370E-01 5.107413745E-04 3.023163112E-01
 9.893618822E-01 2.710268833E-03 3.271461037E-01
 9.770117998E-01 5.168531556E-03 2.152236935E-01
 9.606968164E-01 8.479540236E-03 1.701814049E-01
 9.460490346E-01 1.152549218E-02 9.694323253E-02
 9.307356477E-01 1.463450957E-02 5.334420641E-02
 9.189583063E-01 1.701849326E-02 9.263515923E-03
 9.072651267E-01 1.937060803E-02 -2.714775808E-02
 8.954861164E-01 2.168165520E-02 -5.968948686E-02
 8.838721514E-01 2.392964065E-02 -9.515417470E-02
 8.721535802E-01 2.618552186E-02 -1.288266881E-01
 8.598552942E-01 2.845604718E-02 -1.615382642E-01
 8.475368619E-01 3.070715256E-02 -1.870108604E-01
 8.365297318E-01 3.261184692E-02 -2.085390381E-01
 8.251354694E-01 3.459395096E-02 -2.350248540E-01
 8.126753569E-01 3.668269515E-02 -2.574139606E-01
 8.000375032E-01 3.874755651E-02 -2.827800791E-01
 7.873046994E-01 4.078797251E-02 -3.074570184E-01
 7.749245167E-01 4.271541163E-02 -3.270538883E-01
 7.629699111E-01 4.451745376E-02 -3.511593451E-01
 7.495548725E-01 4.652371630E-02 -3.800066417E-01
 7.355232835E-01 4.852926731E-02 -4.062205033E-01
 7.248852849E-01 5.001755804E-02 -4.315668294E-01
 7.139641047E-01 5.150918290E-02 -4.496999524E-01
 7.022800446E-01 5.302469060E-02 -4.804402563E-01
 6.891651750E-01 5.474473536E-02 -5.085618341E-01
 6.760897040E-01 5.631088838E-02 -5.276864775E-01
 6.661198139E-01 5.748531967E-02 -5.559229493E-01
 6.548435092E-01 5.876720697E-02 -5.855959860E-01
 6.431632042E-01 6.003991514E-02 -6.101219917E-01
 6.312668920E-01 6.124509871E-02 -6.326257515E-01
 6.199182868E-01 6.235051155E-02 -6.602651421E-01
 6.093510985E-01 6.331317872E-02 -6.918161560E-01
 5.969825983E-01 6.441108137E-02 -7.136315703E-01
 5.853673220E-01 6.531097740E-02 -7.265519017E-01
 5.722340345E-01 6.628824770E-02 -7.456327368E-01
 5.600544214E-01 6.710745394E-02 -7.577338589E-01
 5.481246710E-01 6.783598661E-02 -7.599675857E-01
 5.373100042E-01 6.840863079E-02 -7.569000827E-01
 5.257814527E-01 6.898035854E-02 -7.511047905E-01
 5.133253932E-01 6.948928535E-02 -7.482594977E-01
 5.020976663E-01 6.991146505E-02 -7.465072512E-01
 4.887303710E-01 7.031608373E-02 -7.387693977E-01
 4.752208292E-01 7.063465565E-02 -7.234292465E-01
 4.611929655E-01 7.084319741E-02 -7.104097667E-01
 4.480397701E-01 7.098097354E-02 -7.004757925E-01
 4.354158938E-01 7.102961093E-02 -6.858572776E-01
 4.228307605E-01 7.099188119E-02 -6.729171703E-01
 4.107646644E-01 7.090879232E-02 -6.607543108E-01
 3.987564147E-01 7.074767351E-02 -6.471494864E-01
 3.863802850E-01 7.051829994E-02 -6.365608380E-01
 3.746486604E-01 7.024616003E-02 -6.243359374E-01
 3.615144193E-01 6.986273825E-02 -6.108611915E-01
 3.486481905E-01 6.941034645E-02 -5.984851814E-01
 3.356319666E-01 6.888458133E-02 -5.887947405E-01
 3.244213760E-01 6.836806238E-02 -5.765611159E-01
 3.113755286E-01 6.769982725E-02 -5.624462599E-01
 2.979353964E-01 6.690744311E-02 -5.449658096E-01
 2.839604616E-01 6.600312889E-02 -5.302244278E-01
 2.715785801E-01 6.512543559E-02 -5.180859833E-01
 2.598713934E-01 6.423175335E-02 -5.038122473E-01
 2.473110855E-01 6.317070872E-02 -4.907676015E-01
 2.352623194E-01 6.210121140E-02 -4.754006927E-01
 2.227276266E-01 6.087660044E-02 -4.596371391E-01
 2.109542042E-01 5.965812877E-02 -4.472399137E-01
 1.989099830E-01 5.833164975E-02 -4.331378691E-01
 1.866023988E-01 5.686899647E-02 -4.151449003E-01
 1.747551262E-01 5.535988510E-02 -3.974184636E-01
 1.635878831E-01 5.385463312E-02 -3.785303575E-01
 1.514251232E-01 5.210017040E-02 -3.624281656E-01
 1.406760514E-01 5.046486109E-02 -3.433658470E-01
 1.288731992E-01 4.853603616E-02 -3.181396819E-01
 1.174910888E-01 4.654303193E-02 -2.957334504E-01
 1.069015637E-01 4.458134994E-02 -2.738482705E-01
 9.685666859E-02 4.259070009E-02 -2.458639404E-01
 8.569221944E-02 4.022144526E-02 -2.117176541E-01
 7.387861609E-02 3.750221804E-02 -1.763587204E-01
 6.386636943E-02 3.499803692E-02 -1.383368957E-01
 5.378472432E-02 3.226334229E-02 -1.035278716E-01
 4.527662322E-02 2.973783389E-02 -6.105968779E-02
 3.785856441E-02 2.734399959E-02 -1.076207796E-02
 3.127350286E-02 2.501672320E-02 3.190098580E-02
 2.569843642E-02 2.287055925E-02 7.742566241E-02
 2.168454230E-02 2.119726501E-02 1.292725690E-01
 1.782638207E-02 1.945347153E-02 1.437053128E-01
 1.472229324E-02 1.792363822E-02 1.853201563E-01
 1.182109769E-02 1.637654938E-02 2.316397870E-01
 9.648929350E-03 1.511176862E-02 4.288337201E-01
 7.803092711E-03 1.394514926E-02 4.513323013E-01
 6.154065020E-03 1.281648688E-02 4.366814956E-01
 3.945391625E-03 1.110451110E-02 5.637579584E-01
 2.001288580E-03 9.318228811E-03 7.882479458E-01
 3.760138643E-04 7.456416730E-03 1.062520711E+00
 -1.215373399E-03 4.768560641E-03 1.502849826E+00
 -1.799561898E-03 2.795578679E-03 1.189090919E+00
 -1.912349369E-03 1.265236177E-03 1.338813880E+00
 -1.716774656E-03 -3.185258829E-04 1.229146836E+00
 -1.232096925E-03 -1.815328375E-03 1.098433581E+00
 -2.596731065E-04 -3.636542009E-03 8.140590181E-01
 1.159685315E-03 -5.475762300E-03 5.084554167E-01
 3.093646141E-03 -7.384326775E-03 3.644985128E-01
 4.839016125E-03 -8.800377138E-03 2.672180608E-01
 6.856599823E-03 -1.021498814E-02 2.157501546E-01
 8.497538976E-03 -1.123946998E-02 1.456442762E-01
 1.057220530E-02 -1.242214628E-02 9.902946321E-02
 1.290048473E-02 -1.363102347E-02 5.639357723E-02
 1.620270312E-02 -1.516934112E-02 8.410184920E-03
 1.908444613E-02 -1.638990827E-02 -2.586984142E-02
 2.282569371E-02 -1.784365997E-02 -6.906050175E-02
 2.810638398E-02 -1.969220303E-02 -9.114473918E-02
 3.380458802E-02 -2.148472890E-02 -1.287015740E-01
 4.083192348E-02 -2.347627655E-02 -1.438907628E-01
 4.842334613E-02 -2.542536333E-02 -1.730138560E-01
 5.761446059E-02 -2.755902708E-02 -1.942483978E-01
 6.650936604E-02 -2.944566682E-02 -2.118095340E-01
 7.663476467E-02 -3.142819181E-02 -2.311175475E-01
 8.665474504E-02 -3.324184194E-02 -2.533273129E-01
 9.674209356E-02 -3.494483232E-02 -2.690638631E-01
 1.077214479E-01 -3.668144345E-02 -2.836220588E-01
 1.188890338E-01 -3.833633289E-02 -2.957422681E-01
 1.306556165E-01 -3.997220844E-02 -3.074556711E-01
 1.415501386E-01 -4.140020162E-02 -3.203452486E-01
 1.529726237E-01 -4.281259701E-02 -3.325158196E-01
 1.653379202E-01 -4.425217211E-02 -3.463494716E-01
 1.771459430E-01 -4.553863406E-02 -3.623641535E-01
 1.892674565E-01 -4.678774998E-02 -3.779682234E-01
 2.001373470E-01 -4.782603309E-02 -3.936544541E-01
 2.115904540E-01 -4.886673763E-02 -4.082153452E-01
 2.240291238E-01 -4.991753772E-02 -4.269117996E-01
 2.367763221E-01 -5.089434981E-02 -4.452761531E-01
 2.493930757E-01 -5.178998038E-02 -4.648066537E-01
 2.617679536E-01 -5.256316066E-02 -4.844252320E-01
 2.730151415E-01 -5.321130529E-02 -5.039849698E-01
 2.855551541E-01 -5.382084846E-02 -5.209513090E-01
 2.981678545E-01 -5.435784161E-02 -5.397114783E-01
 3.108710051E-01 -5.478250608E-02 -5.589240721E-01
 3.227308691E-01 -5.508667603E-02 -5.758579508E-01
 3.355031312E-01 -5.529293790E-02 -5.874259491E-01
 3.465773463E-01 -5.539439991E-02 -6.002215903E-01
 3.580670953E-01 -5.539814383E-02 -6.126684408E-01
 3.687931001E-01 -5.528857931E-02 -6.151969520E-01
 3.795797825E-01 -5.510503426E-02 -6.090781043E-01
 3.910279870E-01 -5.481588840E-02 -6.039217597E-01
 4.042225778E-01 -5.433124304E-02 -5.900462659E-01
 4.169909954E-01 -5.374936759E-02 -5.726224396E-01
 4.297285676E-01 -5.300933868E-02 -5.475558818E-01
 4.421547949E-01 -5.217816681E-02 -5.154763069E-01
 4.537391067E-01 -5.131183937E-02 -4.853090088E-01
 4.652531445E-01 -5.032069236E-02 -4.476774959E-01
 4.774438441E-01 -4.918520153E-02 -4.020735889E-01
 4.889520705E-01 -4.805015773E-02 -3.638780336E-01
 5.017359257E-01 -4.668314382E-02 -3.267733893E-01
 5.155478716E-01 -4.513625056E-02 -2.866120820E-01
 5.288056135E-01 -4.354482144E-02 -2.465903453E-01
 5.423327684E-01 -4.187121615E-02 -2.069398147E-01
 5.548011661E-01 -4.028427601E-02 -1.741087886E-01
 5.684025288E-01 -3.850711882E-02 -1.420516867E-01
 5.814560056E-01 -3.678517416E-02 -1.122631999E-01
 5.931246281E-01 -3.519222885E-02 -8.414497814E-02
 6.056984067E-01 -3.348556533E-02 -5.490994539E-02
 6.206203103E-01 -3.145240247E-02 -2.960688394E-02
 6.355023980E-01 -2.942710370E-02 -3.716908961E-03
 6.509615183E-01 -2.727494948E-02 2.566451287E-02
 6.638708711E-01 -2.552510984E-02 5.095920241E-02
 6.772371531E-01 -2.369897626E-02 6.969003358E-02
 6.900117397E-01 -2.198579721E-02 8.960195316E-02
 7.022117376E-01 -2.032457106E-02 1.107807353E-01
 7.165188193E-01 -1.843203604E-02 1.324926385E-01
 7.296405435E-01 -1.671923324E-02 1.512805845E-01
 7.420485020E-01 -1.517233625E-02 1.646685382E-01
 7.555153966E-01 -1.345174853E-02 1.808715268E-01
 7.674644589E-01 -1.197969913E-02 2.025200318E-01
 7.805439234E-01 -1.039307378E-02 2.202833672E-01
 7.921834588E-01 -9.026805870E-03 2.383183563E-01
 8.048619628E-01 -7.592912298E-03 2.543719356E-01
 8.160636425E-01 -6.399524864E-03 2.673502466E-01
 8.275978565E-01 -5.192513578E-03 2.816297691E-01
 8.404525518E-01 -3.936306573E-03 2.973823866E-01
 8.527145386E-01 -2.807155717E-03 3.134049956E-01
 8.651200533E-01 -1.787816756E-03 3.247837651E-01
 8.762305975E-01 -9.299792000E-04 3.387776246E-01
 8.878899813E-01 -1.674263185E-04 3.495762217E-01
 9.010372162E-01 5.466014845E-04 3.554222046E-01
 9.113603830E-01 9.952844121E-04 3.624701985E-01
 9.215813875E-01 1.347890007E-03 3.643568651E-01
 9.308676124E-01 1.569249667E-03 3.666966475E-01
 9.393892884E-01 1.697790110E-03 3.650961452E-01
 9.505727291E-01 1.762236934E-03 3.620415708E-01
 9.624899030E-01 1.699087559E-03 3.653108923E-01
 9.759932756E-01 1.461026724E-03 3.432768544E-01
 9.880112410E-01 1.091729850E-03 3.955613759E-01
 -5.000000000E-01 -1.000000000E+00 4.925567072E-02
 3.500000000E+00 -1.000000000E+00 1.296751139E-02
 3.500000000E+00 1.000000000E+00 -2.264613132E-03
 -5.000000000E-01 1.000000000E+00 4.878640422E-02
 -5.000000000E-01 5.000000000E-01 1.012657683E-01
 -5.000000000E-01 2.752797990E-12 1.513294546E-01
 -5.000000000E-01 -5.000000000E-01 1.014845118E-01
 -9.421907698E-13 -1.000000000E+00 2.505618239E-02
 5.000000000E-01 -1.000000000E+00 -1.669234316E-02
 1.000000000E+00 -1.000000000E+00 5.272545463E-03
 1.500000000E+00 -1.000000000E+00 3.587755483E-02
 2.000000000E+00 -1.000000000E+00 3.240492278E-02
 2.500000000E+00 -1.000000000E+00 2.174170347E-02
 3.000000000E+00 -1.000000000E+00 1.524984422E-02
 3.500000000E+00 -5.000000000E-01 1.391912208E-02
 3.500000000E+00 -2.752797990E-12 1.302016806E-02
 3.500000000E+00 5.000000000E-01 4.992634258E-03
 3.000000000E+00 1.000000000E+00 -8.204947287E-03
 2.500000000E+00 1.000000000E+00 -1.747455035E-02
 2.000000000E+00 1.000000000E+00 -3.613643499E-02
 1.500000000E+00 1.000000000E+00 -8.083609210E-02
 1.000000000E+00 1.000000000E+00 -1.415879114E-01
 5.000000000E-01 1.000000000E+00 -9.467011426E-02
 1.733724275E-12 1.000000000E+00 1.168160317E-02
 6.878766949E-01 -3.715759960E-02 8.125689325E-02
 7.866200369E-01 -2.116626507E-02 2.211764314E-01
 9.059389316E-01 -8.629235698E-03 3.453680548E-01
 2.782069431E-01 -6.765312604E-02 -4.899054296E-01
 7.093922475E-01 6.205954734E-02 -4.530475941E-01
 2.903242760E-01 7.652601660E-02 -5.243104909E-01
 3.790772733E-01 7.967875962E-02 -6.166401412E-01
 9.166698610E-01 3.270008323E-02 -5.561200204E-03
 8.226398332E-01 5.061417733E-02 -2.317529192E-01
 5.625831688E-01 -5.167112934E-02 -1.529057982E-01
 1.799681050E-01 -5.600767715E-02 -3.531840383E-01
 6.034867048E-01 7.616488618E-02 -6.860587507E-01
 3.993936341E-01 -6.636046335E-02 -5.724637503E-01
 5.090624863E-01 8.152819755E-02 -7.301917152E-01
 1.833494150E+00 -6.043213232E-01 3.048007225E-02
 1.781953993E+00 5.412791040E-01 -1.827075765E-02
 3.031177116E+00 2.156832678E-01 5.546617790E-03
 7.474716729E-01 -6.695982884E-01 -9.222905450E-03
 4.746754107E-01 -6.320206089E-02 -3.972822984E-01
 7.925433128E-01 6.180126217E-01 -2.252471599E-01
 3.337143987E-01 6.153198287E-01 -1.631507918E-01
 1.228400234E-01 5.651036574E-02 -2.907320468E-01
 1.781909752E-01 6.907293486E-02 -3.832604955E-01
 2.734844306E+00 -5.326953248E-01 1.315597869E-02
 1.222106572E+00 6.766789130E-01 -6.457374564E-02
 9.946937658E-01 3.517022914E-01 -4.855452023E-02
 1.273072209E+00 -5.941948634E-01 6.107210147E-02
 1.501593226E+00 -2.120943190E-01 3.758909330E-02
 1.415438913E-01 -5.847541742E-01 -1.767557301E-02
 8.348810120E-02 -4.192821644E-02 -2.257539206E-01
 2.248456982E+00 -5.894509939E-01 1.931949588E-02
 1.983191665E+00 -2.192882791E-01 1.531815433E-02
 2.413182846E+00 -1.879449798E-01 8.469078938E-03
 2.184608394E+00 1.581956304E-01 -9.158938456E-05
 1.803952511E+00 1.355183291E-01 3.456826459E-03
 -2.709716934E-01 -2.545943651E-01 1.627520673E-01
 -1.715215476E-01 -5.723631985E-01 6.477050859E-02
 -2.716855238E-01 2.301754608E-01 1.728389603E-01
 -1.311858387E-01 6.381025357E-01 4.049999127E-02
 4.994518949E-03 3.674198825E-01 2.729034146E-02
 4.524827326E-02 3.871708927E-02 -2.521263127E-02
 2.191387971E+00 6.008269687E-01 -1.236762007E-02
 2.738063424E+00 6.037894130E-01 -3.979408656E-03
 -2.509521467E-01 -9.530696944E-04 2.151159118E-01
 -1.420238515E-01 -1.287830058E-01 2.363759490E-01
 3.721233857E-02 -3.073027814E-02 -8.331896431E-02
 3.236828469E-02 -3.682390715E-01 1.792895583E-02
 3.042804338E-01 -3.221540402E-01 -2.164296152E-01
 3.390098136E-01 -6.328099440E-02 -5.766523930E-01
 -1.134821555E-01 1.166432826E-01 2.614368350E-01
 -1.205039341E-01 -3.413536994E-03 3.252170721E-01
 -5.637449124E-02 -6.646405850E-02 3.616410728E-01
 -4.992378352E-02 -1.499502747E-01 1.889489439E-01
 4.884574932E-03 -9.389029696E-02 1.745214737E-01
 2.804638368E-02 -1.998521844E-01 4.105433565E-02
 1.379368881E-01 -5.288437461E-02 -3.002995473E-01
 1.587480294E-01 -5.667909964E-02 -3.242167000E-01
 1.675640647E-02 -1.963436121E-02 4.398737612E-02
 -1.137571478E-02 -5.155686232E-02 3.388889879E-01
 -5.435512882E-02 -5.258165870E-03 5.010382008E-01
 7.008127820E-02 -1.150477153E-01 -6.872365225E-02
 1.168533669E-01 -1.589777430E-01 -1.438943059E-01
 2.308163039E-01 -6.436361204E-02 -4.183125818E-01
 1.186230019E-01 -1.003659357E-01 -2.168572371E-01
 1.767844308E-01 -1.246784609E-01 -2.735210855E-01
 1.830176618E-01 -1.766858701E-01 -2.313572053E-01
 2.464872588E-01 -1.439624632E-01 -3.447744840E-01
 1.289161266E-01 -2.467462671E-01 -1.080661664E-01
 3.109358481E+00 -2.612782016E-01 1.183982949E-02
 2.244099110E-01 -1.040088237E-01 -3.603639676E-01
 2.592000999E-01 -1.026578476E-01 -4.147426737E-01
 2.974751867E-01 -1.443085382E-01 -3.974557784E-01
 2.548166185E-01 -6.551408239E-02 -4.559983257E-01
 3.110834914E-01 -1.095181129E-01 -4.699903264E-01
 3.486041711E-01 -1.333992792E-01 -4.556005798E-01
 3.054639450E-01 -6.404395722E-02 -5.349742500E-01
 3.341685740E-01 -1.870038017E-01 -3.786548298E-01
 3.967255959E-01 -1.805040905E-01 -3.824698071E-01
 4.354316584E-01 -6.541503680E-02 -5.108744318E-01
 3.998656184E-01 -1.212208289E-01 -4.673123384E-01
 3.777754323E-01 -2.532192550E-01 -2.998811235E-01
 4.701144951E-01 -2.367097130E-01 -2.502394478E-01
 4.366540080E-01 -3.422287227E-01 -1.959868413E-01
 5.734232604E-01 -3.049965895E-01 -9.763599901E-02
 6.090943795E-01 -2.060788550E-01 -6.144881354E-02
 6.313492364E-01 -4.091611893E-02 -1.366307755E-02
 5.953933468E-01 -4.778855141E-02 -7.893384351E-02
 6.832055205E-01 -2.487656518E-01 1.855162323E-02
 7.190895966E-01 -1.715353727E-01 7.199872603E-02
 8.475614185E-01 -1.399092316E-02 2.950543559E-01
 7.845465201E-01 -2.294891309E-01 1.054799244E-01
 9.670011896E-01 -1.006227679E-02 3.480652071E-01
 7.363247845E-01 -2.823390297E-02 1.530351184E-01
 8.182935199E-01 -1.417787947E-01 1.693494722E-01
 8.806675520E-01 -1.865519525E-01 1.733547539E-01
 9.051800159E-01 -1.100934555E-01 2.346887516E-01
 8.821722563E-01 -2.986489502E-01 1.249775971E-01
 9.954397270E-01 -2.563060089E-01 1.503229685E-01
 5.090681740E-01 -1.593485525E-01 -2.300998221E-01
 5.250997323E-01 -5.743479659E-02 -2.508512210E-01
 7.449762139E-01 -9.726661133E-02 1.263102945E-01
 8.401450314E-01 -7.582640669E-02 2.334866374E-01
 6.256569027E-01 -1.317218560E-01 -3.320446716E-02
 9.768307461E-01 -4.479176361E-01 8.843311607E-02
 5.468143059E-01 -4.797637434E-01 -9.252852208E-02
 1.129949189E+00 -3.172802968E-01 1.081714412E-01
 1.163053179E+00 -1.749514028E-01 1.153519326E-01
 1.030080507E+00 -1.292267574E-01 1.865023595E-01
 3.677144745E-01 -1.032340840E-01 -5.177201184E-01
 3.749421736E-01 -6.799089512E-02 -5.876781641E-01
 2.550471382E-01 -2.206636721E-01 -2.684640904E-01
 3.388100909E-01 -9.270261041E-02 -5.226856865E-01
 1.695782457E-02 -5.956253652E-02 1.579757674E-01
 4.994936183E-02 -6.838711567E-02 -3.658690873E-02
 5.019552955E-02 -3.364893180E-02 -1.423998547E-01
 8.748692250E-02 -7.847537505E-02 -1.852904887E-01
 1.092992502E-01 -4.799394742E-02 -2.679816053E-01
 1.314713819E+00 -3.138938287E-01 6.673332243E-02
 1.297928468E+00 -8.909367353E-02 6.899291333E-02
 1.179616489E+00 2.606267143E-02 9.362957202E-02
 1.314098633E+00 8.386895408E-02 4.457033698E-02
 1.189675056E+00 1.613963555E-01 6.662217097E-02
 1.341940946E+00 2.579476836E-01 2.309967776E-02
 1.083497359E+00 8.183282481E-02 1.259827519E-01
 9.739380439E-01 2.167121492E-02 1.889175003E-01
 1.092101720E+00 3.124842082E-03 1.479546675E-01
 1.488516189E+00 2.911119076E-04 3.026303502E-02
 1.042694424E+00 4.294755609E-02 1.807910979E-01
 1.017434913E+00 1.056993961E-01 1.052120803E-01
 -2.548301348E-02 -2.085641478E-02 6.037412559E-01
 4.780131639E-03 -1.107982134E-02 3.404555847E-01
 1.038129891E+00 -6.928627926E-03 2.149555113E-01
 1.063383626E+00 -5.199329714E-02 1.942973145E-01
 1.015234013E+00 -4.653612238E-02 2.544314727E-01
 9.655233278E-01 -9.013089146E-02 2.534938007E-01
 3.290955899E-01 -6.287830762E-02 -5.684828376E-01
 9.746437824E-01 -4.910743798E-02 2.911566845E-01
 9.356539290E-01 -6.588113391E-03 3.548676464E-01
 9.269352776E-01 -6.075243436E-02 2.858898507E-01
 9.471052786E-01 -3.435409076E-02 3.165627671E-01
 9.925720029E-01 -2.804569586E-02 3.041540501E-01
 9.539628821E-01 -1.803055839E-02 3.348180644E-01
 4.506306143E-01 -1.515135006E-01 -3.551710546E-01
 4.423988190E-01 -1.073566221E-01 -4.304999289E-01
 4.893965469E-01 -1.070164495E-01 -3.150521792E-01
 4.926405130E-01 -5.916046000E-02 -3.423942066E-01
 5.356747649E-01 -1.126239666E-01 -1.969955098E-01
 3.497485970E-01 -6.815772901E-02 -5.743323822E-01
 6.098057981E-02 -4.975316722E-02 -1.384427989E-01
 9.984915499E-01 5.948295496E-02 1.581865572E-01
 9.488772313E-01 9.806691368E-02 2.468815436E-02
 8.680603912E-01 3.966805707E-02 -1.356710286E-01
 9.743755682E-01 1.619191067E-01 1.500248443E-02
 8.957282106E-01 1.702636935E-01 -8.644444423E-02
 7.558877023E-01 5.521431857E-02 -3.612874527E-01
 7.838602068E-01 5.110795540E-02 -3.082892936E-01
 8.865686288E-01 1.080856060E-01 -9.562321214E-02
 8.253835121E-01 1.476091698E-01 -2.086964335E-01
 8.344213879E-01 2.165100837E-01 -1.902456959E-01
 7.515033249E-01 2.042041523E-01 -3.146599707E-01
 6.500867689E-01 6.934659832E-02 -5.873625980E-01
 6.702546561E-01 6.631817156E-02 -5.376309626E-01
 7.540576625E-01 1.303274765E-01 -3.351877134E-01
 6.813663828E-01 1.674838482E-01 -4.563095556E-01
 6.802304913E-01 2.343040081E-01 -4.240481017E-01
 6.017422350E-01 1.991796198E-01 -5.371161805E-01
 4.418360066E-01 8.779708392E-02 -6.724739993E-01
 4.701795550E-01 8.816852932E-02 -6.944674324E-01
 4.183780522E-01 8.243490145E-02 -6.549672253E-01
 5.558459250E-01 7.716278581E-02 -7.426676454E-01
 5.309722766E-01 8.124640585E-02 -7.347312385E-01
 5.999770713E-01 2.971823252E-01 -4.394096039E-01
 5.123376461E-01 2.429680104E-01 -5.079195218E-01
 5.294503293E-01 1.625818835E-01 -6.202797182E-01
 4.464275864E-01 1.836294281E-01 -5.559885397E-01
 4.154359876E-01 2.854532415E-01 -4.338489876E-01
 3.503720329E-01 2.048260794E-01 -4.555273767E-01
 3.309290428E-01 7.848882224E-02 -5.715508224E-01
 3.181656365E-01 2.961494574E-01 -3.431427816E-01
 2.465528056E-01 2.175908730E-01 -3.178028666E-01
 2.281690021E-01 7.465317344E-02 -4.494430728E-01
 2.522808404E-01 7.418605865E-02 -4.789384342E-01
 2.036687947E-01 7.322985705E-02 -4.190909435E-01
 5.902136119E-01 1.372221975E-01 -6.304565563E-01
 3.870388164E-01 1.483721773E-01 -5.453040745E-01
 3.370646876E-01 1.453170064E-01 -5.003367462E-01
 1.953722666E-01 3.414521248E-01 -1.634532796E-01
 7.022135684E-01 1.115596791E-01 -4.390214840E-01
 6.568364468E-01 1.228374880E-01 -5.213080386E-01
 4.783840864E-01 1.358543485E-01 -6.348799320E-01
 4.982467889E-01 3.422839153E-01 -4.220467221E-01
 8.015040052E-01 1.006798792E-01 -2.575707785E-01
 5.506394321E-01 1.199381791E-01 -6.767134770E-01
 5.133705707E-01 1.163130725E-01 -6.788722153E-01
 7.405167675E-01 9.598183835E-02 -3.756265883E-01
 7.334106141E-01 6.120789427E-02 -4.074682525E-01
 7.628973119E-01 3.019857343E-01 -3.012585863E-01
 3.644176603E-01 1.179166208E-01 -5.581736147E-01
 3.540857278E-01 8.107012573E-02 -5.886850830E-01
 5.777794340E-01 1.002575573E-01 -6.898145633E-01
 5.812644119E-01 7.916886100E-02 -7.158588483E-01
 7.683567901E-01 8.694756398E-02 -3.227401054E-01
 3.971775838E-01 1.091569500E-01 -5.998979572E-01
 4.320467016E-01 1.328643651E-01 -6.069013538E-01
 6.724904944E-01 9.873104858E-02 -5.086007112E-01
 9.134123086E-01 7.517778114E-02 -3.086886342E-02
 8.921103973E-01 3.543610452E-02 -7.187094662E-02
 7.453562724E-01 5.695629496E-02 -3.841180672E-01
 5.680236349E-01 8.095483913E-02 -7.304622719E-01
 5.946729663E-01 8.863739295E-02 -6.850897322E-01
 6.148012205E-01 8.853957112E-02 -6.459972713E-01
 6.259283189E-01 7.435455660E-02 -6.331729876E-01
 6.432645946E-01 8.967845819E-02 -5.804746404E-01
 3.667949494E-01 8.240231406E-02 -6.017785827E-01
 5.196727020E-01 -7.909090677E-02 -2.507636294E-01
 5.490593864E-01 -8.478151179E-02 -1.766862916E-01
 5.791018037E-01 -9.994902839E-02 -1.119749800E-01
 6.186402683E-01 -8.434059802E-02 -3.981934815E-02
 6.633130231E-01 -8.524126004E-02 2.734512978E-02
 6.587886215E-01 -3.749079797E-02 3.801128537E-02
 6.466302507E-01 -4.217536581E-02 1.447067975E-02
 6.394756060E-01 -5.921287888E-02 -2.034861492E-03
 5.876128091E-02 -3.789319865E-02 -1.580620684E-01
 9.221631996E-01 -3.351383164E-02 3.197249492E-01
 8.985070972E-01 -4.002544240E-02 3.052523992E-01
 8.723551903E-01 -9.880999777E-03 3.244138061E-01
 -4.587463480E-03 -2.953113710E-02 4.497997782E-01
 1.170190088E-02 -3.864888881E-02 1.785533880E-01
 2.559901473E-02 -2.421350261E-02 -3.846242163E-02
 8.597336018E-01 -1.223205659E-02 3.113505119E-01
 8.561947026E-01 -2.829745236E-02 2.896356046E-01
 8.238808560E-01 -1.801892092E-02 2.680243786E-01
 8.362874385E-01 -3.002938864E-02 2.696057003E-01
 8.140424527E-01 -3.237514964E-02 2.449272488E-01
 8.350313723E-01 -1.486047113E-02 2.827919415E-01
 9.553782258E-01 -1.544618132E-01 2.075382744E-01
 5.557167720E-01 9.272527400E-02 -7.159172939E-01
 4.651756058E-01 -8.845500952E-02 -3.993265642E-01
 6.146363547E-01 -5.287212735E-02 -4.329117655E-02
 6.826408133E-01 6.607350034E-02 -5.102806715E-01
 6.314394006E-01 4.425047012E-01 -3.280633127E-01
 4.156029915E-01 -9.435695167E-02 -4.975853536E-01
 3.902935578E-01 -8.384872252E-02 -5.439977361E-01
 4.153449356E-01 -7.416422362E-02 -5.340895744E-01
 6.382323632E-01 7.068437860E-02 -6.089673665E-01
 4.383271757E-01 -8.344883574E-02 -4.730101115E-01
 3.900372528E-01 8.453795951E-02 -6.223901385E-01
 3.178395326E-01 -6.541960008E-02 -5.505152885E-01
 8.117013974E-01 -1.654705069E-02 2.560131171E-01
 8.007845684E-01 -2.000423694E-02 2.400786123E-01
 7.932489808E-01 -3.632717651E-02 2.196262100E-01
 7.627647599E-01 -2.306391538E-02 1.901526832E-01
 8.046107754E-01 -5.531645185E-02 2.209685047E-01
 7.765059240E-01 -5.424303417E-02 1.868927957E-01
 7.766582412E-01 -3.414946736E-02 2.024570875E-01
 7.505560325E-01 -2.633419610E-02 1.702502882E-01
 7.445887802E-01 -3.781361106E-02 1.570130193E-01
 7.123033501E-01 -3.227623700E-02 1.204976623E-01
 7.276638505E-01 -4.291730506E-02 1.340171350E-01
 7.052582816E-01 -5.117047644E-02 1.022401822E-01
 6.827724905E-01 -5.852372267E-02 6.827795886E-02
 7.017994659E-01 -8.490203203E-02 8.696772629E-02
 5.444574863E-01 8.124702812E-02 -7.378784844E-01
 5.387752689E-01 1.001030857E-01 -7.098142231E-01
 5.191294146E-01 9.240622320E-02 -7.172038479E-01
 9.905241125E-01 -6.714851491E-01 4.603364551E-02
 7.244988822E-01 -2.844808375E-02 1.391457786E-01
 3.308948519E-01 1.083760737E-01 -5.360084614E-01
 2.949328284E-01 1.246746090E-01 -4.770927332E-01
 6.146971259E-01 7.294454083E-02 -6.651127076E-01
 5.440933993E-01 -6.344345387E-02 -1.973502270E-01
 7.013410525E-02 -3.931784631E-02 -1.901860412E-01
 3.870474270E-01 -6.562420073E-02 -5.856329124E-01
 7.900552739E-01 -8.992161289E-02 1.816815094E-01
 1.575628445E-01 -9.078911965E-02 -2.789772005E-01
 8.832184329E-01 -1.048439652E-02 3.330352338E-01
 8.765150656E-01 -2.412344335E-02 3.118984226E-01
 8.946878702E-01 -1.883033984E-02 3.289191946E-01
 9.221059082E-01 -1.797046461E-02 3.380921426E-01
 7.940911690E-01 4.935862480E-02 -2.902307074E-01
 7.911495875E-01 6.742048665E-02 -2.861305105E-01
 8.193022476E-01 7.214509884E-02 -2.346458939E-01
 8.443207137E-01 4.444154075E-02 -1.870530811E-01
 2.552429103E+00 2.123112907E-01 2.197387233E-04
 7.250345148E-01 -6.812603553E-02 1.223853606E-01
 1.697997117E+00 -1.202703365E-01 2.139252545E-02
 7.699362291E-01 6.017563834E-02 -3.306725467E-01
 1.169012930E+00 3.512834349E-01 -2.869683363E-03
 8.945544864E-01 -7.512959379E-03 3.423186055E-01
 4.065910084E-01 8.748361686E-02 -6.370990519E-01
 8.830537929E-01 7.178190256E-02 -9.759241772E-02
 7.466394907E-01 -5.622172453E-02 1.526776687E-01
 1.176562727E-01 2.256350074E-01 -1.088034628E-01
 1.719767232E-01 1.601305139E-01 -2.668607888E-01
 7.415817525E-02 1.497655465E-01 -4.552315038E-02
 7.482185547E-02 4.984639681E-02 -1.451351889E-01
 1.252614180E-01 1.280859610E-01 -1.962494913E-01
 2.451401305E-01 1.434889305E-01 -3.933692745E-01
 2.028373186E-01 1.174587510E-01 -3.607569221E-01
 1.631567675E-01 1.083862316E-01 -3.030273662E-01
 1.422663847E-01 6.676712976E-02 -3.171578378E-01
 2.393979091E-01 1.120149161E-01 -4.176895166E-01
 2.671815246E-01 1.045205689E-01 -4.592842654E-01
 2.650533940E-01 8.156868031E-02 -4.898437651E-01
 1.411161815E-01 5.092630293E-01 -6.687453195E-02
 4.553901841E-01 1.055758041E-01 -6.594972817E-01
 4.841479944E-01 1.050252982E-01 -6.823943301E-01
 3.065486251E-01 9.820259972E-02 -5.212979537E-01
 2.948124970E-01 1.671794997E-01 -4.350857257E-01
 1.909358044E-01 -9.070097560E-02 -3.255416793E-01
 2.017664337E-01 -5.870019386E-02 -3.812233782E-01
 5.925706060E-01 -6.997249227E-02 -8.521385035E-02
 1.549584670E+00 2.297220553E-01 1.029457908E-02
 1.463129889E+00 4.945875735E-01 -1.732380326E-02
 6.970933130E-01 8.850362256E-02 -4.679368437E-01
 9.271305674E-01 -8.408984086E-03 3.523350356E-01
 7.481035267E-01 7.059757574E-02 -3.699613687E-01
 7.199293336E-01 7.778321909E-02 -4.258365691E-01
 2.425611974E-01 8.814240489E-02 -4.543187962E-01
 2.173078023E-01 8.977834398E-02 -4.162885623E-01
 1.880521068E-01 8.631496769E-02 -3.753036268E-01
 1.609578162E-01 7.826416473E-02 -3.369419974E-01
 1.302737444E-01 9.020528275E-02 -2.592188268E-01
 8.787890714E-02 1.000704907E-01 -1.173774903E-01
 3.756257213E-02 1.121771077E-01 8.426218796E-02
 1.803550857E-02 2.639263583E-02 1.896780597E-01
 9.911114861E-02 5.635145562E-02 -2.263121986E-01
 4.542364376E-03 1.826106488E-01 1.228724532E-01
 -1.138246855E-01 2.683422133E-01 1.394939925E-01
 5.341308663E-02 7.712391915E-02 -8.150882867E-03
 1.889455590E-02 7.115378723E-02 1.891964245E-01
 -1.823435342E-02 1.002246619E-01 3.113813112E-01
 -5.766424968E-02 4.434728207E-02 4.418374997E-01
 5.491213194E-01 6.537190557E-01 -2.413632469E-01
 -2.515979721E-02 1.535087169E-02 7.269261529E-01
 -7.746616755E-03 2.148148326E-03 1.155267406E+00
 4.379407688E-03 1.453416597E-02 3.848873557E-01
 -2.230338691E-04 1.006548378E-02 1.036461992E+00
 -1.098510467E-02 5.024438533E-02 4.504462657E-01
 -8.513072432E-04 2.443222802E-02 5.657167317E-01
 1.186715061E-02 1.994838193E-02 3.405839516E-01
 2.864400822E-01 -8.894329633E-02 -4.684451483E-01
 3.641391644E-01 -8.003410477E-02 -5.596593359E-01
 3.757895635E-01 9.522505218E-02 -5.953656025E-01
 8.678718546E-01 -4.805741598E-02 2.800776827E-01
 4.849906247E-01 8.724458320E-02 -7.114772451E-01
 -6.952108319E-03 -1.142387107E-02 5.555693954E-01
 -9.666442944E-04 -7.084566126E-03 6.682835185E-01
 -2.770704773E-03 -1.486670356E-03 1.110721435E+00
 9.362702815E-01 -1.810091823E-02 3.381363773E-01
 5.923548006E-01 7.473863978E-02 -7.057877264E-01
 3.160923888E-01 8.387008156E-02 -5.513609935E-01
 4.258087548E-01 9.817763550E-02 -6.412240966E-01
 3.752088364E-01 4.403791112E-01 -2.746793083E-01
 7.750294198E-01 -2.081866359E-02 2.069000981E-01
 1.017961258E+00 2.139224418E-02 2.469192370E-01
 9.948702137E-01 1.245640399E-02 3.259833991E-01
 3.314635516E-01 -7.465776132E-02 -5.491257997E-01
 6.609833073E-01 -5.464606699E-02 3.613523240E-02
 5.196542047E-01 7.873009410E-02 -7.354685321E-01
 6.791712564E-01 8.029785475E-02 -5.056450649E-01
 6.995323608E-01 -3.258293626E-02 1.017113010E-01
 8.467215980E-01 4.215393609E-01 -1.920697077E-01
 1.062507459E-01 7.391049863E-02 -2.191933855E-01
 8.384161866E-02 6.794335175E-02 -1.448151923E-01
 5.756054647E-02 5.795217778E-02 -5.617498425E-02
 3.823583495E-02 5.758057822E-02 6.428774957E-02
 3.208039245E-02 3.246976285E-02 5.986041400E-02
 1.796647128E-02 4.481264072E-02 2.315408047E-01
 5.070780743E-01 -6.129780400E-02 -2.981274717E-01
 3.126451614E-02 -4.632435571E-02 1.281729710E-03
 2.435985176E-02 -3.354668532E-02 3.061717438E-02
 1.734998939E-02 -2.772344191E-02 7.586930058E-02
 8.108891467E-03 -2.266242669E-02 2.426890748E-01
 7.973523071E-03 -1.276808152E-02 2.134092075E-01
 6.305643235E-03 -1.491261088E-02 2.711336126E-01
 1.397442341E-03 -1.486839428E-02 4.912395437E-01
 1.125997963E-02 -1.588571302E-02 1.346018981E-01