TITLE     = "Visualization of the solution"
VARIABLES = "x"
"y"
"Pressure_Coefficient"
ZONE T="Zone"
 STRANDID=0, SOLUTIONTIME=0
 Nodes=692, Elements=1169, ZONETYPE=FEQuadrilateral
 DATAPACKING=POINT
 DT=(DOUBLE DOUBLE DOUBLE )
 9.999261498E-01 5.090994528E-04 3.387702389E-01
 9.860915542E-01 3.236988792E-03 3.117563111E-01
 9.728934765E-01 5.962521303E-03 1.633259873E-01
 9.560720921E-01 9.315503761E-03 1.251306870E-01
 9.410776496E-01 1.227042824E-02 8.055289331E-02
 9.268710613E-01 1.504894160E-02 3.796722882E-02
 9.155942202E-01 1.736714132E-02 -4.038261974E-03
 9.038288593E-01 1.965945773E-02 -3.556447085E-02
 8.921384811E-01 2.196708135E-02 -7.436495781E-02
 8.802767992E-01 2.422718704E-02 -1.107630615E-01
 8.684606552E-01 2.645960078E-02 -1.311415317E-01
 8.559946418E-01 2.864295803E-02 -1.494481237E-01
 8.443812728E-01 3.075433522E-02 -1.799717988E-01
 8.333450556E-01 3.267383948E-02 -2.033044948E-01
 8.219829798E-01 3.462402895E-02 -2.237057219E-01
 8.097199798E-01 3.665586188E-02 -2.433199869E-01
 7.974710464E-01 3.865949437E-02 -2.727992151E-01
 7.854771018E-01 4.060576856E-02 -2.962035955E-01
 7.731173038E-01 4.250939935E-02 -3.142403010E-01
 7.616040707E-01 4.426654056E-02 -3.385606044E-01
 7.486415505E-01 4.619738087E-02 -3.653412205E-01
 7.355231047E-01 4.809965193E-02 -3.916485170E-01
 7.247458696E-01 4.961145669E-02 -4.162761998E-01
 7.134583592E-01 5.116842687E-02 -4.389522313E-01
 7.016242146E-01 5.272749439E-02 -4.668642051E-01
 6.887043118E-01 5.441268533E-02 -4.948191203E-01
 6.757009029E-01 5.599299818E-02 -5.249954278E-01
 6.649882793E-01 5.728300288E-02 -5.589793511E-01
 6.531591415E-01 5.863756314E-02 -5.856654056E-01
 6.415361762E-01 5.989255384E-02 -6.146623225E-01
 6.297918558E-01 6.111669540E-02 -6.467989215E-01
 6.181681752E-01 6.226627156E-02 -6.728534681E-01
 6.073509455E-01 6.325688958E-02 -6.960581183E-01
 5.954731703E-01 6.430011988E-02 -7.196885389E-01
 5.838801861E-01 6.522371620E-02 -7.467389847E-01
 5.707629919E-01 6.621112674E-02 -7.731973627E-01
 5.585526824E-01 6.706273556E-02 -7.842914360E-01
 5.462351441E-01 6.779467314E-02 -7.920966169E-01
 5.351940393E-01 6.842514127E-02 -7.983227619E-01
 5.234202743E-01 6.901355833E-02 -7.917694235E-01
 5.111720562E-01 6.953006238E-02 -7.818035783E-01
 5.002259612E-01 6.993755698E-02 -7.689638515E-01
 4.872991741E-01 7.033437490E-02 -7.525937811E-01
 4.742496014E-01 7.062923908E-02 -7.410916314E-01
 4.611688554E-01 7.088272274E-02 -7.299752857E-01
 4.479891360E-01 7.101711631E-02 -7.205277038E-01
 4.355667233E-01 7.111156732E-02 -7.093179256E-01
 4.227499068E-01 7.109557092E-02 -6.909493078E-01
 4.104052484E-01 7.101483643E-02 -6.757785469E-01
 3.975919187E-01 7.085771114E-02 -6.671465116E-01
 3.853349984E-01 7.066502422E-02 -6.602876840E-01
 3.730821609E-01 7.038715482E-02 -6.474639115E-01
 3.599644899E-01 7.001212984E-02 -6.351398683E-01
 3.471469879E-01 6.957413256E-02 -6.220682318E-01
 3.342555463E-01 6.904149801E-02 -6.121837365E-01
 3.232251406E-01 6.855348498E-02 -5.989296746E-01
 3.105596900E-01 6.788781285E-02 -5.851259943E-01
 2.975146472E-01 6.715771556E-02 -5.726624282E-01
 2.837267518E-01 6.626847386E-02 -5.588080474E-01
 2.714430094E-01 6.540339440E-02 -5.467795470E-01
 2.594889402E-01 6.448562443E-02 -5.355901297E-01
 2.469077110E-01 6.345614046E-02 -5.211817059E-01
 2.344649136E-01 6.232742593E-02 -5.071633866E-01
 2.221141309E-01 6.114837155E-02 -4.936727356E-01
 2.101185173E-01 5.989708751E-02 -4.763499919E-01
 1.979099810E-01 5.853597075E-02 -4.617049149E-01
 1.855795979E-01 5.707617104E-02 -4.440766173E-01
 1.735807210E-01 5.554061756E-02 -4.234074112E-01
 1.618420482E-01 5.394725502E-02 -4.050515121E-01
 1.499375701E-01 5.222988501E-02 -3.864745006E-01
 1.389035583E-01 5.052985251E-02 -3.649741363E-01
 1.271093786E-01 4.857929423E-02 -3.428998494E-01
 1.159814596E-01 4.662566632E-02 -3.214496372E-01
 1.051501334E-01 4.459311441E-02 -2.972535116E-01
 9.497601539E-02 4.254789278E-02 -2.691998497E-01
 8.407063037E-02 4.020693153E-02 -2.374656658E-01
 7.294642925E-02 3.762846068E-02 -2.013428506E-01
 6.322965771E-02 3.517881036E-02 -1.641559154E-01
 5.381369963E-02 3.261568397E-02 -1.325573182E-01
 4.535178840E-02 3.011190519E-02 -9.877893387E-02
 3.794350848E-02 2.771385573E-02 -5.736923064E-02
 3.140375018E-02 2.541074529E-02 -1.628037309E-02
 2.579773590E-02 2.325160801E-02 2.615704780E-02
 2.167453803E-02 2.151923068E-02 6.613293115E-02
 1.776276901E-02 1.973561011E-02 1.187914696E-01
 1.457923930E-02 1.814942993E-02 1.891521576E-01
 1.167357713E-02 1.657164842E-02 2.096396863E-01
 9.566611610E-03 1.531697158E-02 2.544282634E-01
 7.697134744E-03 1.410211716E-02 3.093319687E-01
 5.927286111E-03 1.284897886E-02 4.127778552E-01
 3.639145521E-03 1.097599603E-02 6.080927882E-01
 1.754146884E-03 9.113281034E-03 5.278917925E-01
 2.944496518E-04 7.275562733E-03 8.432396790E-01
 -1.104810741E-03 4.686724860E-03 1.052648032E+00
 -1.676622895E-03 2.689249115E-03 8.617601373E-01
 -1.820330624E-03 1.021407661E-03 1.298920917E+00
 -1.652780920E-03 -8.090695483E-04 9.948900246E-01
 -1.139261411E-03 -2.699809149E-03 1.204032804E+00
 -9.759282693E-05 -4.953172058E-03 8.041813355E-01
 1.455442864E-03 -7.297866046E-03 7.960225657E-01
 3.523033578E-03 -9.698045440E-03 5.954995510E-01
 5.408417899E-03 -1.151870098E-02 4.987307591E-01
 7.597147021E-03 -1.336108521E-02 4.441498396E-01
 9.398880415E-03 -1.472762693E-02 3.598315870E-01
 1.158281136E-02 -1.624139212E-02 2.768436308E-01
 1.400125772E-02 -1.778139174E-02 2.321149846E-01
 1.731624641E-02 -1.969209313E-02 1.738256664E-01
 2.044521458E-02 -2.134876326E-02 1.074640318E-01
 2.434433252E-02 -2.323163860E-02 5.818952300E-02
 2.953662351E-02 -2.550757490E-02 1.296455594E-03
 3.503220528E-02 -2.769522555E-02 -5.007106597E-02
 4.166710749E-02 -3.007793613E-02 -1.044196386E-01
 4.917121306E-02 -3.251962736E-02 -1.458602306E-01
 5.797955021E-02 -3.511860594E-02 -1.827865671E-01
 6.672871858E-02 -3.746137023E-02 -2.256452280E-01
 7.674529403E-02 -3.991445526E-02 -2.527811909E-01
 8.656971157E-02 -4.212508723E-02 -2.837986387E-01
 9.689010680E-02 -4.426950961E-02 -3.122003736E-01
 1.079362780E-01 -4.639412835E-02 -3.399994111E-01
 1.192007065E-01 -4.840731621E-02 -3.631630095E-01
 1.309091300E-01 -5.035220087E-02 -3.817064144E-01
 1.417223215E-01 -5.201981217E-02 -4.015321680E-01
 1.531125009E-01 -5.366687104E-02 -4.201292703E-01
 1.652090847E-01 -5.529397726E-02 -4.405267108E-01
 1.769352108E-01 -5.675852299E-02 -4.591931847E-01
 1.888676137E-01 -5.815371498E-02 -4.783778733E-01
 1.998337507E-01 -5.933881551E-02 -4.992087866E-01
 2.113832682E-01 -6.049462408E-02 -5.159306179E-01
 2.237237394E-01 -6.162467226E-02 -5.348454311E-01
 2.361343950E-01 -6.265469640E-02 -5.549411118E-01
 2.482672334E-01 -6.357054412E-02 -5.759214674E-01
 2.604403198E-01 -6.437636167E-02 -5.972202045E-01
 2.717016637E-01 -6.502950937E-02 -6.170955518E-01
 2.842063308E-01 -6.565933675E-02 -6.380963989E-01
 2.964719832E-01 -6.614243984E-02 -6.586181105E-01
 3.090235889E-01 -6.653037667E-02 -6.748967846E-01
 3.208743632E-01 -6.680735201E-02 -6.962920040E-01
 3.335474432E-01 -6.694674492E-02 -7.134740579E-01
 3.444389105E-01 -6.698538363E-02 -7.273064320E-01
 3.559898734E-01 -6.689883024E-02 -7.354624607E-01
 3.671765327E-01 -6.672561169E-02 -7.399616777E-01
 3.783413768E-01 -6.644362211E-02 -7.427611528E-01
 3.901443779E-01 -6.601204723E-02 -7.311037755E-01
 4.032613635E-01 -6.542383134E-02 -7.083361232E-01
 4.156120718E-01 -6.470260024E-02 -6.787748689E-01
 4.283038974E-01 -6.387004256E-02 -6.416235815E-01
 4.408039153E-01 -6.291868538E-02 -6.058628655E-01
 4.529404342E-01 -6.186749786E-02 -5.621759467E-01
 4.647208154E-01 -6.074073166E-02 -5.117143314E-01
 4.772068262E-01 -5.946923047E-02 -4.679718532E-01
 4.892027974E-01 -5.812494829E-02 -4.261275816E-01
 5.016799569E-01 -5.664809048E-02 -3.789361828E-01
 5.152625442E-01 -5.495921150E-02 -3.330925158E-01
 5.283616185E-01 -5.328666791E-02 -2.957637608E-01
 5.410280228E-01 -5.156351253E-02 -2.573716224E-01
 5.538654923E-01 -4.978781193E-02 -2.178742211E-01
 5.672216415E-01 -4.788409919E-02 -1.825997369E-01
 5.803914070E-01 -4.597672820E-02 -1.506796295E-01
 5.929200649E-01 -4.408032447E-02 -1.162482159E-01
 6.059366465E-01 -4.214273021E-02 -8.378571245E-02
 6.200040579E-01 -4.002454132E-02 -6.066516403E-02
 6.337819695E-01 -3.789925575E-02 -3.131695748E-02
 6.479871273E-01 -3.573427722E-02 -2.848973035E-03
 6.608967185E-01 -3.375059366E-02 2.112957068E-02
 6.744459271E-01 -3.168772534E-02 4.260787414E-02
 6.867156625E-01 -2.979740873E-02 6.450579165E-02
 6.992143989E-01 -2.790492587E-02 8.601384116E-02
 7.134526968E-01 -2.574247122E-02 1.077658259E-01
 7.264141440E-01 -2.378752083E-02 1.303304943E-01
 7.382832170E-01 -2.202422544E-02 1.488549813E-01
 7.517100573E-01 -2.000378072E-02 1.707789984E-01
 7.641561031E-01 -1.820931025E-02 1.937437575E-01
 7.779028416E-01 -1.627034321E-02 2.072681116E-01
 7.896489501E-01 -1.459143963E-02 2.289812892E-01
 8.023036718E-01 -1.287141349E-02 2.491249589E-01
 8.131572008E-01 -1.140663307E-02 2.640356502E-01
 8.243469596E-01 -9.933910333E-03 2.843747630E-01
 8.372386098E-01 -8.358276449E-03 3.009673494E-01
 8.496210575E-01 -6.890966557E-03 3.182962091E-01
 8.618857265E-01 -5.517540500E-03 3.367461933E-01
 8.730624318E-01 -4.372797441E-03 3.498365681E-01
 8.840621710E-01 -3.319596406E-03 3.634357944E-01
 8.971769810E-01 -2.229685197E-03 3.740540979E-01
 9.073777199E-01 -1.467308030E-03 3.860807250E-01
 9.189036489E-01 -7.705002790E-04 3.902465953E-01
 9.291206002E-01 -2.354265162E-04 3.965559796E-01
 9.393230677E-01 1.640405389E-04 3.982136543E-01
 9.516057372E-01 5.214671837E-04 4.020995562E-01
 9.646014571E-01 7.340812008E-04 4.017723863E-01
 9.776943326E-01 7.855921285E-04 4.164902495E-01
 9.891516566E-01 6.952570984E-04 4.423587017E-01
 -5.000000000E-01 -1.000000000E+00 5.723357765E-02
 3.500000000E+00 -1.000000000E+00 1.395806805E-02
 3.500000000E+00 1.000000000E+00 -1.473823421E-03
 -5.000000000E-01 1.000000000E+00 5.666300931E-02
 -5.000000000E-01 5.000000000E-01 1.127726506E-01
 -5.000000000E-01 2.752797990E-12 1.691264120E-01
 -5.000000000E-01 -5.000000000E-01 1.140977452E-01
 -9.421907698E-13 -1.000000000E+00 2.853204960E-02
 5.000000000E-01 -1.000000000E+00 -2.830657981E-02
 1.000000000E+00 -1.000000000E+00 -1.097810017E-02
 1.500000000E+00 -1.000000000E+00 3.286143065E-02
 2.000000000E+00 -1.000000000E+00 3.169678888E-02
 2.500000000E+00 -1.000000000E+00 2.129169287E-02
 3.000000000E+00 -1.000000000E+00 1.552344454E-02
 3.500000000E+00 -5.000000000E-01 1.440602487E-02
 3.500000000E+00 -2.752797990E-12 1.313363438E-02
 3.500000000E+00 5.000000000E-01 5.788975471E-03
 3.000000000E+00 1.000000000E+00 -7.711774036E-03
 2.500000000E+00 1.000000000E+00 -1.665987869E-02
 2.000000000E+00 1.000000000E+00 -3.432085567E-02
 1.500000000E+00 1.000000000E+00 -8.128348502E-02
 1.000000000E+00 1.000000000E+00 -1.493674852E-01
 5.000000000E-01 1.000000000E+00 -9.594557356E-02
 1.733724275E-12 1.000000000E+00 2.122615624E-02
 6.846050410E-01 -4.261817537E-02 5.897414972E-02
 7.859582779E-01 -2.585264626E-02 2.157281517E-01
 9.034041281E-01 -1.080812148E-02 3.689495266E-01
 5.890849326E-01 -6.198244204E-02 -1.260834686E-01
 6.977770942E-01 6.696164017E-02 -4.662158621E-01
 2.782447393E-01 7.833337634E-02 -5.363523841E-01
 3.663095450E-01 8.241712496E-02 -6.267372406E-01
 9.120011965E-01 3.006646350E-02 -1.684692884E-02
 2.906235801E-01 -7.404985618E-02 -6.330310710E-01
 7.923693318E-01 5.182526478E-02 -2.775847071E-01
 6.032629622E-01 7.241217165E-02 -6.932484734E-01
 4.474089373E-01 -7.227199599E-02 -5.668886419E-01
 5.102437251E-01 7.989852378E-02 -7.633455719E-01
 1.830437995E+00 -5.948510679E-01 3.120306377E-02
 1.788685182E+00 6.436485147E-01 -2.379861442E-02
 3.031176545E+00 2.156836319E-01 5.970184535E-03
 7.829373789E-01 -6.352142241E-01 -8.635655892E-03
 3.041056702E-01 -6.466026223E-01 -7.841985047E-02
 1.234666563E-01 -5.894127316E-02 -3.517632181E-01
 1.824165222E-01 -6.546578015E-02 -4.553804089E-01
 3.734461551E-01 -7.903205070E-02 -7.118567925E-01
 7.582941215E-01 6.648563132E-01 -2.136613711E-01
 2.674064039E-01 6.439423049E-01 -1.141069991E-01
 1.191551976E-01 5.979070571E-02 -3.054378507E-01
 1.787618516E-01 7.008927707E-02 -4.126861365E-01
 2.734844979E+00 -5.326944765E-01 1.321271929E-02
 1.214772340E+00 7.045994941E-01 -7.804396321E-02
 9.722593214E-01 3.241369925E-01 -5.205361159E-02
 8.535676674E-01 4.082867677E-02 -1.565541281E-01
 1.239898051E+00 -6.519208030E-01 5.121439242E-02
 1.518935166E+00 -2.613380515E-01 4.020319275E-02
 2.247948206E+00 -5.878719307E-01 1.845254786E-02
 1.991006977E+00 -2.128853217E-01 1.391879946E-02
 2.414400788E+00 -1.866127516E-01 7.825970185E-03
 2.184609138E+00 1.582014617E-01 1.643383690E-03
 1.795156043E+00 1.119545605E-01 6.142830626E-03
 -2.710446736E-01 -2.367876392E-01 1.858603908E-01
 -6.863366652E-02 -6.054895433E-01 4.109140528E-02
 1.063048782E-01 -3.648609961E-01 -5.692378938E-02
 -2.740068397E-01 2.399824566E-01 1.882982858E-01
 -5.222453374E-02 6.519051954E-01 3.101086723E-02
 2.442140280E-02 3.302880305E-01 2.927902931E-02
 4.640537118E-02 3.850770029E-02 -7.060202593E-02
 2.240565958E+00 5.540841663E-01 -9.805084137E-03
 2.746259294E+00 5.959991243E-01 -2.938827944E-03
 -2.431588750E-01 -2.398259954E-03 2.452509007E-01
 -1.106794439E-01 -1.269011440E-01 2.841647366E-01
 6.920491194E-02 -4.649843814E-02 -1.956481126E-01
 4.366040262E-02 -3.988971221E-02 -7.908686311E-02
 -6.725735867E-02 -3.206095505E-01 1.071870869E-01
 -4.805731511E-04 -1.825423937E-01 1.378062019E-01
 1.632627982E-01 -2.284459057E-01 -2.086493149E-01
 2.411636300E-01 -7.572566471E-02 -5.421891793E-01
 2.162510727E-01 -6.957429554E-02 -5.100167425E-01
 2.654474511E-01 -7.634843359E-02 -5.842358664E-01
 -2.977088191E-02 -9.709699443E-02 3.392840967E-01
 2.106991552E-02 -2.591718801E-02 1.413502586E-01
 -1.094947284E-01 -2.339770767E-02 4.133878522E-01
 3.607429710E-02 -1.109991988E-01 7.277026258E-02
 3.109358814E+00 -2.612773391E-01 1.211240315E-02
 -5.063807126E-02 -3.883765269E-02 3.838759366E-01
 1.385558168E-02 -7.048945836E-02 2.345386075E-01
 -1.186696978E-02 -4.824606835E-02 4.669548365E-01
 1.045566103E-02 -1.927201567E-02 3.220133576E-01
 2.562194748E+00 2.034461731E-01 1.062650299E-03
 4.240975543E-02 -7.460960430E-02 1.003755859E-02
 9.460734265E-02 -1.100696454E-01 -1.807754645E-01
 1.002147071E-01 -5.870460735E-02 -2.880777405E-01
 6.288546255E-02 -2.579424742E-01 -1.208659368E-02
 2.656279885E-01 -3.150190219E-01 -2.625422547E-01
 2.758260598E-01 -1.956016275E-01 -4.030749345E-01
 3.677543487E-01 -2.565708776E-01 -3.897926544E-01
 5.233416981E-01 -6.841178140E-02 -3.026410444E-01
 4.978040382E-01 -7.239182541E-02 -3.840265458E-01
 3.642454991E-01 -1.653460373E-01 -5.204782550E-01
 4.116945630E-01 -7.718794160E-02 -6.631157202E-01
 3.255371656E-01 -8.263750216E-02 -6.694047918E-01
 4.530317921E-01 -1.927312475E-01 -3.981026013E-01
 4.734045835E-01 -2.947790113E-01 -2.749744002E-01
 5.478132225E-01 -2.218234775E-01 -1.962550011E-01
 2.015192407E-01 -1.576047706E-01 -3.594095083E-01
 5.264730154E-01 -1.510275787E-01 -2.652416676E-01
 5.892065629E-01 -1.565285831E-01 -1.154492935E-01
 6.426461894E-01 -4.837549000E-02 -1.201715434E-02
 6.339946788E-01 -2.016083140E-01 -4.179225287E-02
 7.071007473E-01 -1.543982775E-01 4.947314783E-02
 7.364358971E-01 -3.513452163E-02 1.413522465E-01
 7.579678779E-01 -2.873598492E-02 1.779757942E-01
 7.290451023E-01 -2.335777854E-01 5.551675573E-02
 8.446940516E-01 -1.829320143E-02 2.981828994E-01
 7.874184454E-01 -1.529526038E-01 1.416950715E-01
 8.244436969E-01 -2.257652393E-01 1.328467645E-01
 9.721485877E-01 -1.086393572E-02 3.949279373E-01
 8.821657083E-01 -1.501532007E-01 2.129574906E-01
 9.247953377E-01 -2.337493209E-01 1.652089728E-01
 1.017417374E+00 -1.556117210E-01 2.072981592E-01
 1.054380314E+00 -2.585344537E-01 1.479187061E-01
 1.117877551E+00 -1.628779394E-01 1.518770530E-01
 1.186713512E+00 -2.734765901E-01 1.097859329E-01
 1.062199423E+00 -8.998545963E-02 2.102063325E-01
 1.146728621E+00 -7.006790728E-02 1.355552923E-01
 8.342436521E-01 -9.429629530E-02 2.249442803E-01
 9.106481754E-01 -8.706786802E-02 2.813574002E-01
 9.352048909E-01 -1.178817560E-02 3.832414644E-01
 9.593283607E-01 -4.142875212E-01 9.851862904E-02
 7.819232188E-01 -9.267487303E-02 1.740034552E-01
 9.882039636E-01 -8.215897902E-02 2.764248555E-01
 8.699615327E-01 -5.892547419E-02 2.874664062E-01
 8.792164886E-01 -1.540070748E-02 3.432984317E-01
 1.023066148E+00 -4.493724291E-02 2.841649482E-01
 1.080250742E+00 -2.198139724E-02 1.793913227E-01
 1.156098305E+00 1.719224962E-02 1.223368944E-01
 1.260568012E+00 -1.578702980E-02 7.687379165E-02
 1.227730459E+00 1.085016595E-01 7.510166193E-02
 1.072654063E+00 6.561722932E-02 1.530739495E-01
 9.695625676E-01 2.203784682E-02 1.507493224E-01
 5.616902845E-01 -1.091585986E-01 -1.811171906E-01
 5.487483218E-01 -6.549669221E-02 -2.301199935E-01
 6.203157779E-01 -3.094766566E-01 -8.426512018E-02
 1.423208102E+00 8.105940703E-02 3.223441145E-02
 1.352185578E+00 2.855951782E-01 2.087996737E-02
 6.113553027E-01 -1.006772299E-01 -7.700911902E-02
 6.164763032E-01 -5.471381372E-02 -6.758928606E-02
 3.056702497E-01 -1.393575021E-01 -5.308048202E-01
 8.084355039E-01 -5.828531575E-02 2.235818387E-01
 8.190209571E-01 -2.187752326E-02 2.653108314E-01
 4.185276385E-01 -1.387456219E-01 -5.439337695E-01
 1.024882078E+00 2.391062374E-03 2.548803430E-01
 8.390367936E-01 -5.134891165E-02 2.600346112E-01
 3.471129004E-01 -1.193550772E-01 -6.106031179E-01
 3.516633056E-01 -7.939249391E-02 -7.039565464E-01
 3.837911165E-01 -1.155447486E-01 -6.216665019E-01
 4.998689459E-01 -4.522601520E-01 -1.553379423E-01
 1.239359897E+00 -1.605182566E-01 9.559369789E-02
 1.106814621E+00 2.065134058E-01 4.935357402E-02
 9.781854605E-01 1.907483010E-01 -4.850672297E-03
 8.526005579E-01 2.703060971E-01 -1.513549753E-01
 8.556347690E-01 1.664255958E-01 -1.425845432E-01
 7.430852990E-01 5.886563136E-02 -3.706164214E-01
 7.208601507E-01 6.254268569E-02 -4.161380435E-01
 9.927286880E-01 9.608675550E-02 9.563201834E-02
 9.862086205E-01 -4.354049407E-02 3.351103442E-01
 9.944489225E-01 -1.209915587E-02 4.411195653E-01
 1.005737147E+00 -1.030525162E-02 3.828579360E-01
 7.875023396E-01 -3.564080387E-01 6.538785538E-02
 1.010151380E+00 -6.366476302E-01 4.766593539E-02
 7.769604368E-01 -5.787253481E-02 1.860808087E-01
 7.430970399E-01 -7.471249454E-02 1.318307161E-01
 7.128873274E-01 -4.308354867E-02 9.993387836E-02
 7.438692013E-01 -1.138729980E-01 1.137660888E-01
 6.998065551E-01 -9.462674117E-02 6.282260696E-02
 5.169042119E-01 -1.094594031E-01 -3.007402886E-01
 4.718460864E-01 -1.294929411E-01 -4.210441696E-01
 1.402836467E+00 -1.221938454E-01 5.294626513E-02
 1.390929990E-01 -1.502774404E-01 -2.517679447E-01
 1.725326096E-01 -1.185076011E-01 -3.545077774E-01
 1.563454073E-01 -6.647340786E-02 -4.041705389E-01
 2.107512803E-01 -1.121111283E-01 -4.337125892E-01
 2.534820392E-01 -1.382989950E-01 -4.652903459E-01
 9.576167383E-01 -1.146861215E-02 3.850175917E-01
 9.655266010E-01 -2.449518596E-02 3.682014596E-01
 9.470324966E-01 -2.478068233E-02 3.647913303E-01
 9.250069498E-01 -2.557752511E-02 3.603286495E-01
 9.338403132E-01 -5.221241907E-02 3.264007756E-01
 9.836409921E-01 -2.271483672E-02 3.732140345E-01
 7.478679421E-01 -3.030627437E-02 1.604897061E-01
 7.549426611E-01 -4.563285915E-02 1.612963145E-01
 9.070236456E-01 -4.738383712E-02 3.248436476E-01
 3.966414002E-01 -7.841419142E-02 -6.922948734E-01
 4.074855387E-01 -9.870134100E-02 -6.273238064E-01
 4.270083859E-01 -8.841956038E-02 -6.056134651E-01
 3.850261934E-01 -9.066525166E-02 -6.825660724E-01
 3.639900672E-01 -9.346751266E-02 -6.774190556E-01
 8.304970408E-01 -1.847980018E-02 2.831149110E-01
 9.181437278E-01 1.194693723E-01 -3.788838919E-02
 9.468045801E-01 6.914867039E-02 3.700449971E-02
 9.360666284E-01 2.910533307E-02 5.362749082E-02
 8.971297068E-01 7.408176251E-02 -6.225279070E-02
 8.798485409E-01 3.702219946E-02 -1.031646137E-01
 9.461565861E-01 -9.470392471E-03 3.879340024E-01
 8.579454423E-01 -1.749613249E-02 3.187789624E-01
 8.514507011E-01 -3.462568220E-02 2.967203408E-01
 8.692641770E-01 -2.845299626E-02 3.195481101E-01
 8.873681183E-01 -3.171099720E-02 3.302461397E-01
 9.046345977E-01 -2.306811879E-02 3.536539107E-01
 3.151259480E-01 -1.030342761E-01 -6.102908837E-01
 2.812535445E-01 -1.109406742E-01 -5.469740993E-01
 2.498734533E-01 -1.057184656E-01 -5.060868156E-01
 6.303247358E-01 -4.947208841E-02 -4.016733422E-02
 6.360735964E-01 -6.699161014E-02 -3.660375520E-02
 6.609025564E-01 -6.178460160E-02 1.534215670E-02
 6.566527985E-01 -8.704922996E-02 1.366135701E-03
 6.856218206E-01 -6.662497037E-02 5.110818420E-02
 7.115284756E-01 -6.402750834E-02 9.056181690E-02
 3.772988248E-01 -3.834114981E-01 -2.357991000E-01
 2.429065197E-01 -4.684244572E-01 -9.629165232E-02
 3.397647110E-01 -7.772276407E-02 -6.974247370E-01
 3.418803457E-01 -9.308176509E-02 -6.627590410E-01
 3.096628424E-01 -8.609166407E-02 -6.398397775E-01
 7.240117217E-01 -3.604900818E-02 1.214680636E-01
 7.306722729E-01 -5.110735858E-02 1.259016966E-01
 6.496861076E-01 -1.324813959E-01 -1.762735652E-02
 8.682748532E-01 -1.424803483E-02 3.337592868E-01
 9.244679149E-01 -9.206039891E-03 3.813895359E-01
 1.172388224E+00 4.279039026E-01 -1.663357759E-02
 5.832107541E-01 -8.228552602E-02 -1.394666023E-01
 9.834168983E-01 -8.839415816E-03 3.821906876E-01
 8.926437474E-01 -1.442287109E-02 3.561091621E-01
 4.879152821E-01 -9.080009080E-02 -3.960411802E-01
 4.724583108E-01 -7.525382701E-02 -4.655803813E-01
 5.121351188E-01 -8.380368626E-02 -3.298135678E-01
 5.371235129E-01 -8.307524527E-02 -2.562724889E-01
 1.645434908E+00 -1.000643024E-01 2.731662104E-02
 1.017286162E+00 4.987622267E-02 1.994156398E-01
 9.938907336E-01 1.722840504E-02 2.434142935E-01
 9.791958543E-01 4.967986056E-02 1.330842876E-01
 4.618603639E-01 -9.700743613E-02 -4.742101085E-01
 7.727173655E-01 -3.384057645E-02 1.953818979E-01
 9.469017721E-01 -1.303326319E-01 2.427027921E-01
 5.469277688E-01 -6.444277267E-01 -9.181275119E-02
 8.636582341E-01 1.055712396E-01 -1.339860950E-01
 8.052149004E-01 1.184555161E-01 -2.293423337E-01
 7.890250001E-01 1.931834781E-01 -2.401875578E-01
 7.418239492E-01 2.776418951E-01 -3.119328486E-01
 6.786935275E-01 2.026449002E-01 -4.395608524E-01
 5.533878729E-01 8.137792106E-02 -7.694899575E-01
 5.278627465E-01 8.121940644E-02 -7.746344398E-01
 6.495723898E-01 7.224747376E-02 -5.854039099E-01
 6.707783577E-01 6.675251471E-02 -5.359530264E-01
 6.427660532E-01 2.568626075E-01 -4.702679505E-01
 4.408548574E-01 8.290396899E-02 -6.970579375E-01
 5.856212499E-01 1.931977955E-01 -5.662606447E-01
 5.321809231E-01 2.850150838E-01 -5.070402196E-01
 4.776267436E-01 2.030359609E-01 -5.691584747E-01
 4.353547767E-01 2.647944988E-01 -4.740996324E-01
 3.730575380E-01 2.029894519E-01 -4.886825287E-01
 3.145025780E-01 8.136604291E-02 -5.740202833E-01
 3.457161871E-01 8.224582763E-02 -6.065869536E-01
 4.027446437E-01 8.199551871E-02 -6.578719729E-01
 3.217578967E-01 2.961688845E-01 -3.698755855E-01
 2.599766274E-01 2.108734039E-01 -3.672156792E-01
 2.267724810E-01 7.570718156E-02 -4.795416206E-01
 2.020564115E-01 7.224901401E-02 -4.495922288E-01
 6.333729232E-01 1.462579383E-01 -5.559105116E-01
 5.256851446E-01 1.483254964E-01 -6.609462287E-01
 4.252572428E-01 1.565188179E-01 -5.901455087E-01
 3.173923199E-01 1.587226375E-01 -4.896610007E-01
 8.302179594E-01 7.899169193E-02 -1.960646249E-01
 8.304549337E-01 4.457008556E-02 -2.039679712E-01
 4.683262116E-01 4.055497112E-01 -3.460699967E-01
 1.927822177E-01 3.083567219E-01 -2.057472758E-01
 1.354574076E-01 2.048846116E-01 -1.542114313E-01
 -2.439948542E-02 1.834852581E-01 1.642478785E-01
 6.885257406E-02 1.441159463E-01 -5.550222177E-02
 7.375887850E-02 5.092149121E-02 -1.747140732E-01
 1.967456345E-01 1.510436231E-01 -3.543639005E-01
 1.416796960E-01 4.737824002E-01 -7.462071758E-02
 7.524248510E-01 1.390147254E-01 -3.208309892E-01
 7.629773530E-01 9.307773502E-02 -3.157096577E-01
 7.698132409E-01 5.228750539E-02 -3.191550144E-01
 7.241651651E-01 1.004015596E-01 -3.895089165E-01
 8.614270220E-01 7.291030994E-02 -1.340186190E-01
 -1.519613617E-01 1.250183402E-01 2.386230831E-01
 -5.624031036E-02 8.117577875E-02 4.356677124E-01
 1.168787509E-02 9.783260388E-02 1.868454947E-01
 2.339279689E-02 2.829791968E-02 8.975681321E-02
 7.967027028E-01 8.456713697E-02 -2.568583217E-01
 7.566775444E-01 5.566952434E-02 -3.410644924E-01
 7.546203070E-01 6.958914768E-02 -3.419119693E-01
 7.358152353E-01 7.489364112E-02 -3.798799857E-01
 8.170282545E-01 4.788887662E-02 -2.281155179E-01
 7.795142833E-01 5.088643036E-02 -3.015253644E-01
 7.770101075E-01 6.672835609E-02 -2.990740239E-01
 8.073517994E-01 6.369489432E-02 -2.437196746E-01
 -1.683467825E-02 5.880017555E-02 3.210882952E-01
 6.392257209E-02 9.259227848E-02 -5.176069033E-02
 9.865952782E-02 9.601589750E-02 -1.872753804E-01
 6.698176066E-01 4.045597244E-01 -3.511177456E-01
 6.950528495E-01 1.360348126E-01 -4.385638822E-01
 6.595407355E-01 1.104444211E-01 -5.339888953E-01
 6.209304643E-01 1.100082750E-01 -6.195219066E-01
 6.243608373E-01 7.354064592E-02 -6.475824121E-01
 5.892017145E-01 1.277184724E-01 -6.602843387E-01
 5.793432792E-01 8.094158190E-02 -7.392122224E-01
 5.500541687E-01 1.232355373E-01 -7.078489606E-01
 6.128545422E-01 7.178807715E-02 -6.748723051E-01
 5.932168106E-01 9.689692844E-02 -6.900356400E-01
 5.670542560E-01 9.784048143E-02 -7.308184906E-01
 6.096039537E-01 8.678140866E-02 -6.621041627E-01
 6.383705743E-01 8.750075125E-02 -5.973474035E-01
 8.492629783E-02 7.757055015E-02 -1.699631372E-01
 9.726175133E-02 5.260837389E-02 -2.528228019E-01
 7.129880891E-01 7.545397369E-02 -4.264976254E-01
 6.911818445E-01 8.842639308E-02 -4.653956459E-01
 1.175140240E-02 6.171318218E-02 2.494068363E-01
 3.549693921E-02 3.476192109E-02 -1.715628395E-03
 1.874390328E-03 3.555254573E-02 4.105200122E-01
 -1.608261374E-04 1.628027349E-02 8.266186195E-01
 -2.292311525E-02 1.135226719E-02 7.942085824E-01
 9.547919123E-03 1.850280641E-02 2.226950709E-01
 1.707843741E-02 2.253619636E-02 1.656768238E-01
 1.471915572E-02 3.006619265E-02 1.973134170E-01
 3.973653524E-02 6.578730901E-02 4.903043677E-02
 4.227912450E-02 4.784982638E-02 -2.191089630E-02
 5.765153271E-02 4.668220767E-02 -1.087085399E-01
 6.749343525E-02 6.587402054E-02 -1.171925815E-01
 1.044856073E-01 7.041678224E-02 -2.436677928E-01
 1.263213055E-01 7.648179990E-02 -2.930416950E-01
 1.534199720E-01 6.185259096E-02 -3.758365308E-01
 1.415116702E-01 1.120359412E-01 -2.783670942E-01
 1.847496177E-01 1.094208610E-01 -3.759336525E-01
 2.304165870E-01 1.187993266E-01 -4.269147058E-01
 2.521957439E-01 7.722888941E-02 -5.087640150E-01
 1.410118748E-01 6.287863295E-02 -3.500375066E-01
 1.494405019E-01 7.806876566E-02 -3.410812177E-01
 1.305002629E-01 5.965205706E-02 -3.322159156E-01
 1.681391936E-01 8.829250457E-02 -3.670618345E-01
 1.890899645E-01 8.316091249E-02 -4.118450657E-01
 2.124372662E-01 8.942779950E-02 -4.387157059E-01
 1.641973814E-01 6.796516847E-02 -3.875524557E-01
 2.717672857E-01 -9.069139865E-02 -5.686300421E-01
 8.435921002E-01 4.266712008E-01 -1.807413190E-01
 9.139658265E-01 -1.181626893E-02 3.736639045E-01
 8.283329076E-01 -3.397467253E-02 2.655729404E-01
 8.089005736E-01 -3.452717665E-02 2.429109439E-01
 6.656579974E-01 8.238758908E-02 -5.353367556E-01
 1.741022066E+00 -3.148713064E-01 2.859264317E-02
 5.658202165E-01 7.868676934E-02 -7.620460361E-01
 6.973794276E-01 -5.163934759E-02 7.657283180E-02
 7.917080860E-01 -4.077579160E-02 2.168493002E-01
 9.549023943E-01 4.370126294E-02 8.901519218E-02
 6.691877940E-01 -4.732627613E-02 3.405608885E-02
 2.417862061E-02 4.343269953E-02 1.005153715E-01
 9.481755169E-01 -7.897995468E-02 2.943193347E-01
 7.235953726E-02 -7.825990820E-02 -1.238914838E-01
 8.014937228E-02 -6.011181229E-02 -2.110864246E-01
 9.841720216E-02 -7.895863827E-02 -2.506233553E-01
 1.235777549E-01 -8.828606179E-02 -3.035546845E-01
 1.388169993E-01 -7.189269414E-02 -3.568475191E-01
 1.591447372E-01 -8.695152288E-02 -3.771346146E-01
 5.522886933E-02 -5.576044423E-02 -1.072184076E-01
 3.368426649E-02 -5.251199817E-02 4.223566641E-02
 3.126266375E-02 -3.389731508E-02 2.755296530E-02
 1.446958629E-02 -4.188383051E-02 2.554667933E-01
 1.881371019E-01 -9.494599841E-02 -4.215798003E-01
 2.300183848E-01 -9.163965986E-02 -5.001746984E-01
 1.963617361E-01 -7.890445413E-02 -4.601803969E-01
 5.108297475E-02 2.156934616E-01 7.182499659E-03
 5.916762703E-01 7.638238908E-02 -7.106581597E-01
 5.608515039E-01 -7.757754503E-02 -1.941368771E-01
 6.047775443E-01 -7.272610183E-02 -9.070146284E-02
 5.728544035E-01 -6.487124517E-02 -1.642728200E-01
 1.003691436E+00 -3.202201245E-02 3.129769966E-01
 7.986557008E-01 -2.579354379E-02 2.339011282E-01
 8.047880824E-01 4.774487840E-02 -2.522349956E-01
 5.588144503E-01 1.553495084E-01 -6.539928756E-01
 5.184953801E-01 1.170585996E-01 -7.125489916E-01
 4.821886372E-01 8.312600002E-02 -7.300499162E-01
 4.808923493E-01 1.344018284E-01 -6.598674527E-01
 4.481633396E-01 1.200421736E-01 -6.516083890E-01
 4.097980033E-01 1.208132090E-01 -6.178938794E-01
 3.725228515E-01 1.392109259E-01 -5.648438781E-01
 3.355417327E-01 1.238826976E-01 -5.468753867E-01
 3.033129087E-01 1.172411160E-01 -5.159903826E-01
 2.683982311E-01 1.457955296E-01 -4.457662799E-01
 3.825905739E-01 1.103125614E-01 -6.080238214E-01
 4.288648997E-01 9.803797932E-02 -6.633937195E-01
 3.850862601E-01 9.088397688E-02 -6.326495528E-01
 2.689444922E-01 1.106173601E-01 -4.880758799E-01
 4.670253286E-01 8.361564031E-02 -7.175165552E-01
 4.713591151E-01 1.024785852E-01 -6.956384584E-01
 4.951377164E-01 9.634949205E-02 -7.213902439E-01
 4.526855598E-01 9.550800737E-02 -6.917983278E-01
 5.183322200E-01 9.462482099E-02 -7.458669988E-01
 5.395139911E-01 9.624499810E-02 -7.495085606E-01
 4.950190428E-01 7.992918955E-02 -7.472442311E-01
 5.404387588E-01 7.901242800E-02 -7.807940360E-01
 7.320059319E-01 5.880261336E-02 -3.949374807E-01