TITLE     = "Visualization of the solution"
VARIABLES = "x"
"y"
"Pressure_Coefficient"
ZONE T="Zone"
 STRANDID=0, SOLUTIONTIME=0
 Nodes=681, Elements=1147, ZONETYPE=FEQuadrilateral
 DATAPACKING=POINT
 DT=(DOUBLE DOUBLE DOUBLE )
 9.998360872E-01 5.307344254E-04 3.213536951E-01
 9.867264032E-01 3.069305792E-03 2.475704893E-01
 9.752666950E-01 5.337502342E-03 1.644620219E-01
 9.617957473E-01 8.038536645E-03 9.050869292E-02
 9.486507177E-01 1.055430714E-02 5.242440852E-02
 9.368292689E-01 1.281910762E-02 4.238741712E-03
 9.262424707E-01 1.485645957E-02 -4.022263626E-02
 9.146448374E-01 1.701296307E-02 -7.432534722E-02
 9.032908678E-01 1.903019287E-02 -1.098080423E-01
 8.916766047E-01 2.108924650E-02 -1.395406468E-01
 8.795982003E-01 2.307431214E-02 -1.707342432E-01
 8.680753112E-01 2.497686259E-02 -1.962508904E-01
 8.553375006E-01 2.690207772E-02 -2.070586935E-01
 8.434540629E-01 2.864613943E-02 -2.295965998E-01
 8.319014907E-01 3.034967557E-02 -2.404868658E-01
 8.185628653E-01 3.215472400E-02 -2.467397339E-01
 8.052341938E-01 3.397094458E-02 -2.682223919E-01
 7.930186391E-01 3.562384844E-02 -2.869894269E-01
 7.800270319E-01 3.728803620E-02 -3.055893201E-01
 7.678617239E-01 3.885588795E-02 -3.200757978E-01
 7.541685700E-01 4.050286859E-02 -3.327999100E-01
 7.398788333E-01 4.221558943E-02 -3.545853295E-01
 7.287086844E-01 4.352732375E-02 -3.687085696E-01
 7.170156837E-01 4.483428970E-02 -3.853180936E-01
 7.051489353E-01 4.616042599E-02 -4.077575521E-01
 6.913098097E-01 4.763992876E-02 -4.280515735E-01
 6.778210402E-01 4.902185127E-02 -4.458933395E-01
 6.668843627E-01 5.009664223E-02 -4.641042111E-01
 6.551291943E-01 5.122485384E-02 -4.831105321E-01
 6.438655853E-01 5.226000026E-02 -4.992488753E-01
 6.314649582E-01 5.333930999E-02 -5.216133265E-01
 6.201196909E-01 5.431230739E-02 -5.394507225E-01
 6.091549397E-01 5.516006052E-02 -5.545552885E-01
 5.965701342E-01 5.610844120E-02 -5.731934059E-01
 5.844580531E-01 5.694542825E-02 -5.857375400E-01
 5.705380440E-01 5.782457441E-02 -5.991694928E-01
 5.573909283E-01 5.858595297E-02 -6.119526005E-01
 5.442416072E-01 5.927225202E-02 -6.229425691E-01
 5.329673886E-01 5.980755761E-02 -6.257427869E-01
 5.204963684E-01 6.029868126E-02 -6.311608428E-01
 5.075405836E-01 6.077925861E-02 -6.394923757E-01
 4.964491129E-01 6.111572310E-02 -6.363108321E-01
 4.830049276E-01 6.143809855E-02 -6.321780288E-01
 4.698944986E-01 6.168162450E-02 -6.278628635E-01
 4.557108581E-01 6.186109036E-02 -6.219366849E-01
 4.416776001E-01 6.194323301E-02 -6.169240615E-01
 4.286158085E-01 6.195578724E-02 -6.111782091E-01
 4.154188037E-01 6.188851595E-02 -6.003425513E-01
 4.030788541E-01 6.174303591E-02 -5.884771874E-01
 3.904727995E-01 6.153514609E-02 -5.812693316E-01
 3.785662949E-01 6.128276885E-02 -5.739915520E-01
 3.673661649E-01 6.098080054E-02 -5.640344945E-01
 3.541498184E-01 6.056777388E-02 -5.509672011E-01
 3.419727087E-01 6.010317057E-02 -5.363623784E-01
 3.296968043E-01 5.958895385E-02 -5.286172082E-01
 3.194570541E-01 5.911151320E-02 -5.195342686E-01
 3.073857427E-01 5.849038064E-02 -5.078628066E-01
 2.945915759E-01 5.774686113E-02 -4.939299923E-01
 2.808690071E-01 5.688368902E-02 -4.797392620E-01
 2.684081495E-01 5.601563677E-02 -4.672095179E-01
 2.566320300E-01 5.514661223E-02 -4.551979706E-01
 2.441828698E-01 5.415219814E-02 -4.400202425E-01
 2.315398753E-01 5.306501687E-02 -4.274678754E-01
 2.193650752E-01 5.195870250E-02 -4.155756684E-01
 2.075815499E-01 5.081162229E-02 -4.029533357E-01
 1.961431950E-01 4.963290691E-02 -3.887794832E-01
 1.839141697E-01 4.829007387E-02 -3.752573219E-01
 1.721291691E-01 4.692490771E-02 -3.622335866E-01
 1.605717391E-01 4.550748318E-02 -3.485237586E-01
 1.487222165E-01 4.397281632E-02 -3.375970097E-01
 1.379196495E-01 4.249197990E-02 -3.240519056E-01
 1.266531497E-01 4.085941985E-02 -3.099717435E-01
 1.153376326E-01 3.912238032E-02 -2.963508894E-01
 1.045755148E-01 3.737378865E-02 -2.854236118E-01
 9.482152015E-02 3.569743782E-02 -2.686796750E-01
 8.381409943E-02 3.368493170E-02 -2.450867781E-01
 7.196564227E-02 3.135485202E-02 -2.195482430E-01
 6.201739609E-02 2.923925966E-02 -1.889310851E-01
 5.231703818E-02 2.700155042E-02 -1.541488382E-01
 4.323687404E-02 2.472313866E-02 -1.205969091E-01
 3.545095772E-02 2.257404849E-02 -8.479628022E-02
 2.875760198E-02 2.053740434E-02 -6.809505107E-02
 2.311712131E-02 1.864497364E-02 -5.123855352E-02
 1.906033605E-02 1.714136265E-02 -2.715512225E-02
 1.522841211E-02 1.557753608E-02 1.116420555E-02
 1.249868795E-02 1.435185503E-02 4.915286035E-02
 1.009325869E-02 1.317492686E-02 9.260721487E-02
 8.288853802E-03 1.220590621E-02 1.199164303E-01
 6.665154826E-03 1.125044189E-02 1.469577120E-01
 5.178356543E-03 1.029074751E-02 2.818696843E-01
 3.231969662E-03 8.860538714E-03 4.777829363E-01
 1.583310892E-03 7.405140903E-03 4.434785957E-01
 1.895129390E-04 5.855463445E-03 6.801161538E-01
 -1.137891202E-03 3.756402293E-03 6.804960120E-01
 -1.748404931E-03 2.091981936E-03 1.179836484E+00
 -1.975034131E-03 7.625535363E-04 8.250794485E-01
 -1.956757158E-03 -8.766335668E-04 1.052830859E+00
 -1.541696372E-03 -2.802765928E-03 8.415687053E-01
 -5.762024084E-04 -5.020827055E-03 7.859561318E-01
 9.974377463E-04 -7.394254208E-03 7.501686160E-01
 3.197597573E-03 -9.864248335E-03 6.064193622E-01
 5.169478245E-03 -1.167485397E-02 5.212070717E-01
 7.506363560E-03 -1.353863254E-02 4.633488114E-01
 9.205619805E-03 -1.475060917E-02 3.579443230E-01
 1.132187434E-02 -1.614300348E-02 3.300452026E-01
 1.382098719E-02 -1.765151322E-02 2.686727484E-01
 1.717977040E-02 -1.949546486E-02 2.254837674E-01
 2.039812692E-02 -2.110398374E-02 1.549953970E-01
 2.455293015E-02 -2.300422080E-02 1.036436147E-01
 3.003050014E-02 -2.527985722E-02 5.051360266E-02
 3.584559634E-02 -2.745152824E-02 -1.695943466E-02
 4.307020828E-02 -2.989993989E-02 -6.024059751E-02
 5.061102286E-02 -3.221278265E-02 -1.165419705E-01
 5.942047387E-02 -3.467776254E-02 -1.629763540E-01
 6.813145429E-02 -3.689728677E-02 -1.998103240E-01
 7.862234116E-02 -3.935809806E-02 -2.257182317E-01
 8.839593828E-02 -4.146247730E-02 -2.598945256E-01
 9.885647893E-02 -4.355049878E-02 -2.846057611E-01
 1.098679900E-01 -4.560010508E-02 -3.088977676E-01
 1.213045120E-01 -4.757414386E-02 -3.336220080E-01
 1.328229308E-01 -4.943490773E-02 -3.565137941E-01
 1.431252509E-01 -5.098991469E-02 -3.785583955E-01
 1.542681605E-01 -5.258123949E-02 -3.987999621E-01
 1.660465151E-01 -5.414613709E-02 -4.185787495E-01
 1.776044220E-01 -5.557749793E-02 -4.371832080E-01
 1.891461313E-01 -5.692538619E-02 -4.560678011E-01
 1.995108873E-01 -5.804277211E-02 -4.769535933E-01
 2.105506957E-01 -5.915839970E-02 -4.954034283E-01
 2.225560248E-01 -6.028728932E-02 -5.151962951E-01
 2.344930172E-01 -6.129735336E-02 -5.358430257E-01
 2.465716600E-01 -6.224478781E-02 -5.559252607E-01
 2.589637339E-01 -6.309779733E-02 -5.800389959E-01
 2.699855268E-01 -6.378256530E-02 -6.044552270E-01
 2.823618650E-01 -6.443730742E-02 -6.275599629E-01
 2.945987880E-01 -6.498271972E-02 -6.498684887E-01
 3.072325885E-01 -6.541886181E-02 -6.685903214E-01
 3.187557757E-01 -6.573962420E-02 -6.901712720E-01
 3.310448229E-01 -6.593627483E-02 -7.116400505E-01
 3.415238559E-01 -6.603100151E-02 -7.316388095E-01
 3.527830243E-01 -6.600722671E-02 -7.474748764E-01
 3.636280894E-01 -6.588812172E-02 -7.559692761E-01
 3.743203580E-01 -6.568729132E-02 -7.633746900E-01
 3.856601715E-01 -6.536076963E-02 -7.663122578E-01
 3.983205557E-01 -6.484863162E-02 -7.506982870E-01
 4.103622735E-01 -6.423029304E-02 -7.188118026E-01
 4.235404432E-01 -6.344322115E-02 -6.811210399E-01
 4.359986484E-01 -6.253015250E-02 -6.365357390E-01
 4.488549531E-01 -6.147258356E-02 -5.827325090E-01
 4.612454176E-01 -6.032325700E-02 -5.291364461E-01
 4.738905132E-01 -5.906484649E-02 -4.800326158E-01
 4.858342707E-01 -5.777054653E-02 -4.382654474E-01
 4.982736707E-01 -5.630198866E-02 -3.879610870E-01
 5.119721889E-01 -5.463187769E-02 -3.372590537E-01
 5.256469846E-01 -5.284027010E-02 -2.943913232E-01
 5.387998819E-01 -5.108653009E-02 -2.538698162E-01
 5.526981354E-01 -4.916905239E-02 -2.216078433E-01
 5.656954646E-01 -4.728716984E-02 -1.835727874E-01
 5.792390108E-01 -4.532373697E-02 -1.469212437E-01
 5.922580361E-01 -4.342730716E-02 -1.220809854E-01
 6.048203707E-01 -4.151451960E-02 -9.153503278E-02
 6.184803247E-01 -3.947041184E-02 -6.046881595E-02
 6.327089071E-01 -3.729575500E-02 -3.298213100E-02
 6.468916535E-01 -3.516039997E-02 -7.104949239E-03
 6.601098180E-01 -3.311158344E-02 1.969214622E-02
 6.740019321E-01 -3.101346642E-02 4.594454896E-02
 6.869818568E-01 -2.906600572E-02 6.402977000E-02
 6.994940639E-01 -2.718283422E-02 8.381817814E-02
 7.145759463E-01 -2.491644584E-02 1.074428689E-01
 7.278839350E-01 -2.294154465E-02 1.307719830E-01
 7.395880818E-01 -2.123502083E-02 1.475258465E-01
 7.523434162E-01 -1.935349591E-02 1.682021741E-01
 7.653726339E-01 -1.750482433E-02 1.896265990E-01
 7.785657644E-01 -1.566185802E-02 2.067731326E-01
 7.910152674E-01 -1.397059299E-02 2.248143280E-01
 8.037442565E-01 -1.227767393E-02 2.419002993E-01
 8.149574995E-01 -1.081994362E-02 2.585989582E-01
 8.263310790E-01 -9.395184927E-03 2.758961550E-01
 8.386648893E-01 -7.920739241E-03 2.920558534E-01
 8.508183956E-01 -6.520890631E-03 3.089328670E-01
 8.627448678E-01 -5.210801028E-03 3.280744326E-01
 8.738914728E-01 -4.082424566E-03 3.434242049E-01
 8.855413795E-01 -3.020453500E-03 3.558850461E-01
 8.985671401E-01 -1.981187146E-03 3.632932322E-01
 9.083831906E-01 -1.270616311E-03 3.761225509E-01
 9.186166525E-01 -6.514127599E-04 3.840950056E-01
 9.284007549E-01 -1.664074371E-04 3.873070208E-01
 9.372308254E-01 2.054776996E-04 3.954128652E-01
 9.498156905E-01 5.690385005E-04 3.875961830E-01
 9.631497860E-01 7.974802284E-04 3.995806527E-01
 9.776642919E-01 8.482864941E-04 3.960160951E-01
 9.904100299E-01 7.270838832E-04 4.090881429E-01
 -5.000000000E-01 -1.000000000E+00 5.016454581E-02
 3.500000000E+00 -1.000000000E+00 1.268451404E-02
 3.500000000E+00 1.000000000E+00 2.668961533E-04
 -5.000000000E-01 1.000000000E+00 4.967526077E-02
 -5.000000000E-01 5.000000000E-01 9.617923387E-02
 -5.000000000E-01 2.752797990E-12 1.524267053E-01
 -5.000000000E-01 -5.000000000E-01 1.025749319E-01
 -9.421907698E-13 -1.000000000E+00 2.325133997E-02
 5.000000000E-01 -1.000000000E+00 -3.061080533E-02
 1.000000000E+00 -1.000000000E+00 -9.320420943E-03
 1.500000000E+00 -1.000000000E+00 2.762631046E-02
 2.000000000E+00 -1.000000000E+00 2.815199816E-02
 2.500000000E+00 -1.000000000E+00 1.920259796E-02
 3.000000000E+00 -1.000000000E+00 1.404674617E-02
 3.500000000E+00 -5.000000000E-01 1.336389857E-02
 3.500000000E+00 -2.752797990E-12 1.272878633E-02
 3.500000000E+00 5.000000000E-01 6.843596744E-03
 3.000000000E+00 1.000000000E+00 -5.963170021E-03
 2.500000000E+00 1.000000000E+00 -1.449303864E-02
 2.000000000E+00 1.000000000E+00 -3.046574638E-02
 1.500000000E+00 1.000000000E+00 -7.208760521E-02
 1.000000000E+00 1.000000000E+00 -1.239121573E-01
 5.000000000E-01 1.000000000E+00 -7.840840408E-02
 1.733724275E-12 1.000000000E+00 1.406792502E-02
 6.811772982E-01 -4.084189807E-02 5.202161227E-02
 7.893830391E-01 -2.839732512E-02 2.138293051E-01
 9.052820668E-01 -1.533162655E-02 3.537713450E-01
 5.887302023E-01 -5.760344072E-02 -1.275687203E-01
 7.009540033E-01 5.968413141E-02 -4.054694524E-01
 2.705553259E-01 7.112213298E-02 -4.533822928E-01
 2.788595710E-01 -7.499869096E-02 -6.039731763E-01
 9.116311010E-01 3.067710326E-02 -8.026533616E-02
 7.983623385E-01 5.015256467E-02 -2.723991311E-01
 5.926985777E-01 6.858916179E-02 -5.629808565E-01
 4.230412172E-01 7.478639906E-02 -5.907956700E-01
 4.154056127E-01 -7.652661743E-02 -6.815346206E-01
 1.787499492E+00 -5.337681543E-01 2.582414214E-02
 1.785763278E+00 6.458685736E-01 -2.028235220E-02
 3.031197064E+00 2.156740578E-01 6.054797440E-03
 7.685422092E-01 -5.688108463E-01 -5.028274913E-03
 4.940582785E-01 -6.882294436E-02 -3.958549703E-01
 3.345889934E-01 -6.498008995E-01 -8.163880061E-02
 1.246677193E-01 -6.304082156E-02 -3.113723049E-01
 1.991084963E-01 -6.663776192E-02 -4.607063152E-01
 3.474873682E-01 -7.873404673E-02 -7.107529180E-01
 7.500000000E-01 5.669872981E-01 -1.988891992E-01
 5.011550076E-01 6.997253760E-02 -6.262019836E-01
 2.734795016E+00 -5.327446244E-01 1.206695040E-02
 1.158651268E+00 6.115357167E-01 -5.818109723E-02
 9.851571472E-01 3.617234564E-01 -6.407909278E-02
 1.245971506E+00 -6.121899974E-01 5.295267522E-02
 1.515693611E+00 -2.744321453E-01 3.521334191E-02
 3.329889379E-01 6.149009838E-01 -1.189553395E-01
 1.083227102E-01 4.699691126E-02 -2.714895502E-01
 1.651410914E-01 5.968738842E-02 -3.391297164E-01
 3.487496808E-01 7.254023342E-02 -5.334794648E-01
 2.240747994E+00 -5.777596897E-01 1.657651859E-02
 2.024080972E+00 -1.982323060E-01 1.238916825E-02
 2.419964301E+00 -1.844638130E-01 7.889219239E-03
 2.184441781E+00 1.578024732E-01 1.823199520E-03
 1.781036620E+00 7.270463421E-02 7.686559512E-03
 -2.741399216E-01 2.323017380E-01 1.632358630E-01
 -1.005791551E-01 6.206263516E-01 3.404208583E-02
 2.902425685E-02 3.288192814E-01 2.495803514E-02
 4.593916972E-02 3.318648249E-02 -1.030707414E-01
 -2.712202439E-01 -2.367998037E-01 1.729616012E-01
 -1.458595793E-01 -5.996675582E-01 5.535968302E-02
 8.156807851E-02 -4.086466012E-01 -2.589019142E-02
 6.978325599E-02 -5.064904241E-02 -1.660914780E-01
 2.240150858E+00 5.543339767E-01 -8.551641740E-03
 2.746199506E+00 5.960366776E-01 -2.018123101E-03
 -2.353291228E-01 -4.511546801E-03 2.218936159E-01
 -1.278052960E-01 1.264218276E-01 2.397243118E-01
 -1.096383640E-01 -1.272005968E-01 2.554854188E-01
 -8.196214589E-02 -3.261387434E-01 1.032100604E-01
 5.486261959E-03 -1.808716717E-01 1.326724975E-01
 3.753498904E-02 -3.434973996E-02 -1.536868230E-03
 1.602322823E-01 -2.183900370E-01 -2.274353964E-01
 -2.237188150E-02 -9.857534536E-02 2.885103424E-01
 -1.097386946E-01 -2.340313498E-02 3.588332266E-01
 -7.064758386E-02 5.520283168E-02 3.754797181E-01
 1.990549547E-02 2.180562103E-02 -4.129794210E-03
 3.256730022E-02 -1.153501645E-01 1.089321901E-01
 3.109330877E+00 -2.613213570E-01 1.129618045E-02
 -5.098738154E-02 -3.897573240E-02 4.539991778E-01
 -5.123927024E-02 1.137817126E-02 5.748689471E-01
 -2.183748655E-02 5.366151578E-02 4.292024875E-01
 -3.896832002E-02 1.019265967E-01 2.704815435E-01
 2.581239277E-02 1.012851367E-01 8.262636622E-02
 7.610509656E-02 4.159547068E-02 -2.058084532E-01
 -2.238413691E-02 1.822363528E-01 1.447101892E-01
 7.235246760E-02 1.940443781E-01 -4.260652635E-02
 2.101930350E-01 6.132550502E-02 -3.950766629E-01
 1.652948056E-01 2.812137139E-01 -1.665753710E-01
 1.886409054E-01 6.229123167E-02 -3.678818155E-01
 2.180447923E-01 1.835649819E-01 -2.855128479E-01
 2.831848976E-01 2.605642462E-01 -3.012478847E-01
 2.964263933E-01 1.635215247E-01 -3.881497408E-01
 3.657982124E-01 2.196366521E-01 -4.008576931E-01
 3.112013020E-01 7.174659721E-02 -4.974851820E-01
 3.698530503E-01 1.446400171E-01 -4.751067001E-01
 4.440907008E-01 1.765009736E-01 -4.866300922E-01
 4.641130396E-01 7.543618707E-02 -6.083212959E-01
 4.454666880E-01 2.702356752E-01 -3.944678296E-01
 5.308721495E-01 2.081404915E-01 -4.641795634E-01
 5.524494219E-01 7.217947285E-02 -6.011603772E-01
 5.256470764E-01 6.928497632E-02 -6.178373727E-01
 3.833423625E-01 7.057294395E-02 -5.650338023E-01
 5.400769093E-01 3.324258662E-01 -3.621452975E-01
 6.279443078E-01 2.560735053E-01 -3.802838169E-01
 6.494777307E-01 6.381380423E-02 -4.834316453E-01
 6.095791827E-01 1.600049183E-01 -4.643251655E-01
 7.035183147E-01 1.823611561E-01 -3.454235439E-01
 7.527175382E-01 5.536754067E-02 -3.299969331E-01
 7.252587002E-01 5.824067280E-02 -3.667878637E-01
 7.378024836E-01 2.794787271E-01 -2.651743377E-01
 8.094378288E-01 1.955331316E-01 -2.187327550E-01
 8.656453818E-01 3.923351813E-02 -1.845146743E-01
 8.373319879E-01 4.242122670E-02 -2.264607567E-01
 7.600256453E-01 1.342606310E-01 -2.886759932E-01
 8.405703206E-01 1.383984032E-01 -1.840610451E-01
 8.891558054E-01 1.849312226E-01 -1.097283919E-01
 9.698533613E-01 1.946104681E-02 1.219481549E-01
 9.456557523E-01 2.567845488E-02 2.929170033E-02
 9.293965539E-01 1.183458521E-01 -4.859809142E-02
 9.639147059E-01 1.690839471E-01 -1.713089364E-02
 1.012538648E+00 1.069505285E-01 7.158618210E-02
 1.052944219E+00 2.093748956E-01 2.029182460E-02
 1.154121672E+00 3.346803785E-01 4.816094542E-03
 1.222343327E+00 1.837829715E-01 4.997389103E-02
 1.340687730E+00 3.607369418E-01 4.333487554E-03
 5.467144935E-01 1.374420034E-01 -5.322316687E-01
 6.656556151E-01 1.255296934E-01 -4.223953067E-01
 2.402581322E-01 1.233119168E-01 -3.640547027E-01
 1.862695729E-01 1.183243299E-01 -3.042744337E-01
 8.826213921E-01 8.542900929E-02 -1.276162888E-01
 9.621465345E-01 7.439575387E-02 3.863959349E-02
 1.011769287E+00 5.245565410E-02 1.506018864E-01
 1.109817399E+00 9.948202232E-02 1.062798369E-01
 1.084080925E+00 1.018594761E-02 1.544344282E-01
 6.183859055E-01 1.042589498E-01 -4.971626177E-01
 6.278253785E-01 6.239477534E-02 -5.208998336E-01
 1.224705669E+00 3.321987783E-02 7.813833930E-02
 1.159073362E+00 -7.156148489E-02 1.223493132E-01
 1.050096568E+00 -9.388504909E-02 2.052423425E-01
 9.544853822E-01 -1.343484447E-02 3.804909249E-01
 9.355712036E-01 -1.100458311E-02 3.720594315E-01
 9.421918555E-01 -2.961218797E-02 3.534184705E-01
 1.118419367E+00 -2.049297651E-01 1.324896763E-01
 9.806788896E-01 -2.136282814E-01 1.734411095E-01
 8.459601509E-01 -1.864008812E-02 2.905207697E-01
 1.449687772E+00 1.184463098E-01 2.608058456E-02
 1.067873793E+00 -3.567674521E-01 1.017195041E-01
 1.039559593E+00 2.298927053E-02 2.048289389E-01
 7.989093172E-01 1.006218494E-01 -2.518553159E-01
 7.754982669E-01 4.935473638E-02 -3.039107124E-01
 8.543012989E-02 1.160395532E-01 -1.412460343E-01
 1.318064230E+00 -1.030791842E-01 6.574109111E-02
 3.280007730E-01 1.184147290E-01 -4.635336211E-01
 4.265318386E-01 1.184912740E-01 -5.402290715E-01
 4.704044438E-01 1.227054247E-01 -5.550412038E-01
 6.659571753E-01 3.981487405E-01 -2.857357336E-01
 8.584577367E-01 2.813800068E-01 -1.515371114E-01
 1.291194020E+00 -2.917743764E-01 7.155434102E-02
 5.090995462E-01 1.080805561E-01 -5.767202371E-01
 1.424291610E-01 4.500441622E-01 -5.859689373E-02
 8.895030618E-01 -3.539775190E-01 9.755206056E-02
 8.107119500E-01 -2.082099391E-01 1.277212917E-01
 7.338479416E-01 -3.666109853E-02 1.309045078E-01
 7.605709513E-01 -3.243744883E-02 1.738898443E-01
 8.953446480E-01 -1.398221302E-01 2.131678500E-01
 7.189166062E-01 -3.397984183E-01 1.953790351E-03
 6.482170783E-01 -2.315471293E-01 -4.246162216E-02
 5.750592452E-01 -2.945033517E-01 -1.319199544E-01
 5.324507626E-01 -2.211994832E-01 -2.127332128E-01
 5.337422167E-01 -6.335414334E-02 -2.668501965E-01
 4.570667831E-01 -3.028614807E-01 -2.803020820E-01
 3.999340375E-01 -2.040752426E-01 -4.566112689E-01
 7.273033979E-01 -1.328751806E-01 8.309119073E-02
 5.928879412E-01 -1.543976494E-01 -1.115984000E-01
 6.453171734E-01 -5.376862048E-02 -1.424536256E-02
 4.648327314E-01 -1.482928976E-01 -4.190077968E-01
 4.567854840E-01 -7.581374240E-02 -5.263621297E-01
 3.366697985E-01 -2.938292385E-01 -3.235286391E-01
 2.704768029E-01 -2.082525812E-01 -3.735941091E-01
 3.359626209E-01 -1.604896209E-01 -5.207830420E-01
 3.803373994E-01 -7.545512327E-02 -7.456707272E-01
 3.088306673E-01 -7.661044498E-02 -6.501862343E-01
 9.943781139E-01 -5.783491630E-01 6.054359465E-02
 9.656570599E-01 -1.070307294E-01 2.584737546E-01
 5.419198338E-01 -4.661767293E-01 -1.252306273E-01
 4.283054110E-01 3.971543712E-01 -2.934487877E-01
 -8.030458470E-03 -6.038540820E-02 4.181657141E-01
 9.149915368E-03 -1.732668746E-02 3.897210941E-01
 2.113234799E-02 -2.718411509E-02 1.696591545E-01
 2.858718778E-02 -7.370343831E-02 1.374980269E-01
 5.410712101E-02 -4.396285019E-02 -9.527216926E-02
 6.989805546E-02 -9.000619483E-02 -9.177790464E-02
 1.035336844E-01 -5.705618641E-02 -2.668815061E-01
 8.572077152E-02 -1.496376957E-01 -9.065209935E-02
 1.177461000E-01 -1.101220385E-01 -2.238057953E-01
 1.563160706E-01 -6.485951510E-02 -3.820962953E-01
 2.056248429E-02 5.972247004E-02 1.260102559E-01
 8.233694287E-01 4.037195294E-01 -1.788802477E-01
 5.568174439E-01 5.153814825E-01 -2.630272230E-01
 3.590994743E-01 1.057968321E-01 -5.087683310E-01
 3.909218695E-01 1.026823729E-01 -5.326088557E-01
 4.896421225E-01 7.200800764E-02 -6.195165846E-01
 5.021747639E-01 8.225955240E-02 -6.105433798E-01
 4.788317964E-01 8.819094180E-02 -5.988531838E-01
 4.561638850E-01 9.526316159E-02 -5.837629418E-01
 4.767742800E-01 7.261112564E-02 -6.164527432E-01
 6.535243044E-01 9.616159315E-02 -4.561036507E-01
 6.726722370E-01 6.191349769E-02 -4.461657003E-01
 6.894127588E-01 9.438417723E-02 -4.026769683E-01
 3.368909782E-01 6.933746717E-02 -5.247554595E-01
 3.399236712E-01 8.513388936E-02 -5.100963772E-01
 5.773439798E-01 7.016887735E-02 -5.782978668E-01
 5.897980542E-01 8.596825462E-02 -5.502469198E-01
 6.083915065E-01 7.864522053E-02 -5.335322830E-01
 5.676504117E-01 8.263474421E-02 -5.772989817E-01
 5.441153532E-01 9.165918318E-02 -5.814789286E-01
 5.786189833E-01 1.088025370E-01 -5.385126096E-01
 6.044373298E-01 6.454696423E-02 -5.532668287E-01
 5.130470723E-01 7.134390785E-02 -6.224644509E-01
 2.128024795E-01 9.963626175E-02 -3.538022842E-01
 2.395101104E-01 6.685924744E-02 -4.208885720E-01
 3.260182479E-01 7.253718752E-02 -5.129431705E-01
 3.189396775E-01 9.030470435E-02 -4.807366063E-01
 2.957122112E-01 8.636692094E-02 -4.651965874E-01
 6.376174138E-01 6.206990964E-02 -5.049984702E-01
 4.479547067E-01 7.639808510E-02 -6.024820483E-01
 4.345677576E-01 8.949198154E-02 -5.815528940E-01
 6.863821803E-01 6.050396612E-02 -4.268844907E-01
 5.367815802E-01 7.294531382E-02 -6.091726841E-01
 1.629961928E+00 3.588552335E-01 -5.047637576E-03
 1.483012841E+00 5.953992931E-01 -1.986638143E-02
 4.106334304E-01 7.182556857E-02 -5.828912091E-01
 4.137162327E-01 8.825012020E-02 -5.664226771E-01
 4.351577366E-01 7.342779515E-02 -6.008561476E-01
 5.650745571E-01 6.827872436E-02 -5.940545030E-01
 3.957977322E-01 7.758077279E-02 -5.664926505E-01
 5.218108987E-01 8.259558162E-02 -6.064537952E-01
 -1.207974114E-01 2.645335308E-01 1.355119129E-01
 9.203506135E-01 5.443862783E-01 -1.165856765E-01
 9.806170289E-01 4.798422744E-02 1.060836651E-01
 9.964475832E-01 2.839350215E-02 1.919592187E-01
 9.617305644E-01 3.749343017E-02 7.479756179E-02
 9.384451740E-01 4.629685279E-02 -8.094434842E-03
 9.968207397E-01 1.204523286E-02 2.813308239E-01
 9.843168679E-01 1.654886694E-02 1.758324265E-01
 6.153714910E-01 6.423193708E-02 -5.346413247E-01
 -1.810162549E-02 -3.102989624E-02 5.617419880E-01
 2.432371571E-03 -1.393564982E-02 6.178350411E-01
 -2.048997562E-02 -6.004470395E-03 8.095380711E-01
 -8.499281078E-03 1.482811797E-02 6.876557823E-01
 2.562995349E+00 2.037500655E-01 1.181101704E-03
 6.336532607E-01 7.749916679E-02 -4.985039068E-01
 6.638940986E-01 7.934006824E-02 -4.520257699E-01
 1.984830890E-01 -3.037402487E-01 -1.923993469E-01
 2.154133519E-01 -1.563871522E-01 -3.632740768E-01
 2.429894525E-01 -7.636207473E-02 -5.268392478E-01
 2.729283375E-01 -1.372978964E-01 -4.832334553E-01
 3.143125337E-01 -1.185280970E-01 -5.786306954E-01
 3.524746714E-01 -1.147299825E-01 -6.309327895E-01
 2.362014624E-01 -1.150655207E-01 -4.533535229E-01
 1.933208472E-01 -1.129047565E-01 -3.822354602E-01
 2.158397027E-01 -7.518461902E-02 -4.784769832E-01
 1.540145107E-01 -1.426839921E-01 -2.774345584E-01
 3.884865087E-01 -1.449305830E-01 -5.796055257E-01
 4.300748589E-01 -1.235310372E-01 -5.514324500E-01
 3.882784714E-01 -1.102455586E-01 -6.569793135E-01
 2.735730623E-03 -4.083128781E-02 4.431733617E-01
 1.909811540E-02 -5.062491462E-02 2.264784548E-01
 5.514430024E-01 -6.852906894E-01 -8.059622094E-02
 5.613481144E-02 7.852201884E-02 -8.126106024E-02
 2.828929547E-01 -1.061784214E-01 -5.580337365E-01
 2.569019677E-01 -9.722181745E-02 -5.219793303E-01
 2.914834639E-01 -8.468542610E-02 -6.058581029E-01
 3.304491703E-01 -9.963026682E-02 -6.349510942E-01
 3.638590546E-01 -9.387389841E-02 -6.904967702E-01
 4.012097365E-01 -8.709502056E-02 -6.913955130E-01
 2.883644106E-01 1.164823090E-01 -4.281592259E-01
 2.703068961E-01 9.548091508E-02 -4.266663879E-01
 2.541740801E-01 7.718028481E-02 -4.291700014E-01
 8.627133929E-02 7.593841064E-02 -1.819494169E-01
 1.212028144E-01 9.461689057E-02 -2.288409017E-01
 1.405896671E-01 5.625936986E-02 -3.063583519E-01
 5.978308597E-02 5.613285993E-02 -1.198972946E-01
 8.532413373E-02 5.445916022E-02 -2.200077313E-01
 1.559757881E+00 -7.255840021E-02 2.486877531E-02
 1.734307174E+00 -1.764316155E-01 1.874408705E-02
 2.609673696E-01 -7.545398280E-02 -5.648661156E-01
 9.742420287E-01 -1.240201614E-02 3.686124882E-01
 2.325840557E-01 8.723888979E-02 -3.930846977E-01
 2.038995256E-01 7.884530221E-02 -3.655558329E-01
 1.753635017E-01 7.807573168E-02 -3.284682575E-01
 1.509760659E-01 7.495274869E-02 -2.962068219E-01
 1.243812006E-01 6.605492139E-02 -2.686124676E-01
 9.575372286E-01 2.024515513E-02 7.333821854E-02
 9.286978101E-01 2.797245679E-02 -2.950082559E-02
 9.180294964E-01 4.301467500E-02 -6.048826803E-02
 8.883692105E-01 3.405823476E-02 -1.397008630E-01
 9.015027996E-01 4.375429540E-02 -1.043556810E-01
 8.828727398E-01 5.200249529E-02 -1.430327629E-01
 8.608219188E-01 5.912981909E-02 -1.800405480E-01
 8.399491928E-01 5.812174622E-02 -2.136707099E-01
 9.132175732E-01 6.627283194E-02 -6.753685372E-02
 8.256579729E-01 4.655520737E-02 -2.368367098E-01
 8.769121687E-01 3.466908458E-02 -1.683566399E-01
 1.012726994E+00 1.716005935E-02 2.281171989E-01
 1.024477638E+00 -1.730371763E-02 2.673035190E-01
 9.925545275E-01 -5.748580012E-02 2.972451768E-01
 6.819448878E-01 7.420727407E-02 -4.249424909E-01
 7.109749574E-01 1.300513231E-01 -3.548206953E-01
 7.292329468E-01 9.983003618E-02 -3.416512342E-01
 2.854169596E-01 4.046604803E-01 -2.211654089E-01
 3.098247755E-01 -9.464655395E-02 -6.133215841E-01
 3.278592020E-01 -8.288107009E-02 -6.704552258E-01
 2.453573456E-01 -4.398793581E-01 -1.543470230E-01
 8.095834981E-02 -2.713863445E-01 -3.380196528E-02
 2.869006602E-01 7.227105660E-02 -4.692240648E-01
 2.991582984E-01 6.932436330E-02 -4.874801877E-01
 9.117622617E-01 -8.188091210E-02 2.781376807E-01
 8.620030856E-01 -8.526549961E-02 2.488895634E-01
 8.823985820E-01 -5.125177217E-02 2.962037903E-01
 8.686638354E-01 -1.676316318E-02 3.210414883E-01
 8.509293836E-01 -5.057933835E-02 2.648063576E-01
 8.229128818E-01 -2.193995003E-02 2.607330995E-01
 8.146678364E-01 -7.293304013E-02 2.134772048E-01
 8.217216973E-01 -1.266844957E-01 1.772269361E-01
 7.747166588E-01 -1.043694619E-01 1.516093061E-01
 7.744724026E-01 -6.659412634E-02 1.705980459E-01
 7.316642178E-01 -7.862116783E-02 1.090153585E-01
 6.888202398E-01 -1.043272585E-01 4.193885566E-02
 7.097320038E-01 -3.620247050E-02 9.630100566E-02
 6.973333815E-01 -7.217951978E-02 6.635954143E-02
 6.635698095E-01 -7.619864579E-02 1.309307224E-02
 6.407201497E-01 -1.119775249E-01 -3.629680249E-02
 5.946707190E-01 -9.922750008E-02 -1.146248783E-01
 6.139942218E-01 -5.567381427E-02 -7.368072399E-02
 5.537805127E-01 -1.111339499E-01 -1.987446204E-01
 5.646686747E-01 -8.117921433E-02 -1.811643378E-01
 5.608543560E-01 -5.944976894E-02 -1.930108979E-01
 6.268806011E-01 -7.372167955E-02 -5.030756170E-02
 6.626550902E-01 -5.563208858E-02 1.694571364E-02
 5.488792176E-01 -6.389701441E-02 -2.243553075E-01
 5.388576223E-01 -8.410873097E-02 -2.419898557E-01
 5.163381964E-01 -1.032998629E-01 -2.902691189E-01
 5.136194834E-01 -1.511850947E-01 -2.730559610E-01
 4.777724145E-01 -1.139757015E-01 -4.099858071E-01
 6.274762456E-01 -5.198605623E-02 -4.583474039E-02
 5.738550871E-01 -6.125141075E-02 -1.606930440E-01
 5.846094187E-01 -7.448043216E-02 -1.358498941E-01
 6.024556194E-01 -6.877119175E-02 -9.964726745E-02
 7.487183252E-01 -4.882276358E-02 1.461356662E-01
 7.758086692E-01 -4.346750293E-02 1.870535134E-01
 7.979768641E-01 -4.762162406E-02 2.126264180E-01
 8.251224640E-01 -4.402906752E-02 2.441060433E-01
 8.072166453E-01 -2.890323205E-02 2.376008781E-01
 4.494019203E-01 -9.630015852E-02 -5.356383462E-01
 4.716402541E-01 -8.591904732E-02 -4.561581034E-01
 4.398490696E-01 -8.068079893E-02 -5.896684105E-01
 4.221051514E-01 -9.250800917E-02 -6.302025451E-01
 8.599668660E-01 -3.236593351E-02 2.979931626E-01
 7.205686585E-01 -3.469560787E-02 1.143334651E-01
 7.175398155E-01 -5.193594494E-02 1.041812599E-01
 6.959655394E-01 -4.394059527E-02 7.339497917E-02
 5.193860978E-01 -8.022703937E-02 -2.968350902E-01
 7.730189014E-01 -1.557561404E-01 1.174097640E-01
 7.248991758E-01 -2.041076603E-01 5.680749065E-02
 6.704746638E-01 -1.565387338E-01 3.682093493E-03
 7.739402116E-01 -2.749379184E-02 1.947937689E-01
 7.470137432E-01 -3.170196554E-02 1.528966516E-01
 3.133974596E+00 6.339745962E-01 3.140227238E-04
 2.163357845E-01 -9.670943572E-02 -4.497355743E-01
 8.992941167E-01 2.972181456E-02 -1.138458593E-01
 9.123229409E-05 3.755512994E-02 3.039363409E-01
 7.834561790E-03 2.172834442E-02 1.993957655E-01
 6.674656222E-03 1.309167005E-02 7.009527368E-02
 1.863890716E-02 3.511829556E-02 9.069733746E-02
 2.891473768E-02 2.902453930E-02 -3.010149092E-02
 3.827443221E-02 4.072078901E-02 -2.253700440E-02
 1.039657450E-02 1.560160019E-02 8.735208501E-02
 3.133974596E+00 -6.339745962E-01 1.169294225E-02
 8.504233408E-01 4.240908788E-02 -2.079858749E-01
 1.526567869E-01 -1.067945860E-01 -3.190679212E-01
 1.758733347E-01 -9.145511260E-02 -3.774714127E-01
 1.321730045E-01 -8.465739072E-02 -3.008852870E-01
 1.031309676E-01 -6.195988834E-01 -1.562254780E-02
 3.329571979E-01 -7.243123011E-02 -7.020804685E-01
 3.836323428E-02 3.004579959E-02 -6.980766028E-02
 8.480492117E-01 8.990041085E-02 -1.900317772E-01
 1.953368274E+00 3.583908761E-01 -8.084557942E-03
 6.689373124E-01 -4.429762358E-02 3.218379751E-02
 6.616115246E-01 6.127777324E-02 -4.652409684E-01
 4.968264615E-01 -8.757679948E-02 -3.690284705E-01
 5.080905852E-01 -6.953880633E-02 -3.446694553E-01
 5.197676146E-01 -6.411842737E-02 -3.041852970E-01
 1.770377675E-01 5.905386667E-02 -3.564603892E-01
 8.163797349E-01 6.503244798E-02 -2.409568658E-01
 7.913126462E-01 6.715588950E-02 -2.739249518E-01