TITLE     = "Visualization of the solution"
VARIABLES = "x"
"y"
"Pressure_Coefficient"
ZONE T="Zone"
 STRANDID=0, SOLUTIONTIME=0
 Nodes=713, Elements=1211, ZONETYPE=FEQuadrilateral
 DATAPACKING=POINT
 DT=(DOUBLE DOUBLE DOUBLE )
 9.997286797E-01 5.217997241E-04 2.465110753E-01
 9.886749983E-01 2.339122351E-03 1.958968976E-01
 9.782185555E-01 4.069041926E-03 1.293558861E-01
 9.657612443E-01 6.053734105E-03 7.823199916E-02
 9.535403848E-01 8.035198785E-03 2.839689888E-02
 9.413642287E-01 9.960652329E-03 -6.497691828E-03
 9.307239652E-01 1.161530521E-02 -5.165069956E-02
 9.182152152E-01 1.354177576E-02 -9.515700687E-02
 9.066619277E-01 1.521176472E-02 -1.290592430E-01
 8.938658237E-01 1.696345583E-02 -1.540807050E-01
 8.807598352E-01 1.864025369E-02 -1.714449483E-01
 8.686444759E-01 2.011165954E-02 -1.899446727E-01
 8.555027246E-01 2.166843787E-02 -2.015775462E-01
 8.430895209E-01 2.302001789E-02 -2.077849711E-01
 8.308669925E-01 2.433728613E-02 -2.153670984E-01
 8.168205023E-01 2.578420378E-02 -2.236632387E-01
 8.033335209E-01 2.715017460E-02 -2.367367511E-01
 7.911614180E-01 2.835669182E-02 -2.466663226E-01
 7.783464193E-01 2.957301028E-02 -2.558151593E-01
 7.655442953E-01 3.077048250E-02 -2.675258386E-01
 7.521950603E-01 3.198150918E-02 -2.794073357E-01
 7.377486229E-01 3.325362504E-02 -2.915399593E-01
 7.265021801E-01 3.421044722E-02 -3.029355260E-01
 7.151879072E-01 3.515615687E-02 -3.122369212E-01
 7.031012177E-01 3.611642495E-02 -3.258494180E-01
 6.889971495E-01 3.722710535E-02 -3.406200183E-01
 6.752189994E-01 3.823920339E-02 -3.505508353E-01
 6.650696993E-01 3.895062953E-02 -3.632631095E-01
 6.533262134E-01 3.976492956E-02 -3.763224851E-01
 6.421300173E-01 4.048561677E-02 -3.848615198E-01
 6.298779845E-01 4.123049602E-02 -3.967494818E-01
 6.187892556E-01 4.187848791E-02 -4.090692457E-01
 6.072748303E-01 4.250017554E-02 -4.187275859E-01
 5.938690305E-01 4.316761717E-02 -4.268598712E-01
 5.813544989E-01 4.372704029E-02 -4.332245158E-01
 5.673214793E-01 4.429732636E-02 -4.428276319E-01
 5.544076562E-01 4.476686195E-02 -4.503622549E-01
 5.417290330E-01 4.515853524E-02 -4.546329176E-01
 5.307847261E-01 4.544557258E-02 -4.540717255E-01
 5.184867382E-01 4.570899904E-02 -4.539261292E-01
 5.052477717E-01 4.594094306E-02 -4.534647468E-01
 4.940398633E-01 4.607334733E-02 -4.510227572E-01
 4.806894660E-01 4.618752375E-02 -4.490741247E-01
 4.675637484E-01 4.623064771E-02 -4.407353904E-01
 4.527640939E-01 4.618873447E-02 -4.337018376E-01
 4.386811256E-01 4.610064253E-02 -4.282730660E-01
 4.253889620E-01 4.594851285E-02 -4.199450828E-01
 4.122524261E-01 4.573925585E-02 -4.106376274E-01
 4.001408219E-01 4.549708217E-02 -4.012061937E-01
 3.881075680E-01 4.521576688E-02 -3.923650877E-01
 3.760173619E-01 4.488996044E-02 -3.840785885E-01
 3.655416071E-01 4.457376152E-02 -3.762024593E-01
 3.528113961E-01 4.415487498E-02 -3.692913513E-01
 3.414276838E-01 4.373573884E-02 -3.614908813E-01
 3.294183910E-01 4.325574636E-02 -3.535160810E-01
 3.191320598E-01 4.280824587E-02 -3.435623093E-01
 3.072949350E-01 4.226071015E-02 -3.347352853E-01
 2.943810821E-01 4.163196683E-02 -3.267682745E-01
 2.807760537E-01 4.092181474E-02 -3.196707123E-01
 2.678400874E-01 4.019983858E-02 -3.117975988E-01
 2.560098469E-01 3.949863091E-02 -3.032660888E-01
 2.435081005E-01 3.871527687E-02 -2.952076237E-01
 2.307845354E-01 3.788159415E-02 -2.877686891E-01
 2.187760174E-01 3.704994917E-02 -2.802449256E-01
 2.075295299E-01 3.623395413E-02 -2.742801323E-01
 1.969968230E-01 3.543945029E-02 -2.685597888E-01
 1.850411296E-01 3.449236229E-02 -2.638684163E-01
 1.733779907E-01 3.352307156E-02 -2.570586090E-01
 1.621162295E-01 3.253549710E-02 -2.490737977E-01
 1.502382159E-01 3.144970164E-02 -2.467142217E-01
 1.399433762E-01 3.047196008E-02 -2.421559478E-01
 1.288149357E-01 2.934754826E-02 -2.361772612E-01
 1.173099428E-01 2.812558599E-02 -2.335282123E-01
 1.067865863E-01 2.694719285E-02 -2.287805595E-01
 9.719065577E-02 2.580712177E-02 -2.216056408E-01
 8.588255942E-02 2.437904105E-02 -2.140075447E-01
 7.361403108E-02 2.269768715E-02 -2.147312638E-01
 6.387792528E-02 2.125069685E-02 -2.090371090E-01
 5.419994146E-02 1.968098804E-02 -2.007943509E-01
 4.527767003E-02 1.809347421E-02 -1.975559070E-01
 3.773462400E-02 1.659182832E-02 -1.869210245E-01
 3.130754456E-02 1.518332399E-02 -1.883813625E-01
 2.562049776E-02 1.378118247E-02 -1.724714080E-01
 2.157494612E-02 1.267333794E-02 -1.521735423E-01
 1.790026389E-02 1.156410947E-02 -1.515626571E-01
 1.533567626E-02 1.070768945E-02 -1.264641365E-01
 1.304336730E-02 9.868693538E-03 -1.190662525E-01
 1.135797799E-02 9.202654473E-03 -1.213967238E-01
 9.804626927E-03 8.535151370E-03 -1.080818797E-01
 8.310581557E-03 7.843457162E-03 -9.018777977E-02
 6.297227927E-03 6.791575346E-03 1.954377204E-02
 4.496793263E-03 5.693344399E-03 2.323157234E-01
 2.832097700E-03 4.467486404E-03 4.389369755E-01
 1.179841813E-03 2.866467694E-03 8.482912566E-01
 2.185687044E-04 1.533313305E-03 1.031419367E+00
 -2.805101685E-04 4.879174812E-04 1.087940736E+00
 -6.091760006E-04 -7.951294538E-04 1.664503649E+00
 -6.029814249E-04 -2.347498666E-03 1.122230615E+00
 -1.193435091E-04 -4.042159766E-03 1.084305738E+00
 9.748741868E-04 -5.925728474E-03 8.232210477E-01
 2.737587085E-03 -7.901151665E-03 6.013758291E-01
 4.353688098E-03 -9.295854717E-03 5.431160049E-01
 6.303021684E-03 -1.070632599E-02 4.220140222E-01
 7.729558274E-03 -1.161207724E-02 3.181915242E-01
 9.560844861E-03 -1.266863197E-02 2.803766099E-01
 1.179835200E-02 -1.383151207E-02 2.311509426E-01
 1.484985463E-02 -1.525900140E-02 1.722436292E-01
 1.784723066E-02 -1.651949063E-02 9.146443297E-02
 2.169692330E-02 -1.798477024E-02 5.799141167E-02
 2.705317177E-02 -1.981264353E-02 7.896465800E-03
 3.269001842E-02 -2.153452858E-02 -2.220693700E-02
 4.040289298E-02 -2.364455909E-02 -5.313717912E-02
 4.781140015E-02 -2.547237463E-02 -9.268642077E-02
 5.670021102E-02 -2.746559866E-02 -1.124098187E-01
 6.523233652E-02 -2.922029048E-02 -1.405868006E-01
 7.555219531E-02 -3.117727116E-02 -1.630755135E-01
 8.550158888E-02 -3.293000162E-02 -1.831435666E-01
 9.591450542E-02 -3.463874757E-02 -2.013251708E-01
 1.065962538E-01 -3.628074005E-02 -2.179285356E-01
 1.182928830E-01 -3.797294945E-02 -2.341028851E-01
 1.295861155E-01 -3.950912133E-02 -2.519943213E-01
 1.402254701E-01 -4.088138416E-02 -2.684371509E-01
 1.510177553E-01 -4.219381511E-02 -2.833373298E-01
 1.629670709E-01 -4.358100146E-02 -2.997819180E-01
 1.745431721E-01 -4.483895749E-02 -3.175480997E-01
 1.865859032E-01 -4.608450457E-02 -3.347896803E-01
 1.972117573E-01 -4.711973295E-02 -3.532256330E-01
 2.082893401E-01 -4.813794047E-02 -3.692805535E-01
 2.206746489E-01 -4.920144379E-02 -3.853398927E-01
 2.334200740E-01 -5.021829531E-02 -4.037757318E-01
 2.461847514E-01 -5.116970837E-02 -4.260437767E-01
 2.594929039E-01 -5.205390230E-02 -4.500378770E-01
 2.710465789E-01 -5.275179446E-02 -4.702394957E-01
 2.843601108E-01 -5.346598476E-02 -4.902888420E-01
 2.979151011E-01 -5.409400538E-02 -5.130611311E-01
 3.111101985E-01 -5.459965765E-02 -5.364082005E-01
 3.230166733E-01 -5.495723709E-02 -5.596831118E-01
 3.353788257E-01 -5.522610247E-02 -5.765999713E-01
 3.463810682E-01 -5.538745597E-02 -5.942872738E-01
 3.575987518E-01 -5.544846877E-02 -6.092434193E-01
 3.686917126E-01 -5.542824417E-02 -6.219088689E-01
 3.792839944E-01 -5.531245470E-02 -6.319284954E-01
 3.905214667E-01 -5.508962274E-02 -6.330456076E-01
 4.031236470E-01 -5.471749231E-02 -6.280383081E-01
 4.151840210E-01 -5.422753096E-02 -6.176857299E-01
 4.284425974E-01 -5.355870351E-02 -5.975506609E-01
 4.414617419E-01 -5.274519697E-02 -5.693206231E-01
 4.544053674E-01 -5.180481076E-02 -5.328601831E-01
 4.669616222E-01 -5.074471608E-02 -4.904288756E-01
 4.794176519E-01 -4.957466945E-02 -4.434736178E-01
 4.908303916E-01 -4.843065888E-02 -4.041976997E-01
 5.027083755E-01 -4.710442573E-02 -3.622896307E-01
 5.163237453E-01 -4.552611709E-02 -3.144181216E-01
 5.302689075E-01 -4.379619285E-02 -2.730768303E-01
 5.437954068E-01 -4.205350205E-02 -2.302211003E-01
 5.574302077E-01 -4.025123641E-02 -1.937016331E-01
 5.694492459E-01 -3.858673945E-02 -1.605606566E-01
 5.825718641E-01 -3.675711155E-02 -1.270195765E-01
 5.941504240E-01 -3.512151912E-02 -9.990750174E-02
 6.056169868E-01 -3.346654773E-02 -6.959642468E-02
 6.186814904E-01 -3.161147237E-02 -4.204813158E-02
 6.324782372E-01 -2.961487882E-02 -1.643560591E-02
 6.458599567E-01 -2.770199254E-02 9.253840235E-03
 6.590552330E-01 -2.582165971E-02 3.311902361E-02
 6.725243926E-01 -2.393573150E-02 5.390406874E-02
 6.851575971E-01 -2.216685750E-02 7.361176970E-02
 6.976327896E-01 -2.042920329E-02 9.471125591E-02
 7.118226290E-01 -1.848149672E-02 1.178965942E-01
 7.244007587E-01 -1.675913110E-02 1.385198381E-01
 7.358120084E-01 -1.525797229E-02 1.571270593E-01
 7.477244735E-01 -1.374675520E-02 1.676867990E-01
 7.601172924E-01 -1.218549628E-02 1.816739539E-01
 7.722689509E-01 -1.066100039E-02 2.020513173E-01
 7.839258909E-01 -9.273738600E-03 2.203717671E-01
 7.962953448E-01 -7.846828550E-03 2.347166649E-01
 8.075381517E-01 -6.606385112E-03 2.509317771E-01
 8.193176985E-01 -5.399088375E-03 2.612997018E-01
 8.314265609E-01 -4.179917742E-03 2.749849393E-01
 8.434052467E-01 -3.070457140E-03 2.914480925E-01
 8.556481600E-01 -2.048650524E-03 3.017197699E-01
 8.682705760E-01 -1.097786357E-03 3.104409152E-01
 8.807562590E-01 -2.618831058E-04 3.218387494E-01
 8.942079544E-01 4.734808754E-04 3.294310284E-01
 9.045718908E-01 9.138959576E-04 3.333756744E-01
 9.141557217E-01 1.248259679E-03 3.336858752E-01
 9.232595563E-01 1.482202322E-03 3.342186752E-01
 9.321538806E-01 1.634378801E-03 3.342722285E-01
 9.451901913E-01 1.732417149E-03 3.262846772E-01
 9.590893388E-01 1.679211971E-03 3.267519197E-01
 9.753266573E-01 1.417896943E-03 3.175655004E-01
 9.889656305E-01 1.010347391E-03 3.189206722E-01
 -5.000000000E-01 -1.000000000E+00 3.475992310E-02
 3.500000000E+00 -1.000000000E+00 9.044312312E-03
 3.500000000E+00 1.000000000E+00 1.140039461E-03
 -5.000000000E-01 1.000000000E+00 3.627592900E-02
 -5.000000000E-01 5.000000000E-01 7.227685965E-02
 -5.000000000E-01 2.752797990E-12 1.115288291E-01
 -5.000000000E-01 -5.000000000E-01 7.665078819E-02
 -9.421907698E-13 -1.000000000E+00 1.479384468E-02
 5.000000000E-01 -1.000000000E+00 -2.991721703E-02
 1.000000000E+00 -1.000000000E+00 -8.771945123E-03
 1.500000000E+00 -1.000000000E+00 2.148679258E-02
 2.000000000E+00 -1.000000000E+00 2.108463218E-02
 2.500000000E+00 -1.000000000E+00 1.445018456E-02
 3.000000000E+00 -1.000000000E+00 1.044731440E-02
 3.500000000E+00 -5.000000000E-01 9.510929162E-03
 3.500000000E+00 -2.752797990E-12 9.706440624E-03
 3.500000000E+00 5.000000000E-01 6.138759230E-03
 3.000000000E+00 1.000000000E+00 -4.299936996E-03
 2.500000000E+00 1.000000000E+00 -1.145145853E-02
 2.000000000E+00 1.000000000E+00 -2.354453529E-02
 1.500000000E+00 1.000000000E+00 -5.276730694E-02
 1.000000000E+00 1.000000000E+00 -9.386072032E-02
 5.000000000E-01 1.000000000E+00 -5.970177414E-02
 1.733724275E-12 1.000000000E+00 1.005374907E-02
 6.810639733E-01 -3.748510255E-02 6.198157406E-02
 7.950284176E-01 -2.137272508E-02 2.243515918E-01
 9.101789318E-01 -8.784134535E-03 3.208475677E-01
 7.080932565E-01 4.911267412E-02 -3.137797916E-01
 2.727110597E-01 5.694425165E-02 -3.038971915E-01
 2.748301790E-01 -6.617731290E-02 -4.579994522E-01
 8.135550503E-01 4.147914013E-02 -2.213877619E-01
 9.028228926E-01 2.766076652E-02 -1.242350760E-01
 6.143401709E-01 5.374149632E-02 -4.039888569E-01
 4.051889059E-01 5.769444726E-02 -3.956114165E-01
 5.385413717E-01 -5.463913945E-02 -2.458732361E-01
 4.521943112E-01 -6.546860949E-02 -5.145279267E-01
 5.006555740E-01 5.601909063E-02 -4.421075248E-01
 1.784812576E+00 -5.285296225E-01 2.114037498E-02
 1.722018017E+00 6.410744086E-01 -1.559315566E-02
 3.031175500E+00 2.156840269E-01 4.590251360E-03
 7.646743038E-01 -5.613694929E-01 -1.477051865E-02
 3.637682376E-01 -6.673224778E-02 -5.946359951E-01
 7.707616205E-01 5.473058545E-01 -1.418827802E-01
 2.734848239E+00 -5.326913746E-01 9.234953445E-03
 1.136254699E+00 6.509755676E-01 -6.144841922E-02
 9.871397281E-01 3.420942004E-01 -5.151222691E-02
 9.613631404E-01 1.760538840E-02 4.605765780E-02
 1.255624497E+00 -6.128184118E-01 4.251111354E-02
 1.504738816E+00 -2.682156239E-01 2.809810084E-02
 3.322257022E-01 6.144603294E-01 -8.339062098E-02
 1.034241024E-01 3.717449945E-02 -2.124319334E-01
 1.659530737E-01 4.270726572E-02 -2.441953833E-01
 2.500000000E-01 -5.669872981E-01 -5.140636423E-02
 6.715035098E-02 -3.978204223E-02 -1.169005843E-01
 1.231635534E-01 -5.032940158E-02 -2.281916833E-01
 1.802252672E-01 -5.727920433E-02 -3.139985684E-01
 2.240346834E+00 -5.768136729E-01 1.245899878E-02
 2.020502202E+00 -1.910976844E-01 8.623181499E-03
 2.420196726E+00 -1.843116525E-01 5.951413962E-03
 2.184621561E+00 1.582270389E-01 1.373888563E-03
 1.777416149E+00 1.257284322E-01 3.765278139E-03
 -2.680663483E-01 2.392159657E-01 1.206382887E-01
 -9.771608376E-02 6.166206220E-01 2.448508488E-02
 2.895284968E-02 3.246965563E-01 1.194272224E-02
 5.114549950E-02 2.976632123E-02 -1.604937332E-01
 -2.699239079E-01 -2.519432124E-01 1.289652560E-01
 -1.813706408E-01 -5.653190957E-01 5.100421443E-02
 2.201695034E+00 5.885738124E-01 -7.340506005E-03
 2.739780526E+00 6.017475440E-01 -2.113960296E-03
 -2.503034712E-01 3.038451681E-04 1.640833633E-01
 -1.413813048E-01 1.237313695E-01 1.746993711E-01
 -1.193478020E-01 -1.208635785E-01 1.987446157E-01
 3.230776160E-02 -3.711433614E-01 1.279845673E-02
 2.664440428E-01 -2.962893319E-01 -2.136186360E-01
 -1.254527540E-01 5.653972387E-04 2.385803379E-01
 -5.547383849E-02 6.431384965E-02 2.859983821E-01
 1.871630093E-02 1.520528208E-02 -9.953345314E-02
 -3.627004897E-02 1.756514826E-01 1.158420643E-01
 1.885834219E-02 9.232833528E-02 8.281805595E-02
 4.809697761E-02 1.649353641E-01 -1.696825209E-02
 1.896832698E-01 2.747127682E-01 -1.235012653E-01
 3.456364045E-01 5.502995049E-02 -3.569419309E-01
 3.120119247E-01 5.340361689E-02 -3.326430570E-01
 2.243387164E-01 4.998798968E-02 -2.772718264E-01
 1.531812264E-01 1.482896000E-01 -1.578880726E-01
 1.350872747E-01 4.196721110E-02 -2.285314852E-01
 8.551628571E-02 1.074323170E-01 -1.058638433E-01
 1.329215213E-01 9.557990988E-02 -1.853445601E-01
 -8.109367079E-03 5.219307716E-02 3.041923897E-01
 -5.862679879E-02 7.093709246E-03 4.013327163E-01
 2.175078389E-02 5.438834843E-02 6.150149830E-02
 3.461670016E-02 2.507995293E-02 -1.246220885E-01
 1.553469338E-01 4.320262487E-01 -5.085148055E-02
 3.158314088E-01 3.362743237E-01 -1.897034801E-01
 2.840532508E-01 2.089492984E-01 -2.318842770E-01
 4.303073447E-01 2.351198831E-01 -2.820637036E-01
 4.648718409E-01 4.162837526E-01 -2.153576829E-01
 5.565030631E-01 2.677154803E-01 -2.819972591E-01
 5.497642275E-01 5.664955303E-02 -4.411508479E-01
 5.020499137E-01 1.789996456E-01 -3.446190946E-01
 4.479628847E-01 6.540821723E-02 -4.159442359E-01
 6.171747307E-01 1.798570575E-01 -3.138527664E-01
 6.614501283E-01 4.986886789E-02 -3.607669401E-01
 6.824648680E-01 5.124334589E-02 -3.390063541E-01
 6.699186145E-01 2.694859302E-01 -2.418708124E-01
 7.267689599E-01 1.787837380E-01 -2.455165190E-01
 7.598970953E-01 4.270129383E-02 -2.669246329E-01
 4.142549426E-01 1.522899713E-01 -3.330319077E-01
 6.727710466E-01 1.293137646E-01 -3.050261110E-01
 5.753357153E-01 1.278382215E-01 -3.700111378E-01
 4.772627259E-01 1.184662475E-01 -3.801589446E-01
 4.726706418E-01 5.658877643E-02 -4.340155030E-01
 7.916365265E-01 2.444290557E-01 -1.845659801E-01
 8.503598557E-01 1.710503794E-01 -1.455075755E-01
 7.835596724E-01 1.228540226E-01 -2.166054068E-01
 6.224908999E-01 4.195997996E-01 -2.040797811E-01
 3.109360680E+00 -2.612747319E-01 8.394361636E-03
 -2.517545223E-02 2.636053142E-02 4.269497697E-01
 -1.757714594E-03 3.010327713E-02 2.825577335E-01
 1.146830877E-02 1.112906436E-02 -5.795689612E-02
 6.405158237E-03 9.131207682E-03 1.153736562E-01
 1.967667821E-02 3.336624426E-02 2.783331907E-03
 2.555605849E+00 2.105423871E-01 5.549537994E-04
 -9.332697505E-03 1.502492684E-02 7.202567181E-01
 2.602821316E-03 6.522084049E-03 4.967084764E-01
 8.957855050E-01 2.727191715E-01 -1.054831519E-01
 9.587822135E-01 1.959807378E-01 -3.926803663E-02
 1.063244057E+00 2.231971809E-01 1.300626820E-02
 1.082781417E+00 9.295243523E-02 7.695209103E-02
 1.198879288E+00 1.496534068E-01 3.792023938E-02
 1.161911590E+00 1.044852962E-02 7.310774273E-02
 1.335149506E+00 6.027133303E-02 3.258378253E-02
 1.367741511E+00 2.545810493E-01 1.337387386E-02
 9.045492588E-01 1.158365522E-01 -9.472150847E-02
 8.473761694E-01 3.244787935E-02 -1.987864943E-01
 8.757780880E-01 2.783447391E-02 -1.732501058E-01
 9.700508415E-01 9.987802273E-02 7.132933672E-03
 1.311638672E+00 -1.352267145E-01 4.964136248E-02
 1.131245177E+00 -1.259999902E-01 1.096485963E-01
 9.682606409E-01 -1.393714281E-02 2.969170220E-01
 1.213047480E+00 -2.532917307E-01 6.971702535E-02
 1.066984507E+00 -2.808178788E-01 1.024428108E-01
 1.008461577E+00 -1.710463969E-01 1.563004224E-01
 8.508432329E-01 -1.694326481E-02 2.811070751E-01
 9.204262145E-01 -2.757558172E-01 1.131522149E-01
 8.330929744E-01 -1.812437427E-01 1.424096013E-01
 7.283905027E-01 -2.793100092E-02 1.383694333E-01
 7.561956379E-01 -2.521498209E-02 1.714732129E-01
 7.667945543E-01 -2.807598576E-01 5.518810891E-02
 6.004372241E-01 -4.426612506E-02 -8.828670273E-02
 7.127743324E-01 -1.740957330E-01 4.246919354E-02
 6.497951101E-01 -2.549659929E-01 -2.904284207E-02
 6.019316468E-01 -1.769368727E-01 -8.941205296E-02
 5.362255096E-01 -2.776105576E-01 -1.542178580E-01
 4.814950376E-01 -1.852231139E-01 -2.992632164E-01
 4.990508060E-01 -5.754622783E-02 -3.655780478E-01
 4.700941756E-01 -6.285777682E-02 -4.579754931E-01
 6.541567671E-01 -1.192801455E-01 -2.200418798E-04
 6.400852131E-01 -4.226119794E-02 -5.268170867E-03
 7.835916763E-01 -1.139058738E-01 1.536382145E-01
 9.093931486E-01 -9.890063249E-02 2.276629077E-01
 1.001211481E+00 -4.724227823E-01 6.254791191E-02
 5.275446704E-01 -1.250123110E-01 -2.322952850E-01
 1.084508833E+00 2.601685915E-02 1.197671016E-01
 9.265394512E-01 6.618999524E-02 -5.773270969E-02
 9.239522368E-01 2.253983776E-02 -7.226418507E-02
 1.037570122E+00 -9.383193705E-02 1.815775529E-01
 4.191239310E-01 -2.733830579E-01 -2.746387650E-01
 3.736720936E-01 -1.799686074E-01 -4.040341489E-01
 3.179689219E-01 -7.029156662E-02 -5.229321663E-01
 4.097313457E-01 -6.831686094E-02 -5.910731491E-01
 4.863337029E-01 -4.318323836E-01 -1.422123695E-01
 4.317657633E-01 -1.312890979E-01 -4.411524307E-01
 8.811404376E-01 6.938152998E-02 -1.393675432E-01
 8.446563213E-01 1.048804532E-01 -1.701342110E-01
 8.069743211E-01 8.118841044E-02 -2.128155795E-01
 7.869894738E-01 4.121454117E-02 -2.452412230E-01
 1.479992801E+00 -7.022653419E-02 2.603085122E-02
 7.663192640E-01 8.343713589E-02 -2.476984320E-01
 7.285547017E-01 1.060050974E-01 -2.712785213E-01
 6.930329360E-01 8.796832119E-02 -3.114531833E-01
 6.572171076E-01 8.790740644E-02 -3.416407743E-01
 6.356197195E-01 5.180570140E-02 -3.837336500E-01
 6.232728309E-01 1.162652709E-01 -3.504295513E-01
 5.948618210E-01 9.350357755E-02 -3.877070925E-01
 5.734889557E-01 5.675430648E-02 -4.278727564E-01
 5.571030020E-01 9.092248802E-02 -4.081407082E-01
 5.228839293E-01 1.191894155E-01 -3.863896527E-01
 5.214030428E-01 8.140514194E-02 -4.212408022E-01
 5.270822058E-01 5.918764906E-02 -4.402392985E-01
 4.905537064E-01 8.709373079E-02 -4.119240458E-01
 4.594054734E-01 9.092336860E-02 -4.011135677E-01
 4.128375535E-01 1.012072709E-01 -3.654362882E-01
 6.257198469E-01 8.316726646E-02 -3.719562726E-01
 9.713266029E-01 5.552941634E-02 4.653702680E-02
 8.405023668E-01 6.883356255E-02 -1.845128368E-01
 1.715619369E+00 -1.408866297E-01 1.527797608E-02
 5.898300212E-01 5.680600305E-02 -4.180297025E-01
 8.639080521E-01 3.166335580E-02 -1.852285002E-01
 8.571921733E-01 4.817934297E-02 -1.806535152E-01
 8.333200656E-01 4.495404384E-02 -2.033166372E-01
 5.384687816E-01 5.534438955E-02 -4.444446733E-01
 1.012024021E+00 7.327333878E-02 9.214937231E-02
 1.035672656E+00 3.283522241E-02 1.441698079E-01
 1.000131452E+00 4.134288270E-02 1.241969860E-01
 9.460889620E-01 3.871797914E-02 -1.935337826E-03
 9.849449312E-01 1.225962727E-02 1.719577408E-01
 8.882221695E-01 2.887765201E-02 -1.521125531E-01
 8.987823735E-01 4.523417598E-02 -1.226537800E-01
 9.202792721E-01 3.654634639E-02 -7.584873493E-02
 8.774532084E-01 4.025659427E-02 -1.609131445E-01
 7.744026147E-01 4.016655814E-02 -2.567774974E-01
 7.782666515E-01 5.710751422E-02 -2.457675753E-01
 7.375865876E-01 6.426692475E-02 -2.787757490E-01
 7.338826447E-01 4.390060337E-02 -2.914736962E-01
 7.458165666E-01 4.576520045E-02 -2.801308527E-01
 8.005130965E-01 5.389238656E-02 -2.279586839E-01
 8.214458603E-01 3.809777126E-01 -1.448223350E-01
 7.143316003E-01 6.930006276E-02 -2.975849302E-01
 7.225973627E-01 4.932447818E-02 -2.996266516E-01
 6.967091106E-01 6.138155056E-02 -3.197791494E-01
 6.766314148E-01 6.919381712E-02 -3.342280996E-01
 5.425818584E-01 6.866108289E-02 -4.300468332E-01
 5.612760200E-01 6.769687798E-02 -4.260751732E-01
 1.158663482E+00 3.738772241E-01 -1.130059237E-02
 1.393777325E+00 4.829412094E-01 -1.062046970E-02
 1.626247730E+00 3.326724563E-01 -5.080539018E-04
 1.056138457E+00 -2.647693306E-02 1.450217718E-01
 1.009382948E+00 -5.084524729E-02 2.158099371E-01
 9.925294952E-01 -2.057168312E-02 2.912184896E-01
 9.691504072E-01 -4.474279873E-02 2.628103163E-01
 9.373712072E-01 -9.331554901E-03 3.179892310E-01
 9.505821120E-01 -8.866799316E-03 3.173666619E-01
 9.422930133E-01 -2.535303816E-02 2.975266568E-01
 1.015075567E+00 -1.799106373E-02 2.377150691E-01
 9.668486277E-01 -9.516106033E-02 2.148031155E-01
 1.186613472E+00 -4.232611356E-01 7.150167094E-02
 9.674918282E-01 5.234802180E-01 -7.726707478E-02
 5.129239067E-01 6.038229904E-02 -4.396708300E-01
 5.035670955E-01 7.118664867E-02 -4.289374835E-01
 6.491311976E-01 5.206267620E-02 -3.710389751E-01
 6.422106361E-01 6.735320172E-02 -3.674350786E-01
 6.251888598E-01 6.281768093E-02 -3.868624388E-01
 6.045727002E-01 6.816024057E-02 -3.985810251E-01
 9.141871859E-01 2.325815674E-02 -1.022544969E-01
 5.000000000E-01 -7.113248654E-01 -6.258659342E-02
 4.604142455E-01 5.835379472E-02 -4.280186295E-01
 4.339849681E-01 8.561604917E-02 -3.939284749E-01
 4.288456104E-01 6.319280999E-02 -4.091154550E-01
 6.019773506E-01 5.287510653E-02 -4.134519709E-01
 -1.285025699E-01 2.650717965E-01 9.910793662E-02
 5.829975046E-01 6.266410076E-01 -1.512595419E-01
 9.367538751E-01 2.343103084E-02 -3.083058523E-02
 6.486992424E-01 -4.215950396E-01 -3.928358440E-02
 4.130413481E-01 7.368098648E-02 -3.887999448E-01
 3.827642756E-01 5.621412209E-02 -3.812579399E-01
 3.835284212E-01 8.722638012E-02 -3.606303102E-01
 3.716198348E-01 5.358007932E-02 -3.747472481E-01
 3.605498944E-01 5.569539763E-02 -3.660347473E-01
 3.547538260E-01 6.962642889E-02 -3.533440210E-01
 3.328493121E-01 6.808386818E-02 -3.386409673E-01
 3.430445559E-01 9.287349327E-02 -3.296288886E-01
 3.120573617E-01 8.854491502E-02 -3.116699875E-01
 3.725327784E-01 1.237158499E-01 -3.279525725E-01
 2.912362800E-01 7.138727363E-02 -3.084979715E-01
 2.853428441E-01 9.579378022E-02 -2.880995608E-01
 2.636386276E-01 8.039181425E-02 -2.833035432E-01
 2.518115156E-01 1.193870699E-01 -2.559040886E-01
 2.478170222E-01 5.089604665E-02 -2.908259441E-01
 2.370445085E-01 8.513771620E-02 -2.630751223E-01
 2.033313479E-01 1.122346628E-01 -2.261528425E-01
 1.851461519E-01 8.400519904E-02 -2.233814895E-01
 2.005449447E-01 4.817224074E-02 -2.625325904E-01
 2.106813211E-01 1.806371944E-01 -1.880873912E-01
 3.123604458E-01 1.293144951E-01 -2.893333122E-01
 3.594265349E-01 1.834238796E-01 -2.855809427E-01
 1.890328053E-01 4.418872821E-02 -2.570219709E-01
 2.596862951E-01 5.068298812E-02 -2.992582118E-01
 3.743983190E-01 6.524138487E-02 -3.686918967E-01
 3.924295923E-01 6.687951577E-02 -3.802328697E-01
 2.858116660E-03 1.811998137E-02 1.918775029E-01
 3.226626325E-03 1.145091545E-02 1.297318114E-01
 7.548436274E-03 1.230265168E-02 6.146816593E-02
 1.173993316E-02 1.511072764E-02 1.691262405E-03
 1.242558300E-02 2.215312119E-02 7.921295544E-02
 2.372721744E-02 2.079485116E-02 -9.252938124E-02
 1.664621030E-01 1.027915489E-01 -2.039033621E-01
 1.592909391E-01 7.349825608E-02 -2.149741544E-01
 1.291462782E-01 6.401907555E-02 -2.017950781E-01
 9.925565193E-02 7.249166475E-02 -1.687482596E-01
 7.918494617E-02 3.414588731E-02 -1.956338833E-01
 6.749530424E-02 3.038937890E-02 -1.934208370E-01
 6.633020038E-02 4.521949089E-02 -1.534538848E-01
 8.811801872E-02 4.802328681E-02 -1.739338703E-01
 9.076005650E-02 3.390596728E-02 -2.036724828E-01
 1.063024347E-01 5.269968187E-02 -1.943636201E-01
 1.196227171E-01 4.258034835E-02 -2.188067914E-01
 4.871920700E-01 6.253600993E-02 -4.334140364E-01
 8.369183802E-01 -7.263225921E-01 -1.130425518E-02
 1.778506503E-01 4.470729694E-02 -2.497472647E-01
 1.662012576E-01 5.639844689E-02 -2.355214357E-01
 1.508461665E-01 4.990026109E-02 -2.304102252E-01
 2.116527236E-01 6.756386236E-02 -2.545803752E-01
 9.780126222E-01 2.584833437E-02 8.662795264E-02
 1.002681433E+00 2.003743526E-02 2.044439151E-01
 1.017598258E+00 7.416745099E-03 1.842360725E-01
 6.247631981E-01 5.029477252E-02 -3.961976866E-01
 3.937262328E-01 5.430018684E-02 -3.900700390E-01
 2.353618360E-01 6.236345862E-02 -2.775167224E-01
 3.003018126E-01 5.483627237E-02 -3.237418373E-01
 9.131830956E-01 -1.529644566E-01 1.794417302E-01
 8.495721461E-01 -9.516676677E-02 2.077622792E-01
 8.905970497E-01 -5.463009386E-02 2.619498305E-01
 8.880417531E-01 -1.138694065E-02 3.109430531E-01
 7.980795090E-01 -6.856276109E-02 1.889082630E-01
 7.544312666E-01 -7.112576044E-02 1.412258233E-01
 7.226441548E-01 -1.088293477E-01 8.905288364E-02
 7.097913772E-01 -6.551140244E-02 9.258809852E-02
 7.056125959E-01 -3.081269568E-02 1.001562144E-01
 7.761845846E-01 -4.671058059E-02 1.834079032E-01
 9.292795058E-01 -5.924291083E-02 2.630455177E-01
 9.173798548E-01 -3.604551059E-02 2.853419093E-01
 9.232639434E-01 -1.708462087E-02 3.106004066E-01
 9.008068982E-01 -2.374101565E-02 3.011870234E-01
 8.800713958E-01 -2.763694808E-02 2.907271197E-01
 8.565108835E-01 -4.136931371E-02 2.612773645E-01
 8.251415168E-01 -1.544414501E-02 2.584467094E-01
 8.236822851E-01 -4.680575619E-02 2.326657529E-01
 7.984090740E-01 -4.015521256E-02 2.129895001E-01
 8.105545367E-01 -2.514296967E-02 2.361723004E-01
 7.795618614E-01 -2.619247233E-02 2.022394047E-01
 8.661118812E-01 -1.936998308E-02 2.878445085E-01
 8.369203217E-01 -1.389461323E-02 2.731397872E-01
 7.343632625E-01 -5.041728674E-02 1.336446658E-01
 6.974982889E-01 -4.368535644E-02 8.207613115E-02
 6.787774788E-01 -5.463851239E-02 5.437470838E-02
 7.547867270E-01 -4.365834321E-02 1.589603309E-01
 6.653910345E-01 -4.122996186E-02 3.768464843E-02
 6.537468234E-01 -5.677609141E-02 1.244094297E-02
 6.289025486E-01 -6.047359739E-02 -2.891697405E-02
 6.769502226E-01 -8.087829724E-02 3.696081977E-02
 6.065182156E-01 -1.018813990E-01 -8.234035367E-02
 5.659333000E-01 -9.433160184E-02 -1.588745527E-01
 5.766587334E-01 -5.184933260E-02 -1.397989766E-01
 6.069197361E-01 -7.178563132E-02 -7.476964276E-02
 6.175151913E-01 -4.826537282E-02 -5.952452912E-02
 5.828211411E-01 -7.314359453E-02 -1.226396729E-01
 5.635471768E-01 -6.453288474E-02 -1.666067953E-01
 5.449312123E-01 -7.584196459E-02 -2.206342837E-01
 5.098511286E-01 -9.474800230E-02 -3.008685490E-01
 5.218082233E-01 -6.974519247E-02 -2.823091098E-01
 8.989299843E-01 -7.697467961E-03 3.188420929E-01
 5.679873108E-01 -1.369129190E-01 -1.447930805E-01
 5.914022593E-01 -5.925566523E-02 -1.058149848E-01
 7.163923100E-01 -3.966666984E-02 1.126989547E-01
 9.269914222E-01 -5.950348292E-03 3.251705516E-01
 9.193809460E-01 -5.998990761E-03 3.254566385E-01
 6.933930489E-01 -3.091584309E-02 8.204905068E-02
 5.890441010E-01 -4.544995071E-02 -1.107567441E-01
 3.133974596E+00 6.339745962E-01 8.147135243E-04
 2.870526881E-01 5.135164652E-02 -3.169435202E-01
 8.203611591E-01 -4.023805979E-01 4.391910087E-02
 8.338651931E-01 -2.818463296E-02 2.561149444E-01
 5.804724201E-01 7.255995658E-02 -4.110546647E-01
 7.428787687E-01 -2.937105674E-02 1.548539483E-01
 8.246247280E-01 3.551869022E-02 -2.144817417E-01
 3.133974596E+00 -6.339745962E-01 8.590481306E-03
 3.430504474E-01 2.511537798E-01 -2.492355293E-01
 2.363620421E-01 4.796887319E-02 -2.857033314E-01
 6.958731204E-01 4.701622017E-02 -3.283127716E-01
 3.123660573E-01 6.544519349E-02 -3.263813550E-01
 7.991105119E-01 3.841858686E-02 -2.359894746E-01
 4.174323675E-01 5.697000436E-02 -4.050858165E-01
 6.474926039E-02 7.382180740E-02 -1.086251096E-01
 1.947754669E+00 3.615102459E-01 -4.163544090E-03
 6.270197804E-01 -4.056320521E-02 -2.493485397E-02
 3.234772531E-01 5.415511147E-02 -3.406651438E-01
 -1.049139034E-01 -2.976308158E-01 9.483536290E-02
 1.376507214E-02 -1.788848311E-01 8.753934361E-02
 2.914661187E-02 -2.727510191E-02 3.090329501E-02
 -3.625088142E-02 -9.698865116E-02 2.800423332E-01
 1.377008764E-01 -2.639550943E-01 -1.080507501E-01
 2.246106781E-01 -6.229136204E-02 -3.787799158E-01
 1.222256881E-01 -1.528469904E-01 -1.246599908E-01
 2.127638894E-01 -1.950798761E-01 -2.483072196E-01
 1.880550203E-01 -1.248477328E-01 -2.653356418E-01
 2.597762956E-01 -1.413205697E-01 -3.457138872E-01
 6.042393027E-02 -1.143201661E-01 -3.719232881E-03
 1.390237488E-01 -1.019037224E-01 -2.038484283E-01
 1.549452228E-01 -5.221133588E-02 -2.773022018E-01
 9.548523861E-02 -8.872625782E-02 -1.339778851E-01
 8.841617743E-02 -4.717786886E-02 -1.626865059E-01
 1.570210387E-02 -8.787743424E-02 1.737554039E-01
 -2.483377588E-02 -4.902813077E-02 3.483360786E-01
 3.098054447E-01 -2.070783616E-01 -3.311152466E-01
 2.233259860E-01 -1.013905978E-01 -3.366101676E-01
 2.532128467E-01 -6.144507967E-02 -4.265247679E-01
 5.668306937E-02 -7.747019043E-02 -2.599516665E-02
 1.907252776E-01 -8.784092285E-02 -3.001011386E-01
 2.015441539E-01 -5.967739645E-02 -3.464987678E-01
 3.155653933E-02 -5.727113560E-02 8.937275279E-02
 5.070753239E-02 -3.337353297E-02 -7.315189860E-02