TITLE     = "Visualization of the solution"
VARIABLES = "x"
"y"
"Pressure_Coefficient"
ZONE T="Zone"
 STRANDID=0, SOLUTIONTIME=0
 Nodes=696, Elements=1177, ZONETYPE=FEQuadrilateral
 DATAPACKING=POINT
 DT=(DOUBLE DOUBLE DOUBLE )
 1.000191689E+00 5.328794359E-04 2.942171811E-01
 9.860876799E-01 2.760779345E-03 2.239093747E-01
 9.741068482E-01 4.581316840E-03 1.473614117E-01
 9.616823792E-01 6.533020176E-03 9.058686767E-02
 9.494503140E-01 8.380485699E-03 5.797176045E-02
 9.389731884E-01 9.946365841E-03 2.328006193E-02
 9.288060069E-01 1.146910992E-02 -1.798752011E-02
 9.164043665E-01 1.327945385E-02 -4.741987768E-02
 9.041506648E-01 1.491443999E-02 -7.243368543E-02
 8.906387687E-01 1.671394147E-02 -9.951924952E-02
 8.772941232E-01 1.837137528E-02 -1.189077026E-01
 8.651255965E-01 1.984151639E-02 -1.335933458E-01
 8.518903852E-01 2.133815736E-02 -1.452768961E-01
 8.393335938E-01 2.274205908E-02 -1.528617674E-01
 8.266261220E-01 2.408314310E-02 -1.620530222E-01
 8.130190372E-01 2.553795464E-02 -1.747736754E-01
 7.998234630E-01 2.688789181E-02 -1.853856783E-01
 7.885487676E-01 2.804112807E-02 -1.944522023E-01
 7.760611176E-01 2.927524969E-02 -2.069626658E-01
 7.638084888E-01 3.049751185E-02 -2.256332152E-01
 7.511947155E-01 3.171753138E-02 -2.391582910E-01
 7.377069592E-01 3.296962753E-02 -2.503314477E-01
 7.265398502E-01 3.398590907E-02 -2.638393995E-01
 7.147882581E-01 3.504841030E-02 -2.767720159E-01
 7.027847171E-01 3.608605638E-02 -2.916987836E-01
 6.892548800E-01 3.724287450E-02 -3.106435010E-01
 6.758214831E-01 3.833598644E-02 -3.266650817E-01
 6.646593809E-01 3.920761496E-02 -3.402110752E-01
 6.525112987E-01 4.011400416E-02 -3.545933990E-01
 6.420502067E-01 4.087302461E-02 -3.677010434E-01
 6.296355128E-01 4.172209650E-02 -3.802057068E-01
 6.183679104E-01 4.244980961E-02 -3.945101167E-01
 6.070782542E-01 4.314518720E-02 -4.077130791E-01
 5.943195820E-01 4.386495799E-02 -4.197972097E-01
 5.819641948E-01 4.450855404E-02 -4.305483451E-01
 5.680180788E-01 4.515932128E-02 -4.409798275E-01
 5.545504689E-01 4.571592435E-02 -4.499413783E-01
 5.411508679E-01 4.619008303E-02 -4.593119901E-01
 5.299924016E-01 4.653975368E-02 -4.619329807E-01
 5.174224973E-01 4.684893414E-02 -4.614806158E-01
 5.043867230E-01 4.711678997E-02 -4.667200861E-01
 4.939925373E-01 4.729035124E-02 -4.675314559E-01
 4.812278152E-01 4.742898047E-02 -4.643697463E-01
 4.689499736E-01 4.749314114E-02 -4.615025424E-01
 4.551008046E-01 4.751255363E-02 -4.531229525E-01
 4.404468834E-01 4.741819575E-02 -4.437516855E-01
 4.272415340E-01 4.728735983E-02 -4.365089994E-01
 4.138205051E-01 4.708735645E-02 -4.291846096E-01
 4.017073512E-01 4.685774073E-02 -4.210737732E-01
 3.886215389E-01 4.654526711E-02 -4.131683570E-01
 3.768271506E-01 4.622223228E-02 -4.055073150E-01
 3.658865690E-01 4.587921128E-02 -3.964048827E-01
 3.529201448E-01 4.542671517E-02 -3.883467177E-01
 3.412985206E-01 4.497871548E-02 -3.780205626E-01
 3.296041191E-01 4.448439181E-02 -3.707063173E-01
 3.199583292E-01 4.405578226E-02 -3.613955093E-01
 3.088814318E-01 4.351765290E-02 -3.520956181E-01
 2.967179120E-01 4.290168732E-02 -3.425176761E-01
 2.835351229E-01 4.217604920E-02 -3.330967477E-01
 2.708080709E-01 4.143660888E-02 -3.253641618E-01
 2.587652206E-01 4.069741443E-02 -3.154924232E-01
 2.461750656E-01 3.987061605E-02 -3.061120129E-01
 2.330980748E-01 3.897981346E-02 -2.994123588E-01
 2.212509364E-01 3.812116385E-02 -2.916125474E-01
 2.098280042E-01 3.726478666E-02 -2.862696888E-01
 1.986260265E-01 3.637947887E-02 -2.787078894E-01
 1.862914562E-01 3.535838425E-02 -2.741190870E-01
 1.744850278E-01 3.433924913E-02 -2.715453670E-01
 1.626621485E-01 3.327365965E-02 -2.651323320E-01
 1.506301612E-01 3.212877363E-02 -2.619216725E-01
 1.396397352E-01 3.103959747E-02 -2.591924826E-01
 1.284815669E-01 2.987583727E-02 -2.573631204E-01
 1.172038317E-01 2.863891423E-02 -2.581692598E-01
 1.062804759E-01 2.737833187E-02 -2.606618171E-01
 9.636523575E-02 2.616866864E-02 -2.642335696E-01
 8.536851406E-02 2.474502102E-02 -2.626719994E-01
 7.389755547E-02 2.314439416E-02 -2.668445679E-01
 6.439449638E-02 2.172260173E-02 -2.681044323E-01
 5.538475886E-02 2.026019990E-02 -2.635286587E-01
 4.659985751E-02 1.870442927E-02 -2.592672397E-01
 3.856441379E-02 1.712782681E-02 -2.683800309E-01
 3.195174783E-02 1.569509134E-02 -2.719760568E-01
 2.601556852E-02 1.425234228E-02 -2.652625204E-01
 2.166876756E-02 1.307464018E-02 -2.740702060E-01
 1.773307845E-02 1.189161930E-02 -2.687784286E-01
 1.504713669E-02 1.099354401E-02 -2.472787671E-01
 1.275754627E-02 1.015454810E-02 -2.145030625E-01
 1.109933481E-02 9.495370090E-03 -1.831806347E-01
 9.455265477E-03 8.784786798E-03 -1.901202191E-01
 7.812527940E-03 8.006692864E-03 -2.138807624E-01
 5.691670347E-03 6.859972607E-03 -1.895259225E-01
 3.904639743E-03 5.721152294E-03 -1.210856292E-01
 2.410538262E-03 4.565775394E-03 1.913780820E-01
 8.530955529E-04 3.017753595E-03 3.989994898E-01
 -1.072487648E-04 1.686322037E-03 3.242137889E-01
 -6.719512166E-04 5.727964453E-04 9.785759010E-01
 -1.115592197E-03 -9.214668535E-04 9.795556717E-01
 -1.205840730E-03 -2.993089147E-03 8.942144443E-01
 -7.218268001E-04 -5.223756190E-03 1.073836965E+00
 5.078552058E-04 -7.822701707E-03 8.405911758E-01
 2.371771028E-03 -1.044791378E-02 7.944302617E-01
 4.223017022E-03 -1.248611137E-02 7.314787144E-01
 6.460280623E-03 -1.457110047E-02 6.634215932E-01
 8.062410168E-03 -1.589565910E-02 5.935483901E-01
 1.001530793E-02 -1.737928204E-02 5.203528485E-01
 1.239122264E-02 -1.903552189E-02 4.687555749E-01
 1.547321491E-02 -2.098417655E-02 3.965369370E-01
 1.889734715E-02 -2.295547538E-02 3.253813842E-01
 2.304353379E-02 -2.512500808E-02 2.364833553E-01
 2.849814668E-02 -2.770352177E-02 1.800913801E-01
 3.394029662E-02 -3.004109859E-02 1.028551338E-01
 4.108889028E-02 -3.281075880E-02 3.992267046E-02
 4.842158407E-02 -3.540122136E-02 -2.520027331E-02
 5.700650811E-02 -3.814684972E-02 -8.434222509E-02
 6.562472135E-02 -4.067565128E-02 -1.350002404E-01
 7.626280189E-02 -4.352110252E-02 -1.725371114E-01
 8.611425012E-02 -4.593842104E-02 -2.199670839E-01
 9.736157954E-02 -4.848882556E-02 -2.590658360E-01
 1.084498093E-01 -5.080689117E-02 -2.949293497E-01
 1.211320981E-01 -5.326955020E-02 -3.277510938E-01
 1.325391829E-01 -5.531769618E-02 -3.613615762E-01
 1.431840658E-01 -5.710424855E-02 -3.852781770E-01
 1.543931365E-01 -5.887056142E-02 -4.077103619E-01
 1.660256237E-01 -6.059510633E-02 -4.328650174E-01
 1.772699952E-01 -6.214498356E-02 -4.566850923E-01
 1.888884455E-01 -6.363330036E-02 -4.828046907E-01
 1.991263926E-01 -6.486403942E-02 -5.058852366E-01
 2.101616263E-01 -6.610637903E-02 -5.276627181E-01
 2.223609537E-01 -6.737620384E-02 -5.504923292E-01
 2.342917323E-01 -6.851656735E-02 -5.763465182E-01
 2.462160736E-01 -6.954582036E-02 -6.033522333E-01
 2.587442994E-01 -7.052794844E-02 -6.310863398E-01
 2.704772353E-01 -7.133659720E-02 -6.625340870E-01
 2.833887041E-01 -7.210657001E-02 -6.911303341E-01
 2.963996530E-01 -7.276064903E-02 -7.187763535E-01
 3.088365197E-01 -7.325732708E-02 -7.475537377E-01
 3.205976486E-01 -7.364702225E-02 -7.801563445E-01
 3.324783146E-01 -7.389523089E-02 -8.130497914E-01
 3.424794078E-01 -7.400570065E-02 -8.375413449E-01
 3.540004194E-01 -7.405413687E-02 -8.584955301E-01
 3.655183613E-01 -7.398582250E-02 -8.877212775E-01
 3.765923977E-01 -7.379285246E-02 -9.143530167E-01
 3.884663582E-01 -7.348208874E-02 -9.393143131E-01
 4.003945291E-01 -7.302003354E-02 -9.478590930E-01
 4.123260975E-01 -7.244568318E-02 -9.391109466E-01
 4.258062541E-01 -7.162890583E-02 -9.026388894E-01
 4.384343624E-01 -7.070121169E-02 -8.359295521E-01
 4.526937604E-01 -6.952276826E-02 -7.570797395E-01
 4.662089646E-01 -6.821948290E-02 -6.873954638E-01
 4.789793193E-01 -6.687916070E-02 -6.205173752E-01
 4.911286235E-01 -6.547242403E-02 -5.584455229E-01
 5.027161837E-01 -6.403791159E-02 -4.962417331E-01
 5.159482360E-01 -6.234745681E-02 -4.450570965E-01
 5.291790962E-01 -6.050968915E-02 -3.968306797E-01
 5.415008664E-01 -5.873219296E-02 -3.448845244E-01
 5.561605096E-01 -5.655618757E-02 -3.002782727E-01
 5.684925318E-01 -5.466386303E-02 -2.625802103E-01
 5.820518732E-01 -5.251125246E-02 -2.244249054E-01
 5.952609777E-01 -5.039060488E-02 -1.888198215E-01
 6.077577472E-01 -4.834837839E-02 -1.595029586E-01
 6.197524071E-01 -4.638324305E-02 -1.327388487E-01
 6.328820586E-01 -4.418731481E-02 -1.053523853E-01
 6.451445818E-01 -4.210713133E-02 -7.259688423E-02
 6.590203643E-01 -3.980656341E-02 -4.724287795E-02
 6.728141904E-01 -3.746071458E-02 -2.452504470E-02
 6.853255630E-01 -3.532358259E-02 6.511004679E-03
 6.979032755E-01 -3.320911154E-02 3.042837631E-02
 7.127479315E-01 -3.071158007E-02 5.086294195E-02
 7.258067727E-01 -2.850117348E-02 7.675560684E-02
 7.371094823E-01 -2.660243772E-02 9.862855211E-02
 7.490176558E-01 -2.462607808E-02 1.227541582E-01
 7.625454664E-01 -2.243633382E-02 1.410949316E-01
 7.755758166E-01 -2.030220628E-02 1.608432510E-01
 7.879000902E-01 -1.835582033E-02 1.834009753E-01
 7.999006510E-01 -1.642706245E-02 2.062244738E-01
 8.113014102E-01 -1.474203821E-02 2.231356338E-01
 8.220314384E-01 -1.313351374E-02 2.338089716E-01
 8.333922625E-01 -1.145905722E-02 2.575255454E-01
 8.450160027E-01 -9.819235653E-03 2.791240421E-01
 8.568629622E-01 -8.242471144E-03 2.958640727E-01
 8.683150411E-01 -6.810130551E-03 3.135108540E-01
 8.800289631E-01 -5.451574456E-03 3.270895427E-01
 8.925687075E-01 -4.096024204E-03 3.436816783E-01
 9.027118087E-01 -3.147677053E-03 3.556564982E-01
 9.130616188E-01 -2.281671390E-03 3.598799158E-01
 9.233288169E-01 -1.542717335E-03 3.663715162E-01
 9.338521957E-01 -9.078501607E-04 3.664341360E-01
 9.477390051E-01 -2.569448261E-04 3.686238443E-01
 9.625532627E-01 2.203075710E-04 3.602286515E-01
 9.777343869E-01 4.770880914E-04 3.676076430E-01
 9.907108545E-01 5.298393080E-04 3.715612028E-01
 -5.000000000E-01 -1.000000000E+00 4.668708219E-02
 3.500000000E+00 -1.000000000E+00 9.128122512E-03
 3.500000000E+00 1.000000000E+00 4.654238405E-03
 -5.000000000E-01 1.000000000E+00 4.503652005E-02
 -5.000000000E-01 5.000000000E-01 9.178949223E-02
 -5.000000000E-01 2.752797990E-12 1.420896324E-01
 -5.000000000E-01 -5.000000000E-01 9.637895294E-02
 -9.421907698E-13 -1.000000000E+00 1.522827612E-02
 5.000000000E-01 -1.000000000E+00 -5.857380804E-02
 1.000000000E+00 -1.000000000E+00 -4.700986386E-02
 1.500000000E+00 -1.000000000E+00 2.084282613E-03
 2.000000000E+00 -1.000000000E+00 1.199779234E-02
 2.500000000E+00 -1.000000000E+00 9.652547456E-03
 3.000000000E+00 -1.000000000E+00 8.290526631E-03
 3.500000000E+00 -5.000000000E-01 1.070554726E-02
 3.500000000E+00 -2.752797990E-12 1.133475194E-02
 3.500000000E+00 5.000000000E-01 8.934469797E-03
 3.000000000E+00 1.000000000E+00 -1.340577860E-04
 2.500000000E+00 1.000000000E+00 -5.238537054E-03
 2.000000000E+00 1.000000000E+00 -1.385234575E-02
 1.500000000E+00 1.000000000E+00 -4.040157844E-02
 1.000000000E+00 1.000000000E+00 -8.123480786E-02
 5.000000000E-01 1.000000000E+00 -5.195594001E-02
 1.733724275E-12 1.000000000E+00 1.881967665E-02
 7.077436972E-01 5.051424482E-02 -2.804649092E-01
 6.678545161E-01 -5.002479718E-02 -3.399389436E-02
 7.733624869E-01 -3.563616007E-02 1.522211253E-01
 8.870060034E-01 -1.423405013E-02 3.230726889E-01
 5.774456445E-01 -7.090324843E-02 -2.358275588E-01
 2.778359566E-01 5.440586817E-02 -3.214679128E-01
 8.068104741E-01 3.832027407E-02 -1.767273199E-01
 8.988700769E-01 2.689221034E-02 -7.796806687E-02
 2.730674475E-01 -8.405531141E-02 -6.436454449E-01
 6.026216118E-01 5.850620552E-02 -3.986321528E-01
 4.191413334E-01 6.193960536E-02 -4.194386577E-01
 5.115970086E-01 6.027652543E-02 -4.520905342E-01
 4.032719537E-01 -8.455094204E-02 -9.140189026E-01
 1.833219486E+00 -6.047431218E-01 1.552402112E-02
 1.777467460E+00 6.395297222E-01 -6.819278227E-03
 3.031198568E+00 2.156734505E-01 6.587915014E-03
 7.500000000E-01 5.669872981E-01 -1.303595770E-01
 7.702037555E-01 -5.552091118E-01 -4.764027181E-02
 4.859474707E-01 -7.928002081E-02 -5.683935593E-01
 3.563815991E-01 -6.243175391E-01 -1.322580369E-01
 1.261145468E-01 -6.514546268E-02 -3.214866764E-01
 1.908433376E-01 -7.366180931E-02 -4.690227554E-01
 2.734790693E+00 -5.327488036E-01 7.587355017E-03
 1.247351215E+00 -6.683615433E-01 2.476220424E-02
 1.504796272E+00 -2.690851650E-01 2.631512236E-02
 1.167815066E+00 6.144367920E-01 -3.712497159E-02
 9.921589363E-01 3.389994077E-01 -2.235610210E-02
 3.046541340E-01 6.388073457E-01 -6.681693313E-02
 9.407665395E-02 3.722887348E-02 -2.413507965E-01
 1.676515562E-01 4.403654031E-02 -2.575628455E-01
 2.248364196E+00 -5.895949721E-01 9.354482927E-03
 1.981250528E+00 -2.204651790E-01 8.958882009E-03
 2.412785669E+00 -1.882839197E-01 5.058006159E-03
 2.184425901E+00 1.577683582E-01 3.683144723E-03
 1.788568680E+00 1.156899538E-01 7.456126728E-03
 -2.728176555E-01 2.317150966E-01 1.507454608E-01
 -1.017149712E-01 6.232719565E-01 3.626579894E-02
 3.698507165E-02 3.266407374E-01 1.110551208E-02
 4.733505086E-02 2.922055549E-02 -2.258095637E-01
 -2.717429016E-01 -2.372310006E-01 1.638292314E-01
 -1.461859521E-01 -6.030996128E-01 4.276130936E-02
 1.373061026E-01 -3.760026233E-01 -8.490146486E-02
 2.238965064E+00 5.534224291E-01 -2.005634403E-03
 2.746002377E+00 5.958845157E-01 1.472062694E-03
 -2.349646089E-01 -5.080351180E-03 2.082602992E-01
 -1.260632307E-01 1.255353360E-01 2.142300911E-01
 -1.102329308E-01 -1.283110595E-01 2.522822947E-01
 6.933851905E-02 -5.341003511E-02 -1.151386259E-01
 3.559508212E-02 -3.902154787E-02 1.050033455E-01
 -7.429919200E-02 -3.225486262E-01 1.002769822E-01
 2.715555723E-03 -1.823269083E-01 1.497855130E-01
 1.552893403E-01 -2.113810046E-01 -2.255696066E-01
 3.527719713E-01 -8.735052187E-02 -8.276828679E-01
 3.128728272E-01 -8.727090606E-02 -7.298158866E-01
 -2.336494465E-02 -1.003767110E-01 3.061514289E-01
 -1.097567636E-01 -2.416201635E-02 3.400581409E-01
 -6.923717924E-02 5.400786178E-02 3.366934940E-01
 3.103543570E-02 -1.185393388E-01 1.460905000E-01
 3.109328420E+00 -2.613249149E-01 8.902363127E-03
 -5.104323261E-02 -4.015995980E-02 4.605025180E-01
 -5.011886220E-02 1.004743915E-02 5.442903703E-01
 -1.888746182E-02 5.246647866E-02 3.228021688E-01
 2.438466589E-02 1.916831876E-02 -2.165616208E-01
 -3.724398154E-02 1.010699707E-01 2.248976903E-01
 2.764825896E-02 1.006559141E-01 1.841135636E-02
 -1.959816104E-02 1.813313557E-01 1.106897514E-01
 7.007388567E-02 1.754741477E-01 -5.097316751E-02
 2.097636980E-01 3.046103374E-01 -1.402338180E-01
 3.610926717E-01 5.928443865E-02 -3.827565937E-01
 3.242242198E-01 5.572273896E-02 -3.572045182E-01
 2.104448177E-01 1.526753647E-01 -2.171683498E-01
 2.012957061E-01 4.619911089E-02 -2.749168382E-01
 2.253902438E-01 5.070831822E-02 -2.880903687E-01
 8.753726474E-02 1.038059417E-01 -1.554226152E-01
 1.340529171E-01 3.840764519E-02 -2.503343330E-01
 6.311766637E-02 7.155061188E-02 -1.676721753E-01
 7.684578371E-02 3.587786320E-02 -2.405737305E-01
 1.562705639E-01 4.576402294E-01 -4.021022489E-02
 -8.697114001E-03 -6.209591639E-02 4.768732519E-01
 9.155400565E-03 -2.004423215E-02 5.476590664E-01
 1.923781306E-02 -2.735146013E-02 3.562965717E-01
 2.845475727E-02 -7.595432898E-02 1.882124947E-01
 5.352396702E-02 -4.404394321E-02 -4.342981671E-02
 3.213957676E-01 4.080504663E-01 -1.650839440E-01
 3.383948941E-01 2.500040829E-01 -2.455417932E-01
 4.551623238E-01 3.033433346E-01 -2.576044498E-01
 3.153741127E-01 1.542331215E-01 -2.914972139E-01
 4.172736874E-01 2.182465487E-01 -3.008647388E-01
 4.623756500E-01 6.293199958E-02 -4.417912125E-01
 5.407611289E-01 2.186428387E-01 -3.065438206E-01
 3.927826257E-01 1.331504256E-01 -3.474645442E-01
 4.842476753E-01 1.461902077E-01 -3.692079349E-01
 5.650898153E-01 6.062906717E-02 -4.288393092E-01
 5.359235303E-01 6.010277137E-02 -4.466259436E-01
 5.798140841E-01 1.558954052E-01 -3.369538205E-01
 6.238830341E-01 2.076586551E-01 -2.832794917E-01
 6.524531171E-01 5.047782221E-02 -3.484934857E-01
 6.722716259E-01 5.301535570E-02 -3.232143687E-01
 6.565006720E-01 1.393818877E-01 -2.953161305E-01
 7.604666843E-01 4.483370149E-02 -2.234164079E-01
 7.083143103E-01 1.772791969E-01 -2.380239152E-01
 7.354554933E-01 1.283046113E-01 -2.238250945E-01
 7.829638172E-01 1.849157569E-01 -1.669106243E-01
 8.123156797E-01 1.213534280E-01 -1.514848844E-01
 8.589046956E-01 3.108164277E-02 -1.333078343E-01
 8.342365397E-01 3.454891973E-02 -1.526699256E-01
 8.623180592E-01 1.557919399E-01 -1.007369510E-01
 9.572544836E-01 1.992135307E-02 7.146253150E-02
 9.354719814E-01 2.263345055E-02 9.874127545E-03
 8.860732645E-01 1.031501201E-01 -7.530136535E-02
 9.323192330E-01 1.530792951E-01 -2.321087722E-02
 9.594474227E-01 9.335549405E-02 3.595754209E-02
 1.005005015E+00 1.485756008E-01 5.130283745E-02
 7.392919871E-01 2.766653159E-01 -1.864938799E-01
 5.914732073E-01 3.167881146E-01 -2.417877511E-01
 6.920822236E-01 9.949984519E-02 -2.783905000E-01
 5.295786086E-01 1.094706848E-01 -4.023401672E-01
 6.063020115E-01 1.084133210E-01 -3.557303414E-01
 5.269848463E-01 4.796468891E-01 -1.840251427E-01
 9.195018153E-01 7.345919205E-02 -2.659095738E-02
 7.694406173E-01 9.094575907E-02 -2.009421422E-01
 8.428298541E-01 8.942066478E-02 -1.294019393E-01
 7.058891778E-02 -9.430864219E-02 -5.525668432E-02
 1.021794387E-01 -5.902216134E-02 -2.525263885E-01
 8.298192588E-02 -1.613401390E-01 -6.290008411E-02
 4.495047739E-02 -5.578130019E-02 4.464891615E-02
 1.122245836E-01 -1.079292482E-01 -2.130975707E-01
 1.621210447E-01 -7.079824605E-02 -4.022683180E-01
 9.117903862E-01 2.543543121E-02 -4.879307152E-02
 9.061945329E-01 4.511140366E-02 -5.420195383E-02
 8.868312780E-01 4.417857106E-02 -9.078604334E-02
 9.276373640E-01 3.883560901E-02 -1.037870758E-02
 9.461045299E-01 3.230713690E-02 3.729214139E-02
 9.694362192E-01 3.494165504E-02 9.625915035E-02
 9.810375094E-01 1.753554980E-02 1.512276373E-01
 9.921732180E-01 3.422708849E-02 1.483244907E-01
 9.997691923E-01 1.439972169E-02 2.302563703E-01
 9.751493866E-01 5.599125093E-02 8.209142113E-02
 1.013403605E+00 5.797628897E-02 1.259675932E-01
 1.077378521E+00 1.130238497E-01 9.474765416E-02
 8.222116492E-01 3.853348862E-02 -1.624917433E-01
 8.138141213E-01 5.190966866E-02 -1.667907763E-01
 7.840739330E-01 4.103270734E-02 -1.967208565E-01
 7.969994706E-01 5.071933594E-02 -1.826766288E-01
 7.769920945E-01 5.859449307E-02 -2.005068925E-01
 7.543986479E-01 6.498873673E-02 -2.237357378E-01
 7.323538814E-01 4.570026450E-02 -2.536480892E-01
 7.458160943E-01 4.531561182E-02 -2.390067056E-01
 7.952537942E-01 3.727608365E-02 -1.871277266E-01
 9.643880181E-02 7.075612267E-02 -2.013205302E-01
 1.349867050E-01 8.473762622E-02 -2.033535784E-01
 5.958513605E-02 4.605684419E-02 -2.073096455E-01
 2.839340550E-02 5.779550766E-02 -2.910284861E-02
 3.176825618E-02 3.745338506E-02 -1.353860763E-01
 5.227427334E-03 3.769461402E-02 1.607675004E-01
 1.008450639E-02 1.211412668E-02 -9.055386946E-02
 -1.169749038E-02 1.515110555E-02 5.789583190E-01
 1.483237068E-02 2.641775039E-02 -5.924545687E-02
 1.525855849E-02 1.342924860E-02 -2.207450926E-01
 3.349006542E-04 2.088753082E-02 2.252684229E-01
 3.865510347E-03 7.754063408E-03 -9.607155254E-02
 1.598245955E-02 1.755284892E-02 -1.171771468E-01
 5.861913093E-02 2.881882660E-02 -2.428136688E-01
 9.687034879E-01 1.670257899E-02 1.138351388E-01
 7.722804637E-01 4.084673269E-02 -2.105669343E-01
 5.702867825E-01 7.020193063E-01 -1.259450334E-01
 -1.172632704E-01 2.632877864E-01 1.189812507E-01
 9.239914813E-01 2.187100033E-02 -2.507520326E-02
 2.561564040E+00 2.029275490E-01 2.804208971E-03
 7.963045837E-02 -7.062992515E-02 -1.350042920E-01
 6.793839260E-02 3.050514790E-02 -2.470980329E-01
 8.955951013E-02 -5.897278397E-02 -2.035477253E-01
 8.063154038E-01 7.395946005E-02 -1.681935944E-01
 8.865518916E-01 2.435188590E-01 -7.766641552E-02
 8.529315798E-01 3.704179561E-01 -1.032727842E-01
 9.625908902E-01 5.137507658E-01 -6.002808074E-02
 1.304655304E+00 3.457736973E-01 1.448658186E-02
 1.099669696E+00 2.466687638E-01 3.372779001E-02
 1.215283128E+00 1.346855556E-01 5.770889741E-02
 1.197825692E+00 5.175121534E-03 7.743774985E-02
 1.321296663E+00 5.308620820E-03 5.017978297E-02
 1.263224864E+00 -1.221906437E-01 6.912296964E-02
 1.102795462E+00 -1.573660698E-01 1.329337308E-01
 9.564182700E-01 -1.551128574E-02 3.432883682E-01
 9.285823726E-01 -1.410062967E-02 3.469030102E-01
 1.177092195E+00 -2.760698413E-01 8.202459902E-02
 1.039657017E+00 -2.840780715E-01 1.078948922E-01
 9.816324799E-01 -1.555579907E-01 1.781196466E-01
 8.267526935E-01 -2.496517264E-02 2.368196531E-01
 8.522694264E-01 -1.902333584E-02 2.798673045E-01
 9.013210382E-01 -2.604255119E-01 1.138476969E-01
 8.443273108E-01 -1.507173089E-01 1.580167462E-01
 7.195941395E-01 -4.259740041E-02 6.058268826E-02
 7.710533226E-01 -2.491694209E-01 2.516012490E-02
 7.447319016E-01 -3.566647362E-02 1.058099431E-01
 7.274869695E-01 -1.649161942E-01 2.594812106E-02
 6.706595349E-01 -2.006230272E-01 -6.163701197E-02
 6.322594426E-01 -1.489302337E-01 -1.147306229E-01
 5.867299970E-01 -2.033946651E-01 -1.961648305E-01
 5.385457925E-01 -7.623587907E-02 -3.507035044E-01
 6.154569342E-01 -5.775349091E-02 -1.432162016E-01
 6.425210132E-01 -5.628237155E-02 -8.157237606E-02
 6.134757920E-01 -2.943346091E-01 -1.548981752E-01
 5.096127660E-01 -2.557962662E-01 -3.570249156E-01
 9.063659521E-01 -9.677956037E-02 2.318431788E-01
 4.792182873E-01 -1.751462837E-01 -5.214549230E-01
 4.162043710E-01 -2.234283298E-01 -5.430191026E-01
 4.453521367E-01 -8.331858340E-02 -7.736418812E-01
 7.916700224E-01 -1.039801503E-01 1.294642389E-01
 5.744272884E-01 -1.358426015E-01 -2.200353271E-01
 5.214022801E-01 -1.242028405E-01 -3.895211797E-01
 5.097318447E-01 -7.645902495E-02 -4.583313243E-01
 7.034234766E-01 -1.124388195E-01 8.473585847E-03
 3.998120681E-01 -3.535130359E-01 -3.450024991E-01
 4.191581136E-01 -1.473836628E-01 -7.058281360E-01
 3.614233084E-01 -1.746781433E-01 -6.356050483E-01
 1.039039114E+00 -8.164569174E-02 2.020447002E-01
 3.782300604E-01 -1.274309700E-01 -7.731427229E-01
 3.712224965E-01 -8.347973429E-02 -8.756944724E-01
 9.390215631E-01 -4.339512719E-01 4.739735625E-02
 3.304150770E-01 -1.302270589E-01 -6.807159271E-01
 2.995547846E-01 -1.795081244E-01 -5.329958410E-01
 2.411161796E-01 -7.998085080E-02 -5.752719637E-01
 3.319988991E-01 -2.563015611E-01 -4.591817617E-01
 6.112579186E-01 -1.081325846E-01 -1.526949880E-01
 4.687097792E-01 -1.189981225E-01 -6.250069714E-01
 2.835960314E-01 -1.320994945E-01 -5.842854237E-01
 2.354828885E-01 -1.597155637E-01 -4.306766233E-01
 2.378931270E-01 -2.584635392E-01 -3.412018356E-01
 1.739032860E-01 -1.442053988E-01 -3.343002663E-01
 2.077134015E-01 -1.199112783E-01 -4.431648117E-01
 2.147378723E-01 -7.976112443E-02 -5.163214669E-01
 1.516382153E-01 -1.114204270E-01 -3.073345545E-01
 4.613803673E-01 -8.180236706E-02 -6.911313666E-01
 5.142805143E-01 -4.248882106E-01 -2.282269334E-01
 1.107585002E+00 3.677625007E-02 1.203068118E-01
 1.042673640E+00 2.007824894E-02 1.776008070E-01
 2.660012852E-01 -4.078836532E-01 -2.346536665E-01
 4.567595781E-01 -9.557675937E-02 -7.061713842E-01
 4.350318926E-01 -1.017047881E-01 -7.913629269E-01
 4.745251149E-01 -9.238880955E-02 -6.130276825E-01
 4.968595529E-01 -9.371857629E-02 -4.980346560E-01
 2.482865890E-01 -1.173270343E-01 -5.280913406E-01
 4.329108083E-01 -8.213225388E-02 -8.457228589E-01
 4.074709368E-01 -1.069443207E-01 -8.406930545E-01
 3.892042047E-01 -9.728778066E-02 -8.676737582E-01
 6.977248132E-01 4.056923173E-01 -1.797137557E-01
 5.786466796E-01 -9.823518729E-02 -2.243820985E-01
 5.485145481E-01 -1.007982369E-01 -2.970263477E-01
 1.794711597E-01 -1.043284005E-01 -3.934772678E-01
 1.373918852E-01 -9.101182191E-02 -3.106748928E-01
 1.746451177E-01 -8.257073300E-02 -4.242726623E-01
 1.992618675E-01 -9.053558697E-02 -4.642596540E-01
 2.278736297E-01 -9.440914721E-02 -5.174022816E-01
 2.553773491E-01 -9.323361113E-02 -5.826416281E-01
 1.460373770E+00 5.805971704E-01 -4.171616652E-03
 5.225178261E-01 -7.293058770E-02 -4.097894685E-01
 5.229286407E-01 -9.072419091E-02 -3.915424984E-01
 5.588810870E-01 -8.117202467E-02 -2.848999290E-01
 1.630162136E+00 3.577085877E-01 4.296868085E-03
 8.057401518E-01 -3.989968967E-01 1.351004702E-02
 1.117615545E+00 -5.317835255E-02 1.287689402E-01
 -2.027476888E-02 -3.260455470E-02 5.521378575E-01
 3.693834031E-03 -1.616655215E-02 7.166482226E-01
 -1.604250038E-02 -8.701812428E-03 8.240570691E-01
 -3.299430229E-03 -1.854901094E-02 8.190692958E-01
 3.020155063E-03 -3.793711892E-02 5.236810306E-01
 1.013967120E+00 2.631140633E-02 1.988972264E-01
 2.278626539E-01 -7.811477086E-02 -5.458023863E-01
 9.710930913E-01 -6.638624167E-01 1.312041593E-03
 1.448955762E+00 -8.353778897E-02 3.233722319E-02
 1.655960779E+00 -1.147082669E-01 1.706792473E-02
 5.973832042E-01 -8.083572385E-02 -1.832036821E-01
 6.230493078E-01 -7.824915427E-02 -1.285969353E-01
 1.120395855E+00 -4.540035502E-01 5.692824191E-02
 2.141555344E-02 -5.456763314E-02 2.755096072E-01
 1.020571559E-02 -3.194052467E-02 4.421079186E-01
 2.093626565E-02 -4.029046268E-02 3.150332275E-01
 5.342781237E-01 -1.788765314E-01 -3.298483034E-01
 9.454508995E-01 1.863775841E-02 4.128974283E-02
 1.179826727E-01 6.132046096E-02 -2.138364950E-01
 1.139279150E-01 4.506703705E-02 -2.395015689E-01
 6.640430153E-01 -4.308896977E-01 -1.006236134E-01
 5.803382499E-01 -5.737072154E-01 -1.596817682E-01
 6.775877084E-02 -2.564527047E-01 -4.084005898E-03
 8.358772707E-01 5.382593179E-02 -1.446003581E-01
 8.649434693E-01 6.145239310E-02 -1.111597418E-01
 8.927088720E-01 6.547033601E-02 -7.443620594E-02
 8.705683157E-01 3.569230410E-02 -1.163904369E-01
 7.312510304E-01 8.229484217E-02 -2.446285651E-01
 3.496132109E-01 -1.064206684E-01 -7.726950847E-01
 6.022857779E-01 -6.440590641E-02 -1.682315942E-01
 1.394022598E-01 1.393617488E-01 -1.698997813E-01
 1.560240288E-01 2.155474931E-01 -1.276199262E-01
 1.813972701E-01 1.103140719E-01 -2.143933284E-01
 2.409613388E-01 1.083651974E-01 -2.551364642E-01
 2.127639764E-01 8.453499181E-02 -2.566620025E-01
 1.787608427E-01 7.629668639E-02 -2.387529869E-01
 2.444444560E-01 7.484871815E-02 -2.851137187E-01
 2.736702336E-01 9.072130288E-02 -2.976753481E-01
 3.030377984E-01 5.474846099E-02 -3.403610966E-01
 2.526016756E-01 5.453010229E-02 -3.021559305E-01
 2.914179388E-01 5.247909926E-02 -3.317932321E-01
 2.918069782E-01 6.831892938E-02 -3.226340768E-01
 3.142126744E-01 6.534118947E-02 -3.426032724E-01
 3.329381951E-01 7.008748215E-02 -3.563122050E-01
 3.164124739E-01 9.562431845E-02 -3.224451616E-01
 3.497564290E-01 9.172778631E-02 -3.554065631E-01
 1.559555250E-01 6.380173326E-02 -2.397457707E-01
 1.838914263E-01 5.504886234E-02 -2.579113921E-01
 1.510539461E-01 4.964238419E-02 -2.460092850E-01
 2.109933226E-01 6.317995028E-02 -2.676503636E-01
 2.777262428E-01 1.340087269E-01 -2.726347437E-01
 2.647403517E-01 1.964290935E-01 -2.230750934E-01
 7.039766229E-01 7.080646084E-02 -2.771565488E-01
 6.785583004E-01 7.298432666E-02 -3.060323183E-01
 6.908122919E-01 5.718031538E-02 -2.988511709E-01
 7.229245162E-01 5.966269792E-02 -2.595609556E-01
 6.594415090E-01 6.659795923E-02 -3.318750836E-01
 6.409628123E-01 6.354363403E-02 -3.539785742E-01
 6.263291991E-01 5.404958384E-02 -3.757497572E-01
 6.199173962E-01 7.170869997E-02 -3.711962050E-01
 5.971282154E-01 7.670663167E-02 -3.900063417E-01
 5.845864181E-01 5.994915177E-02 -4.142653056E-01
 5.742202988E-01 8.241792602E-02 -4.009671445E-01
 5.479355183E-01 7.852578173E-02 -4.202020845E-01
 5.242272162E-01 7.675434329E-02 -4.320212099E-01
 4.997721140E-01 7.317241996E-02 -4.397426330E-01
 4.877495177E-01 6.032990077E-02 -4.531654211E-01
 4.772167501E-01 7.841473848E-02 -4.306233389E-01
 4.524048371E-01 8.420576038E-02 -4.173358989E-01
 4.994995801E-01 5.763719748E-02 -4.565562831E-01
 4.751444591E-01 5.809398351E-02 -4.520286379E-01
 6.514030686E-01 8.871864024E-02 -3.285850455E-01
 4.645883295E-01 1.144375031E-01 -3.938512117E-01
 4.262713530E-01 1.081188576E-01 -3.834813936E-01
 4.449950319E-01 6.495643201E-02 -4.319660998E-01
 6.148628744E-01 5.397189723E-02 -3.891030019E-01
 6.377323647E-01 5.047742004E-02 -3.654823823E-01
 4.300814152E-01 7.585589536E-02 -4.132798554E-01
 4.047949846E-01 7.708082985E-02 -3.974742987E-01
 3.771921386E-01 5.836691665E-02 -3.958426248E-01
 3.942390639E-01 6.025075796E-02 -4.053942042E-01
 4.067406477E-01 5.864325807E-02 -4.144624673E-01
 4.323812396E-01 5.949149766E-02 -4.285779059E-01
 8.459885985E-01 3.517730748E-02 -1.428186675E-01
 6.307302497E-01 -6.005643934E-02 -1.115938553E-01
 4.733032704E-01 -7.772431895E-02 -6.322377075E-01
 2.387147596E-01 5.394900917E-02 -2.919790619E-01
 2.661637450E-01 6.682931283E-02 -3.060039230E-01
 9.471862215E-01 5.614096255E-02 3.472740490E-02
 4.194696572E-01 -8.656781561E-02 -8.841411598E-01
 6.564579775E-01 -1.049815901E-01 -6.777887352E-02
 6.498006222E-01 -7.586253996E-02 -7.438548967E-02
 6.791501965E-01 -7.345423464E-02 -1.735362186E-02
 6.948151679E-01 -4.379268451E-02 2.069802174E-02
 7.201488588E-01 -7.934236828E-02 4.719157969E-02
 7.055586080E-01 -4.208997807E-02 3.759371076E-02
 6.837820266E-01 -5.003252122E-02 -4.507987608E-03
 1.480697493E+00 1.087029085E-01 2.414287474E-02
 3.133974596E+00 6.339745962E-01 3.819931913E-03
 3.824275561E-01 9.971419443E-02 -3.672107114E-01
 7.476597453E-01 -1.116883205E-01 7.105118318E-02
 7.508970912E-01 -7.008370340E-02 1.027985771E-01
 7.908958997E-01 -6.699670148E-02 1.530828532E-01
 8.255743925E-01 -8.427401719E-02 1.867137039E-01
 7.970228246E-01 -2.805511245E-02 1.907486659E-01
 8.162544062E-01 -5.340750978E-02 1.980602299E-01
 8.472709476E-01 -5.201694534E-02 2.371349830E-01
 8.135889358E-01 -3.344378553E-02 2.075996621E-01
 7.843249761E-01 -2.970948160E-02 1.708184628E-01
 8.646033239E-01 -8.378755820E-02 2.188299089E-01
 8.845833693E-01 -5.231480258E-02 2.751066336E-01
 9.188837773E-01 -5.569176888E-02 2.945602724E-01
 9.032111246E-01 -3.139635352E-02 3.098061883E-01
 9.127338684E-01 -1.281823485E-02 3.438992048E-01
 8.647808052E-01 -3.128964242E-02 2.780052867E-01
 8.978605968E-01 -1.620882162E-02 3.304488630E-01