TITLE     = "Visualization of the solution"
VARIABLES = "x"
"y"
"Pressure_Coefficient"
ZONE T="Zone"
 STRANDID=0, SOLUTIONTIME=0
 Nodes=690, Elements=1165, ZONETYPE=FEQuadrilateral
 DATAPACKING=POINT
 DT=(DOUBLE DOUBLE DOUBLE )
 1.000214219E+00 5.164280301E-04 2.914051860E-01
 9.854428768E-01 3.166596871E-03 2.207075400E-01
 9.728800654E-01 5.516295787E-03 1.465582974E-01
 9.573387504E-01 8.253594860E-03 1.089950791E-01
 9.431839585E-01 1.079194155E-02 5.724005083E-02
 9.306598306E-01 1.307104621E-02 1.437426857E-02
 9.191430211E-01 1.510059182E-02 -2.268984103E-02
 9.066431522E-01 1.727025211E-02 -5.498729492E-02
 8.947251439E-01 1.927915029E-02 -8.892080566E-02
 8.824395537E-01 2.132479474E-02 -1.185072995E-01
 8.702321649E-01 2.325258963E-02 -1.451738154E-01
 8.582789302E-01 2.511721849E-02 -1.600148088E-01
 8.456777334E-01 2.694999985E-02 -1.781847451E-01
 8.342876434E-01 2.865675837E-02 -2.055921382E-01
 8.226795197E-01 3.031796776E-02 -2.152972565E-01
 8.099318743E-01 3.204382211E-02 -2.299765865E-01
 7.971373200E-01 3.380292282E-02 -2.490685576E-01
 7.852281928E-01 3.536801785E-02 -2.589994892E-01
 7.727062106E-01 3.697953746E-02 -2.765270814E-01
 7.608423829E-01 3.851031885E-02 -3.009049842E-01
 7.481021881E-01 4.011182487E-02 -3.195689544E-01
 7.342363000E-01 4.177168757E-02 -3.377988872E-01
 7.233890295E-01 4.306764156E-02 -3.526318169E-01
 7.120131850E-01 4.435803741E-02 -3.701207477E-01
 7.005783916E-01 4.566882551E-02 -3.898052286E-01
 6.871390343E-01 4.711576924E-02 -4.088734305E-01
 6.742898226E-01 4.847860336E-02 -4.296526532E-01
 6.636676788E-01 4.954993725E-02 -4.471526057E-01
 6.522185802E-01 5.067582428E-02 -4.651859793E-01
 6.413419843E-01 5.169331655E-02 -4.841793968E-01
 6.293874383E-01 5.277235806E-02 -5.071738010E-01
 6.182755232E-01 5.373637751E-02 -5.225900479E-01
 6.076054573E-01 5.457979813E-02 -5.413604003E-01
 5.955789089E-01 5.553097278E-02 -5.613099675E-01
 5.835477710E-01 5.637205020E-02 -5.758449384E-01
 5.700536370E-01 5.727325380E-02 -5.963363179E-01
 5.570339561E-01 5.805967003E-02 -6.146860438E-01
 5.441803336E-01 5.876861885E-02 -6.252735340E-01
 5.327201486E-01 5.931834877E-02 -6.233370956E-01
 5.204936862E-01 5.982560292E-02 -6.261433937E-01
 5.076968074E-01 6.031802669E-02 -6.323624152E-01
 4.966449738E-01 6.066218764E-02 -6.324744781E-01
 4.833851159E-01 6.101652607E-02 -6.273449207E-01
 4.703225493E-01 6.124601141E-02 -6.242256684E-01
 4.562108219E-01 6.146669388E-02 -6.189337657E-01
 4.422087073E-01 6.154554710E-02 -6.054989347E-01
 4.289858639E-01 6.154898182E-02 -5.981726868E-01
 4.159807563E-01 6.149398908E-02 -5.915731881E-01
 4.035201371E-01 6.136018038E-02 -5.831441298E-01
 3.907903433E-01 6.115762889E-02 -5.740007623E-01
 3.787683845E-01 6.089623645E-02 -5.634491499E-01
 3.676348031E-01 6.060065329E-02 -5.532610090E-01
 3.545250893E-01 6.019338220E-02 -5.436478855E-01
 3.424679041E-01 5.974970013E-02 -5.342760461E-01
 3.303164542E-01 5.924061686E-02 -5.249815390E-01
 3.201528788E-01 5.876195058E-02 -5.105818860E-01
 3.080015481E-01 5.812692270E-02 -4.983162464E-01
 2.954577804E-01 5.742405355E-02 -4.862193060E-01
 2.818366587E-01 5.656919628E-02 -4.734721595E-01
 2.693386376E-01 5.572238564E-02 -4.604954736E-01
 2.574626803E-01 5.484304950E-02 -4.480651585E-01
 2.450047731E-01 5.386437476E-02 -4.353633355E-01
 2.321102619E-01 5.276858807E-02 -4.200225630E-01
 2.197507024E-01 5.164413527E-02 -4.052232746E-01
 2.078277618E-01 5.048780888E-02 -3.899921769E-01
 1.961829066E-01 4.929420352E-02 -3.765966729E-01
 1.836839467E-01 4.794214666E-02 -3.635865813E-01
 1.718158424E-01 4.656835273E-02 -3.507743724E-01
 1.600033492E-01 4.513933510E-02 -3.349972672E-01
 1.480154246E-01 4.358135164E-02 -3.203315872E-01
 1.369670779E-01 4.208143428E-02 -3.048461262E-01
 1.256925762E-01 4.045130685E-02 -2.867540511E-01
 1.142396033E-01 3.870633245E-02 -2.707279038E-01
 1.036510989E-01 3.699017316E-02 -2.547091902E-01
 9.378687292E-02 3.530324996E-02 -2.359807743E-01
 8.283326030E-02 3.330391273E-02 -2.162264578E-01
 7.134269923E-02 3.105042130E-02 -1.934186631E-01
 6.154047698E-02 2.896782570E-02 -1.754715138E-01
 5.202563480E-02 2.678959444E-02 -1.616864918E-01
 4.307775199E-02 2.454735339E-02 -1.422729196E-01
 3.539077565E-02 2.243843302E-02 -1.145520085E-01
 2.871525101E-02 2.041517198E-02 -6.726839080E-02
 2.318873443E-02 1.856736094E-02 -3.936220482E-02
 1.916960441E-02 1.708012447E-02 -2.017563328E-02
 1.535165124E-02 1.553131361E-02 1.680566056E-02
 1.261963416E-02 1.431071386E-02 5.187882968E-02
 1.022133231E-02 1.313347649E-02 6.688501699E-02
 8.432618342E-03 1.217293087E-02 1.323179191E-01
 6.787702907E-03 1.121073868E-02 1.654633191E-01
 5.297987256E-03 1.025013812E-02 2.692058476E-01
 3.356575035E-03 8.816665038E-03 3.553665795E-01
 1.727462979E-03 7.380910218E-03 4.047117160E-01
 3.331049229E-04 5.828197580E-03 5.185716079E-01
 -9.795994265E-04 3.762237960E-03 9.734642782E-01
 -1.595034264E-03 2.122405451E-03 9.087276584E-01
 -1.837668358E-03 8.055882645E-04 1.001366880E+00
 -1.843939652E-03 -8.333442966E-04 1.105270706E+00
 -1.447701012E-03 -2.794554690E-03 1.028207417E+00
 -5.128916819E-04 -5.013591610E-03 1.317034886E+00
 1.023701741E-03 -7.387947291E-03 7.988084842E-01
 3.187188879E-03 -9.870465845E-03 7.841292425E-01
 5.156615749E-03 -1.171119511E-02 6.381672116E-01
 7.467715535E-03 -1.357832737E-02 4.492577097E-01
 9.156434797E-03 -1.480644476E-02 4.220289410E-01
 1.123833191E-02 -1.618999429E-02 3.758012038E-01
 1.369980909E-02 -1.769363694E-02 2.962743709E-01
 1.695770025E-02 -1.950508729E-02 2.234662140E-01
 2.015416324E-02 -2.112471312E-02 1.636988774E-01
 2.422578633E-02 -2.301192284E-02 1.059995959E-01
 2.962584607E-02 -2.527009696E-02 3.611359478E-02
 3.532603011E-02 -2.743109688E-02 -3.131861643E-02
 4.234589636E-02 -2.983357012E-02 -8.466829579E-02
 4.979587346E-02 -3.213767707E-02 -1.301667289E-01
 5.844046921E-02 -3.456312791E-02 -1.663599412E-01
 6.712871790E-02 -3.679141775E-02 -2.002254133E-01
 7.744137943E-02 -3.921091929E-02 -2.272332892E-01
 8.709833026E-02 -4.130109772E-02 -2.645737151E-01
 9.766013920E-02 -4.340871796E-02 -2.920916229E-01
 1.085660309E-01 -4.542320594E-02 -3.174480997E-01
 1.201916113E-01 -4.742057994E-02 -3.412517750E-01
 1.315620989E-01 -4.923659563E-02 -3.643194587E-01
 1.420470476E-01 -5.080205202E-02 -3.846917650E-01
 1.532339603E-01 -5.237961188E-02 -4.003168709E-01
 1.648443937E-01 -5.389018357E-02 -4.245027140E-01
 1.764558405E-01 -5.531884730E-02 -4.441637361E-01
 1.881603152E-01 -5.665009841E-02 -4.647893276E-01
 1.984280348E-01 -5.773974583E-02 -4.848828732E-01
 2.096214145E-01 -5.884473771E-02 -5.023768903E-01
 2.216429710E-01 -5.993409827E-02 -5.197244792E-01
 2.338242680E-01 -6.096625701E-02 -5.427343253E-01
 2.457032055E-01 -6.184722111E-02 -5.654262561E-01
 2.579858899E-01 -6.266778708E-02 -5.842462463E-01
 2.690310478E-01 -6.332123280E-02 -6.023905797E-01
 2.815636992E-01 -6.396758556E-02 -6.226303126E-01
 2.936039865E-01 -6.448152661E-02 -6.463753406E-01
 3.063161671E-01 -6.489657611E-02 -6.633127308E-01
 3.179241717E-01 -6.518476456E-02 -6.802728304E-01
 3.303660452E-01 -6.537009031E-02 -6.986503250E-01
 3.406601548E-01 -6.542248279E-02 -7.125818343E-01
 3.519984484E-01 -6.540057063E-02 -7.240347949E-01
 3.630592227E-01 -6.526318938E-02 -7.361713810E-01
 3.738086224E-01 -6.504634768E-02 -7.401220269E-01
 3.854484558E-01 -6.468237936E-02 -7.356605624E-01
 3.978891373E-01 -6.416986138E-02 -7.232189978E-01
 4.100423157E-01 -6.353551149E-02 -6.996450432E-01
 4.231865108E-01 -6.273964792E-02 -6.696081739E-01
 4.355677962E-01 -6.183162704E-02 -6.354874781E-01
 4.486123323E-01 -6.077595428E-02 -5.949118650E-01
 4.610669017E-01 -5.960458517E-02 -5.486750041E-01
 4.734489918E-01 -5.834733695E-02 -4.946320459E-01
 4.854821861E-01 -5.706051737E-02 -4.514756967E-01
 4.977304935E-01 -5.563353747E-02 -4.111740367E-01
 5.111802816E-01 -5.400033295E-02 -3.671416277E-01
 5.247560143E-01 -5.225837976E-02 -3.205514068E-01
 5.376660824E-01 -5.051472038E-02 -2.742319769E-01
 5.514737368E-01 -4.862270877E-02 -2.319625128E-01
 5.645708442E-01 -4.677350074E-02 -1.988077032E-01
 5.777420998E-01 -4.485160112E-02 -1.622356858E-01
 5.905887485E-01 -4.298773408E-02 -1.304776692E-01
 6.034164429E-01 -4.108501598E-02 -1.046549008E-01
 6.165176034E-01 -3.910256922E-02 -7.222168184E-02
 6.308678985E-01 -3.695851192E-02 -4.426189998E-02
 6.446453333E-01 -3.486879915E-02 -1.747282987E-02
 6.580893397E-01 -3.282992169E-02 8.969843275E-03
 6.718314886E-01 -3.074330650E-02 3.431662117E-02
 6.848378181E-01 -2.882181667E-02 5.314445357E-02
 6.971744299E-01 -2.695951238E-02 7.253553598E-02
 7.121864557E-01 -2.472954243E-02 9.763571914E-02
 7.251482606E-01 -2.279650792E-02 1.219197772E-01
 7.370047569E-01 -2.110194787E-02 1.402570441E-01
 7.498732209E-01 -1.926221699E-02 1.538407043E-01
 7.628806829E-01 -1.740793325E-02 1.749964273E-01
 7.759842873E-01 -1.558906492E-02 1.964597681E-01
 7.883809209E-01 -1.390580460E-02 2.139481390E-01
 8.009186983E-01 -1.222018059E-02 2.345361993E-01
 8.124881983E-01 -1.077490579E-02 2.500291844E-01
 8.238050938E-01 -9.355526417E-03 2.633088629E-01
 8.359022737E-01 -7.896195166E-03 2.825774943E-01
 8.482193351E-01 -6.484862417E-03 3.017289861E-01
 8.602378368E-01 -5.195593461E-03 3.165458719E-01
 8.713908792E-01 -4.077546764E-03 3.321638761E-01
 8.831773400E-01 -3.011652268E-03 3.434673610E-01
 8.960725665E-01 -1.967731165E-03 3.543494991E-01
 9.061584473E-01 -1.252838643E-03 3.665250479E-01
 9.165257215E-01 -6.246910198E-04 3.720504251E-01
 9.265637994E-01 -1.290655491E-04 3.757492263E-01
 9.364459515E-01 2.492146741E-04 3.781111671E-01
 9.489154220E-01 6.063244073E-04 3.725667018E-01
 9.629344940E-01 8.218007861E-04 3.801121517E-01
 9.773842096E-01 8.545477176E-04 3.890744547E-01
 9.900118113E-01 7.257474936E-04 3.695672822E-01
 -5.000000000E-01 -1.000000000E+00 5.042477344E-02
 3.500000000E+00 -1.000000000E+00 1.190714796E-02
 3.500000000E+00 1.000000000E+00 1.007704730E-03
 -5.000000000E-01 1.000000000E+00 4.585203591E-02
 -5.000000000E-01 5.000000000E-01 9.784556287E-02
 -5.000000000E-01 2.752797990E-12 1.477665602E-01
 -5.000000000E-01 -5.000000000E-01 9.965993079E-02
 -9.421907698E-13 -1.000000000E+00 2.099598108E-02
 5.000000000E-01 -1.000000000E+00 -3.510796359E-02
 1.000000000E+00 -1.000000000E+00 -1.797058549E-02
 1.500000000E+00 -1.000000000E+00 2.192718755E-02
 2.000000000E+00 -1.000000000E+00 2.477320116E-02
 2.500000000E+00 -1.000000000E+00 1.737285780E-02
 3.000000000E+00 -1.000000000E+00 1.296644081E-02
 3.500000000E+00 -5.000000000E-01 1.281195909E-02
 3.500000000E+00 -2.752797990E-12 1.251336731E-02
 3.500000000E+00 5.000000000E-01 7.170213018E-03
 3.000000000E+00 1.000000000E+00 -4.808205507E-03
 2.500000000E+00 1.000000000E+00 -1.259504231E-02
 2.000000000E+00 1.000000000E+00 -2.750193207E-02
 1.500000000E+00 1.000000000E+00 -6.538851828E-02
 1.000000000E+00 1.000000000E+00 -1.145419530E-01
 5.000000000E-01 1.000000000E+00 -7.645988672E-02
 1.733724275E-12 1.000000000E+00 1.375804283E-02
 6.802540493E-01 -4.289408230E-02 4.228181951E-02
 7.848559448E-01 -2.756284250E-02 2.017644461E-01
 9.032171503E-01 -1.343357551E-02 3.458086774E-01
 5.870530635E-01 -5.660379621E-02 -1.398068100E-01
 6.949911438E-01 5.691042774E-02 -3.901379684E-01
 2.790428701E-01 7.077042224E-02 -4.551127872E-01
 2.731590660E-01 -7.601081680E-02 -5.869966387E-01
 9.162239035E-01 3.186370213E-02 -2.999519980E-02
 7.923561671E-01 4.962818679E-02 -2.475912855E-01
 5.925790273E-01 7.088544858E-02 -5.485698423E-01
 4.211654160E-01 7.129303390E-02 -5.823259434E-01
 4.140931394E-01 -7.748547397E-02 -6.622562790E-01
 1.788707560E+00 -5.288034454E-01 2.327113424E-02
 1.792841256E+00 6.649586028E-01 -1.978566500E-02
 3.031187809E+00 2.156783524E-01 6.118023506E-03
 7.507335925E-01 -5.236537664E-01 -8.946599219E-03
 4.945976221E-01 -6.843209474E-02 -4.056967512E-01
 3.117461059E-01 -6.387937299E-01 -8.254811544E-02
 1.251983638E-01 -6.186514788E-02 -3.248836222E-01
 1.923505126E-01 -6.608702815E-02 -4.561574152E-01
 3.469811614E-01 -7.469097667E-02 -6.998033122E-01
 7.500000000E-01 5.669872981E-01 -1.961677845E-01
 5.023438983E-01 7.328462693E-02 -6.156980637E-01
 2.734817626E+00 -5.327219534E-01 1.162391124E-02
 1.236007937E+00 7.349482986E-01 -5.388124530E-02
 9.888278944E-01 3.465338401E-01 -4.742740291E-02
 8.545538016E-01 4.076339273E-02 -1.607799541E-01
 1.273671104E+00 -6.083540427E-01 5.144472361E-02
 1.511781407E+00 -2.802398927E-01 3.346640681E-02
 2.841234414E-01 6.461300465E-01 -9.167375785E-02
 1.046911926E-01 4.630935004E-02 -2.413705202E-01
 1.638961304E-01 5.630850953E-02 -3.250666103E-01
 3.463660521E-01 7.132981265E-02 -5.241381808E-01
 2.240969159E+00 -5.769013269E-01 1.521191837E-02
 2.025756495E+00 -1.914405922E-01 9.092785157E-03
 2.420063019E+00 -1.843991549E-01 7.650128279E-03
 2.184517686E+00 1.579829978E-01 2.682938059E-03
 1.842312560E+00 9.962795181E-02 3.895351475E-03
 -2.684588413E-01 2.170414542E-01 1.612464608E-01
 -1.250417151E-01 6.729859130E-01 3.505776281E-02
 2.917612031E-02 3.287677250E-01 2.555744192E-02
 4.055954651E-02 3.224987393E-02 -1.115027000E-01
 -2.712303488E-01 -2.368359970E-01 1.632687454E-01
 -6.882901585E-02 -6.054931798E-01 3.354959936E-02
 1.051797867E-01 -3.576380969E-01 -5.248525055E-02
 2.241161057E+00 5.570916167E-01 -7.283915750E-03
 2.746363661E+00 5.964981126E-01 -1.381454138E-03
 -2.343546839E-01 -7.086142607E-03 2.191438350E-01
 -1.337244739E-01 9.988804815E-02 2.442741735E-01
 -1.193070613E-01 -1.424190091E-01 2.382593696E-01
 7.042067894E-02 -4.594768706E-02 -1.742604094E-01
 4.457500760E-02 -3.953104830E-02 -6.028818600E-02
 -7.185797142E-02 -3.069543824E-01 1.025133929E-01
 -2.848668375E-03 -1.737691098E-01 1.391802976E-01
 1.552206128E-01 -2.369750939E-01 -1.759015828E-01
 -3.749819888E-02 -9.833055390E-02 3.407522435E-01
 2.056149850E-02 -2.634281257E-02 1.873177980E-01
 -1.097046361E-01 -2.343914961E-02 3.523107578E-01
 -7.220498438E-02 5.706230647E-02 3.809536791E-01
 3.824534435E-02 -1.070755311E-01 9.119761764E-02
 3.109343523E+00 -2.613014754E-01 1.085310151E-02
 1.397767598E-02 -7.118557783E-02 2.502185170E-01
 6.743294610E-03 -1.842589219E-02 4.606863311E-01
 -4.695978174E-02 -3.554515243E-02 4.686640539E-01
 -4.404279985E-02 7.231633935E-03 5.866601225E-01
 -2.581194793E-02 4.642786585E-02 4.032313186E-01
 2.465060217E-02 2.443595933E-02 -1.398509586E-02
 -3.931802781E-02 1.067325962E-01 2.496658595E-01
 2.457165324E-02 8.807507724E-02 9.629817242E-02
 7.452411753E-02 4.221787797E-02 -1.816300675E-01
 1.226927583E-02 1.566005299E-01 1.084128463E-01
 8.346107499E-02 1.268818637E-01 -8.203351693E-02
 6.817630974E-02 8.334369735E-02 -9.137801225E-02
 6.026253680E-02 2.251356617E-01 -2.003536274E-03
 1.652409847E-01 1.830102594E-01 -2.080049347E-01
 2.256951285E-01 6.386753821E-02 -3.997669487E-01
 1.979191628E-01 6.221581252E-02 -3.655704315E-01
 1.458485239E-01 1.164684371E-01 -2.434951119E-01
 1.578267221E-01 3.084780053E-01 -1.300087778E-01
 2.577014980E-01 2.477941029E-01 -2.864551310E-01
 2.565581092E-01 1.609172191E-01 -3.456232004E-01
 3.418194332E-01 1.860305335E-01 -4.020434311E-01
 3.852212688E-01 7.351678709E-02 -5.551463690E-01
 3.559667844E-01 2.675804516E-01 -3.463014860E-01
 4.407524169E-01 2.084354185E-01 -4.401123872E-01
 4.634499483E-01 7.307523940E-02 -6.047522680E-01
 4.665669339E-01 3.153993322E-01 -3.528048595E-01
 5.529773647E-01 2.353008097E-01 -4.317931756E-01
 5.110004165E-01 1.574123047E-01 -5.144617020E-01
 5.505388437E-01 7.093688335E-02 -6.035803681E-01
 5.266729499E-01 7.165117383E-02 -6.111010579E-01
 6.031017076E-01 1.681555080E-01 -4.495182354E-01
 6.469319880E-01 6.184020323E-02 -4.678446648E-01
 6.254155087E-01 6.326746630E-02 -5.038279804E-01
 6.690924226E-01 6.048979140E-02 -4.315195660E-01
 6.453234167E-01 2.405847285E-01 -3.535613541E-01
 7.025091230E-01 1.673331144E-01 -3.294209152E-01
 7.430097837E-01 5.280962956E-02 -3.216806092E-01
 7.189462011E-01 5.500945668E-02 -3.551439180E-01
 7.527866065E-01 2.358258075E-01 -2.579375783E-01
 7.820727824E-01 1.696416052E-01 -2.302855943E-01
 3.104385160E-01 1.257043268E-01 -4.341668400E-01
 3.160324475E-01 7.234779176E-02 -4.934294734E-01
 3.624665532E-01 1.247592508E-01 -4.809923054E-01
 4.555611452E-01 1.437338594E-01 -5.147005089E-01
 7.473276329E-01 1.208218813E-01 -2.904119739E-01
 8.011986078E-01 1.038844111E-01 -2.202030933E-01
 8.474374996E-01 1.515211239E-01 -1.477966939E-01
 9.680882398E-01 1.812560813E-02 1.295372514E-01
 8.517800449E-01 2.437459524E-01 -1.425815169E-01
 6.496904989E-01 1.244039071E-01 -4.152528794E-01
 8.546173387E-01 9.010585109E-02 -1.488637496E-01
 8.997677603E-01 1.186036999E-01 -7.297784571E-02
 6.124989130E-01 3.640748170E-01 -3.199986941E-01
 8.985319980E-01 7.534705218E-02 -7.366994244E-02
 9.445814136E-01 8.537189172E-02 1.077233181E-02
 9.463407652E-01 1.397239581E-01 -8.152603168E-03
 1.002324791E+00 1.009025899E-01 8.531115535E-02
 8.798073078E-01 3.550828639E-02 -1.179883340E-01
 5.630730155E-01 1.275078056E-01 -5.266955594E-01
 4.895614118E-01 1.128626542E-01 -5.621133149E-01
 5.288962908E-01 1.098842472E-01 -5.652293488E-01
 9.769590458E-01 6.392636477E-02 9.857436691E-02
 8.198861692E-01 7.147029604E-02 -2.018808035E-01
 8.284768956E-01 3.845464167E-02 -2.051493678E-01
 2.567938166E-01 1.070299346E-01 -3.947245278E-01
 2.512605639E-01 6.653263995E-02 -4.289659151E-01
 2.041027965E-01 1.188595764E-01 -3.173460577E-01
 7.674730716E-01 8.533490255E-02 -2.713822226E-01
 7.671785159E-01 5.020435449E-02 -2.833768386E-01
 3.022277347E-01 3.889857740E-01 -2.262196129E-01
 1.082198666E-01 4.667870608E-01 -2.844192207E-02
 9.531099288E-01 2.633837346E-02 7.915651263E-02
 9.825199677E-01 1.743626245E-02 2.054981431E-01
 -7.019061469E-02 2.224673885E-01 1.431719758E-01
 7.947442072E-01 7.108200788E-02 -2.380773131E-01
 8.092970297E-01 5.504009677E-02 -2.234708638E-01
 8.446104591E-01 5.865416345E-02 -1.719276620E-01
 7.308457353E-01 8.666958921E-02 -3.243525284E-01
 1.734576266E-01 9.111902587E-02 -2.983518639E-01
 1.095365035E-01 9.101113932E-02 -1.928151056E-01
 1.323743335E-01 5.353378845E-02 -2.816839715E-01
 7.838841607E-01 3.573379808E-01 -1.987928921E-01
 3.363183928E-01 1.039980062E-01 -4.809654374E-01
 9.243944534E-01 5.396087538E-02 -1.425944081E-02
 9.517643786E-01 5.070338572E-02 5.825446195E-02
 8.710028100E-01 5.427473974E-02 -1.270008998E-01
 8.975408796E-01 4.439667866E-02 -7.591325648E-02
 9.051444431E-01 1.769953401E-01 -8.111677024E-02
 9.819495005E-01 2.102732894E-01 -1.240466786E-02
 1.115798690E+00 2.723984609E-01 2.644690060E-02
 4.781760718E-01 7.436005101E-02 -6.103106209E-01
 4.708601928E-01 9.103835835E-02 -5.862246392E-01
 4.473899148E-01 8.936534587E-02 -5.763415574E-01
 4.906844675E-01 8.537785276E-02 -5.989262612E-01
 8.913952627E-01 2.986787749E-02 -9.411655957E-02
 4.089446666E-01 7.284455282E-02 -5.733255737E-01
 4.191492992E-01 8.786486885E-02 -5.616807636E-01
 3.982276385E-01 8.450299385E-02 -5.522696811E-01
 3.754210481E-01 9.039631560E-02 -5.292601498E-01
 3.980364881E-01 1.088811461E-01 -5.233969024E-01
 4.035788905E-01 1.509700504E-01 -4.838485594E-01
 3.973408109E-01 7.067642861E-02 -5.678307304E-01
 7.787099649E-01 4.720677496E-02 -2.648436594E-01
 4.346958578E-01 7.414596763E-02 -5.870946560E-01
 4.487910500E-01 7.191975877E-02 -5.994459498E-01
 -1.145557353E-02 -4.791627749E-02 4.651433866E-01
 -2.467544804E-02 -2.003695250E-02 7.069187956E-01
 2.896717291E-01 9.405331078E-02 -4.420781722E-01
 7.552920163E-01 4.940041942E-02 -3.040763005E-01
 9.021620541E-01 2.875370071E-02 -6.791136603E-02
 1.439240675E-01 8.502549927E-02 -2.626336093E-01
 1.461369164E-01 6.343080003E-02 -2.925089438E-01
 1.833503903E-01 7.116204784E-02 -3.383487869E-01
 2.005560409E-01 8.200656073E-02 -3.445907590E-01
 2.260053363E-01 8.590206318E-02 -3.778595952E-01
 1.261369829E-01 7.051310812E-02 -2.513395286E-01
 8.389684615E-01 4.121082943E-02 -1.872888454E-01
 8.667750029E-01 3.578324540E-02 -1.425291333E-01
 1.757265876E-01 5.934088003E-02 -3.401422024E-01
 2.372163239E-01 6.727498028E-02 -4.124726388E-01
 3.735626947E-01 7.116985884E-02 -5.465803647E-01
 3.619847872E-01 7.402724773E-02 -5.342599343E-01
 3.532231982E-01 9.052244076E-02 -5.087428200E-01
 2.563229056E+00 2.043435449E-01 1.985392871E-03
 4.946645931E-01 4.947297701E-01 -2.492131341E-01
 1.432489476E-01 5.133410046E-02 -3.024420921E-01
 4.293189590E-02 -7.448858434E-02 3.178813279E-02
 8.755866526E-02 -1.048191005E-01 -1.455947185E-01
 1.596490075E-01 -6.934092875E-02 -3.901663141E-01
 1.005365275E-01 -5.767504681E-02 -2.640877224E-01
 6.057576069E-01 7.415694229E-01 -1.823117842E-01
 2.129590221E-01 6.602065313E-02 -3.811857737E-01
 -2.762305517E-04 6.536210631E-02 2.476461431E-01
 4.303250149E-01 1.158378625E-01 -5.354947867E-01
 3.151382903E-01 9.260981116E-02 -4.707039626E-01
 3.306951308E-01 7.947734296E-02 -5.013270843E-01
 2.982961309E-01 7.404713049E-02 -4.735061461E-01
 7.007968137E-01 1.146608103E-01 -3.572434945E-01
 6.732745258E-01 9.172429936E-02 -4.059907090E-01
 6.393853286E-01 9.469290560E-02 -4.555240696E-01
 6.086907290E-01 1.157011492E-01 -4.881053185E-01
 6.110766777E-01 8.796975378E-02 -5.060336164E-01
 6.109137353E-01 7.012850166E-02 -5.207826928E-01
 5.843075702E-01 9.468470610E-02 -5.401646392E-01
 5.755068807E-01 7.735691953E-02 -5.681667423E-01
 5.583473724E-01 8.996035842E-02 -5.736973590E-01
 7.009743384E-01 8.682506986E-02 -3.674198594E-01
 5.371430712E-01 8.339123805E-02 -5.945371209E-01
 7.551777559E-01 6.517148147E-02 -2.991342043E-01
 9.763421724E-01 3.868603730E-02 1.185006090E-01
 9.351863477E-01 3.554527495E-02 2.012279800E-02
 1.560568610E-02 -4.571205103E-02 2.585983270E-01
 3.139490404E-02 -3.413192320E-02 4.791200655E-02
 5.128636550E-01 8.651851262E-02 -5.964468155E-01
 8.931060230E-02 6.889823245E-02 -1.667148389E-01
 5.040544064E-02 6.403864007E-02 -3.749504537E-02
 2.921970617E-02 5.022270115E-02 3.655801462E-02
 3.497136446E-03 3.602974260E-02 3.072174866E-01
 6.392690107E-03 1.363860059E-02 2.547457247E-01
 1.212837869E-02 1.847019622E-02 1.232916736E-01
 -1.542024644E-02 2.129339526E-02 6.345163511E-01
 1.103948800E-03 1.033572397E-02 4.755349983E-01
 -9.331768907E-03 8.663594974E-04 9.137957490E-01
 5.632464801E-02 4.102896427E-02 -1.379485873E-01
 8.914000293E-02 5.063461140E-02 -1.991214075E-01
 7.136433114E-02 -7.586150784E-02 -1.083769662E-01
 8.329012527E-02 -5.988580613E-02 -2.103389770E-01
 5.270557981E-02 -5.576521602E-02 -7.007395625E-02
 1.002460072E-01 -8.002881864E-02 -2.286218106E-01
 1.205985837E-01 -1.124063289E-01 -2.421142956E-01
 9.243651577E-02 -1.579014328E-01 -1.015961354E-01
 3.353179157E-02 -5.346906678E-02 7.085827506E-02
 5.562605509E-02 -2.466476232E-01 7.041570974E-03
 2.542927016E-01 -2.998150897E-01 -2.671820011E-01
 2.793109789E-01 -1.933010326E-01 -4.069126816E-01
 3.720157199E-01 -2.548132600E-01 -3.870825705E-01
 3.108621309E-01 -7.492160936E-02 -6.510063732E-01
 3.683216083E-01 -1.650215358E-01 -5.108957622E-01
 4.581345346E-01 -1.924505059E-01 -3.950037334E-01
 4.599660244E-01 -7.455492436E-02 -5.302606660E-01
 3.806170030E-01 -7.942249227E-02 -7.033739126E-01
 4.748573926E-01 -2.958016553E-01 -2.740628848E-01
 5.525978583E-01 -2.242700079E-01 -1.980229626E-01
 2.179691325E-01 -1.574352117E-01 -3.750103232E-01
 2.389269050E-01 -7.730015524E-02 -5.262220751E-01
 5.333015848E-01 -1.516772906E-01 -2.583361775E-01
 5.477728298E-01 -6.225798582E-02 -2.406834641E-01
 5.200661257E-01 -6.496303092E-02 -3.298040787E-01
 6.120993762E-01 -1.577771879E-01 -9.174856246E-02
 6.395444588E-01 -4.770086854E-02 -3.314036036E-02
 6.420876906E-01 -2.204076951E-01 -4.539589051E-02
 7.026201692E-01 -1.506936351E-01 3.702290295E-02
 8.430621365E-01 -2.044296414E-02 2.797566320E-01
 8.169025364E-01 -2.414992391E-02 2.429522079E-01
 8.667315860E-01 -1.908028382E-02 3.072013526E-01
 7.335750011E-01 -3.109425439E-02 1.293866491E-01
 7.457744141E-01 -2.402065008E-01 4.890362679E-02
 8.002238426E-01 -1.576436501E-01 1.379143952E-01
 8.395431605E-01 -2.346030704E-01 1.255871590E-01
 9.691348917E-01 -1.365051961E-02 3.511818207E-01
 9.093013770E-01 -1.510999074E-01 2.023715361E-01
 9.571536217E-01 -2.598838297E-01 1.368725134E-01
 1.025808905E+00 -1.591599126E-01 1.855867052E-01
 1.073365313E+00 -2.564360907E-01 1.288542474E-01
 1.157189936E+00 -1.662229796E-01 1.137704995E-01
 1.093582767E+00 -6.042866947E-02 1.584800785E-01
 1.214504950E+00 -4.117313792E-02 8.973717506E-02
 1.159270817E+00 4.695245282E-02 9.971693206E-02
 1.306974434E+00 7.027899130E-02 5.111747034E-02
 8.455025569E-01 -1.051394620E-01 2.065971798E-01
 9.310530898E-01 -8.866400035E-02 2.645452742E-01
 9.350331140E-01 -8.725190435E-03 3.637756800E-01
 7.950138096E-01 -9.520126960E-02 1.697611044E-01
 1.007265204E+00 -4.151184155E-01 8.972751460E-02
 1.250228943E+00 -3.142569562E-01 7.631180404E-02
 8.891723858E-01 -5.990187317E-02 2.820696388E-01
 6.553545115E-01 -1.093093859E-01 -1.629991666E-02
 7.185845529E-01 -9.421913658E-02 7.699736244E-02
 7.059324917E-01 -4.115892319E-02 8.227333262E-02
 3.077702897E-01 -1.382517621E-01 -5.232238730E-01
 4.243013261E-01 -1.380666531E-01 -5.349467095E-01
 6.371912105E-01 -3.278830547E-01 -7.642314866E-02
 5.719747539E-01 -1.058938078E-01 -1.650753806E-01
 8.234692615E-01 -6.636049440E-02 2.176351140E-01
 9.654781806E-01 -6.689547061E-01 3.493549945E-02
 3.506401319E-01 -1.204114277E-01 -5.993345058E-01
 3.879566440E-01 -1.190111007E-01 -6.068809089E-01
 5.175940649E-01 -4.694712561E-01 -1.552007235E-01
 6.821999779E-01 -7.982344136E-02 3.262655973E-02
 5.263565373E-01 -1.039957861E-01 -2.878858225E-01
 4.812477560E-01 -1.217058541E-01 -4.142894048E-01
 7.910485501E-01 -6.059995590E-02 1.873752559E-01
 7.571078026E-01 -3.110861339E-02 1.588423419E-01
 1.014528257E+00 -8.022182743E-02 2.447626084E-01
 1.040310895E+00 -2.878006329E-02 2.165107589E-01
 1.066991829E+00 3.607216245E-02 1.524347606E-01
 8.001779204E-01 -3.468013248E-01 6.496554907E-02
 1.383778908E+00 -1.078819585E-01 5.326639060E-02
 4.482601524E-01 -1.087043540E-01 -5.174808305E-01
 1.549705640E+00 8.869306399E-02 1.838519360E-02
 1.387278380E+00 2.738883104E-01 1.934823167E-02
 7.557101003E-01 -7.415798002E-02 1.362461921E-01
 9.996017892E-01 -4.240559445E-02 2.864948264E-01
 1.086827542E+00 1.375223351E-01 7.901317074E-02
 5.326913278E-01 -6.410276618E-02 -2.876144704E-01
 5.444584280E-01 -8.124592264E-02 -2.455536437E-01
 5.630145011E-01 -7.299312327E-02 -1.973717737E-01
 6.043670753E-01 -8.596487493E-02 -1.052746081E-01
 6.109409064E-01 -5.322445119E-02 -8.732678677E-02
 6.296915823E-01 -8.875225432E-02 -5.572376455E-02
 4.220614887E-01 -9.920239828E-02 -5.994344341E-01
 6.236839502E-01 -4.884193451E-02 -6.036730139E-02
 5.598224715E-01 -5.794509175E-02 -2.081388368E-01
 3.833288698E-01 -3.785323338E-01 -2.394255225E-01
 4.450128316E-01 -7.195071505E-02 -5.872473019E-01
 3.201277059E-01 -1.073417882E-01 -5.939341837E-01
 2.827230556E-01 -1.103130389E-01 -5.476951005E-01
 7.439996530E-01 -3.008781076E-02 1.418867787E-01
 7.405392253E-01 -4.656221745E-02 1.327237571E-01
 7.169530990E-01 -6.273474028E-02 8.937230942E-02
 4.317734819E-01 -7.705177783E-02 -6.205218882E-01
 3.989011537E-01 -8.855813664E-02 -6.681902479E-01
 7.223890889E-01 -3.817936428E-02 1.099119618E-01
 6.926027077E-01 -5.488170554E-02 5.532772793E-02
 1.006019669E+00 3.855097076E-02 1.811929709E-01
 6.545190083E-01 -4.670299466E-02 -7.623205154E-04
 6.496313554E-01 -6.738496026E-02 -1.495298994E-02
 6.709486698E-01 -5.574571044E-02 2.308916757E-02
 7.544304949E-01 -1.143831343E-01 1.155000237E-01
 2.354501138E-01 -4.637447444E-01 -1.001244424E-01
 4.974858733E-01 -9.525294804E-02 -3.847530223E-01
 4.711559376E-01 -9.443379673E-02 -4.678245369E-01
 4.769567139E-01 -7.668631338E-02 -4.605213779E-01
 1.597204028E-01 -1.561896164E-01 -2.961175365E-01
 3.720178560E-01 -9.712936516E-02 -6.609159661E-01
 3.646229153E-01 -8.238606915E-02 -7.006847260E-01
 3.477903665E-01 -9.070802608E-02 -6.603707481E-01
 3.269882481E-01 -8.807540792E-02 -6.433555104E-01
 8.097695190E-01 -4.329622394E-02 2.212649139E-01
 7.722476452E-01 -4.484458529E-02 1.708509012E-01
 8.007101296E-01 -2.983461798E-02 2.208287400E-01
 8.330650719E-01 -3.744482634E-02 2.540779626E-01
 8.548378526E-01 -3.611771252E-02 2.815721845E-01
 8.744149483E-01 -3.898922211E-02 2.898485770E-01
 8.806628041E-01 -1.825100766E-02 3.230974381E-01
 8.957987126E-01 -3.062086163E-02 3.169672122E-01
 9.167226388E-01 -2.451667509E-02 3.387725560E-01
 9.211311546E-01 -5.122424426E-02 3.047135226E-01
 9.392154185E-01 -3.666037193E-02 3.268624032E-01
 9.486470117E-01 -1.890172997E-02 3.541406987E-01
 9.664750099E-01 -3.455092051E-02 3.151442442E-01
 9.902194842E-01 -2.254790849E-02 3.628971444E-01
 1.015391966E+00 -1.904868314E-02 3.469105381E-01
 1.025785716E+00 5.462162961E-03 2.266836938E-01
 5.751589532E-01 -6.859132117E-01 -8.720408109E-02
 6.005380617E-01 -6.482441471E-02 -1.097095102E-01
 6.924790107E-01 -3.916991282E-02 6.148166569E-02
 8.913771213E-01 -1.290229101E-02 3.373998710E-01
 9.388153765E-01 2.233654946E-02 3.566688738E-02
 5.073283669E-01 -7.946708802E-02 -3.463248484E-01
 6.819784921E-01 6.025808156E-02 -4.108477859E-01
 5.140141994E-01 7.031958860E-02 -6.167490146E-01
 1.727411504E+00 -1.449240096E-01 1.730070329E-02
 9.227193947E-01 -1.064658596E-02 3.594076616E-01
 4.901269412E-01 7.126580463E-02 -6.166171187E-01
 6.671285111E-01 -4.178320312E-02 2.187680998E-02
 7.093935123E-01 6.849996872E-02 -3.625271577E-01
 1.001568697E+00 5.721953059E-01 -8.225225956E-02
 8.546177494E-01 -1.746428327E-02 2.965707641E-01
 7.706152726E-01 -2.730260787E-02 1.823132711E-01
 6.750838395E-01 7.118923466E-02 -4.134827667E-01
 6.575144254E-01 7.287423128E-02 -4.411954523E-01
 3.133974596E+00 6.339745962E-01 8.518716422E-04
 9.280056959E-01 2.358343291E-02 3.534086196E-03
 6.352273410E-01 6.121914831E-02 -4.889528622E-01
 1.186677931E-01 5.246058132E-02 -2.589362004E-01
 1.088720702E-01 6.524960202E-02 -2.160871828E-01