TITLE     = "Visualization of the solution"
VARIABLES = "x"
"y"
"Pressure_Coefficient"
ZONE T="Zone"
 STRANDID=0, SOLUTIONTIME=0
 Nodes=706, Elements=1197, ZONETYPE=FEQuadrilateral
 DATAPACKING=POINT
 DT=(DOUBLE DOUBLE DOUBLE )
 9.998611808E-01 5.070655025E-04 2.979381148E-01
 9.883543253E-01 2.800565679E-03 2.870704027E-01
 9.754492044E-01 5.357241258E-03 1.842295449E-01
 9.580757618E-01 8.752841502E-03 1.392390537E-01
 9.427070618E-01 1.180109289E-02 8.096012090E-02
 9.267330170E-01 1.494559832E-02 3.950690626E-02
 9.149610996E-01 1.728416979E-02 -7.527326799E-03
 9.031279087E-01 1.963510551E-02 -3.770197622E-02
 8.909270167E-01 2.192720398E-02 -6.829438530E-02
 8.792404532E-01 2.418177202E-02 -1.020135659E-01
 8.665574789E-01 2.651840262E-02 -1.292777277E-01
 8.540861607E-01 2.880358137E-02 -1.605157055E-01
 8.416211009E-01 3.102326766E-02 -1.902033701E-01
 8.308469057E-01 3.290848434E-02 -2.118637168E-01
 8.189959526E-01 3.490883484E-02 -2.267216102E-01
 8.061811328E-01 3.702851757E-02 -2.494123610E-01
 7.936215401E-01 3.910393640E-02 -2.800443937E-01
 7.810451388E-01 4.112972692E-02 -3.082576444E-01
 7.688062191E-01 4.304076359E-02 -3.295909806E-01
 7.570257783E-01 4.482452571E-02 -3.486877382E-01
 7.439688444E-01 4.675709829E-02 -3.760535952E-01
 7.305835485E-01 4.871073738E-02 -4.041308782E-01
 7.200672030E-01 5.018709227E-02 -4.256353247E-01
 7.091506124E-01 5.168053508E-02 -4.470190390E-01
 6.977029443E-01 5.320820585E-02 -4.707465650E-01
 6.843469143E-01 5.492404848E-02 -5.051225954E-01
 6.713947654E-01 5.653988570E-02 -5.412919366E-01
 6.615453959E-01 5.771031231E-02 -5.680545564E-01
 6.500456333E-01 5.902048200E-02 -5.992751226E-01
 6.380684972E-01 6.033667549E-02 -6.298202264E-01
 6.266179085E-01 6.151886657E-02 -6.562518002E-01
 6.151722670E-01 6.264007092E-02 -6.853729151E-01
 6.045218110E-01 6.363328546E-02 -7.136319728E-01
 5.921612978E-01 6.470576674E-02 -7.435360535E-01
 5.810404420E-01 6.562315673E-02 -7.671056364E-01
 5.680084229E-01 6.659566611E-02 -7.795672356E-01
 5.561806560E-01 6.739533693E-02 -7.799594918E-01
 5.445756912E-01 6.809543073E-02 -7.769344007E-01
 5.339955091E-01 6.868151575E-02 -7.746134119E-01
 5.229647756E-01 6.923145056E-02 -7.696172789E-01
 5.109472275E-01 6.975539029E-02 -7.661056342E-01
 4.998510182E-01 7.017021626E-02 -7.611135689E-01
 4.870998859E-01 7.059527934E-02 -7.435525238E-01
 4.735027850E-01 7.090401649E-02 -7.193211868E-01
 4.599078298E-01 7.113786787E-02 -7.045833842E-01
 4.470820725E-01 7.129387558E-02 -6.904938506E-01
 4.345916510E-01 7.135277987E-02 -6.778478546E-01
 4.221782088E-01 7.136156410E-02 -6.646714371E-01
 4.098263979E-01 7.127413154E-02 -6.491164819E-01
 3.977762163E-01 7.112974674E-02 -6.382460987E-01
 3.854519725E-01 7.092427462E-02 -6.272263444E-01
 3.738443851E-01 7.065694034E-02 -6.150330138E-01
 3.610754609E-01 7.031200081E-02 -6.032908085E-01
 3.484860659E-01 6.988297403E-02 -5.907566871E-01
 3.352195323E-01 6.936462224E-02 -5.812526694E-01
 3.239397407E-01 6.886336952E-02 -5.667833156E-01
 3.110299706E-01 6.819944829E-02 -5.523609165E-01
 2.977127433E-01 6.745458394E-02 -5.387724896E-01
 2.836626470E-01 6.656531245E-02 -5.265001374E-01
 2.714066207E-01 6.571426988E-02 -5.174449576E-01
 2.594572008E-01 6.481837481E-02 -5.058152232E-01
 2.469563335E-01 6.378845870E-02 -4.917088827E-01
 2.344856858E-01 6.267870218E-02 -4.770591439E-01
 2.220376730E-01 6.148653105E-02 -4.643536208E-01
 2.101697773E-01 6.026868150E-02 -4.519357805E-01
 1.984926313E-01 5.899096653E-02 -4.379910842E-01
 1.859273463E-01 5.751306936E-02 -4.233879470E-01
 1.739379317E-01 5.600029230E-02 -4.085949983E-01
 1.626085341E-01 5.447747931E-02 -3.881903877E-01
 1.505770087E-01 5.274323747E-02 -3.697692007E-01
 1.399002373E-01 5.111380294E-02 -3.489367682E-01
 1.279431581E-01 4.915791005E-02 -3.301550689E-01
 1.164674610E-01 4.714821279E-02 -3.082469734E-01
 1.058896109E-01 4.517152533E-02 -2.860759469E-01
 9.593104571E-02 4.317854717E-02 -2.641211578E-01
 8.481566608E-02 4.079853371E-02 -2.253255529E-01
 7.313159853E-02 3.808333352E-02 -1.854985482E-01
 6.328447908E-02 3.559465334E-02 -1.431533562E-01
 5.341776088E-02 3.287537396E-02 -9.690598511E-02
 4.492915049E-02 3.032066487E-02 -4.429448101E-02
 3.770180047E-02 2.794383466E-02 8.801579132E-03
 3.130873665E-02 2.565713786E-02 6.849339337E-02
 2.573463134E-02 2.347034775E-02 1.130995969E-01
 2.170860954E-02 2.175759897E-02 1.628172612E-01
 1.787849143E-02 1.999191381E-02 2.311667686E-01
 1.477571856E-02 1.843679510E-02 2.950879493E-01
 1.186641585E-02 1.685263589E-02 3.332462173E-01
 9.767597541E-03 1.559887361E-02 3.606630079E-01
 7.958594710E-03 1.444281638E-02 4.034744761E-01
 6.269836333E-03 1.325212047E-02 4.352669974E-01
 4.036240745E-03 1.148828119E-02 5.448875742E-01
 2.077491721E-03 9.644762613E-03 6.576045402E-01
 4.756579292E-04 7.763613947E-03 8.116826586E-01
 -1.084714546E-03 5.060847849E-03 8.906226248E-01
 -1.669672783E-03 3.090811661E-03 8.097000399E-01
 -1.786332112E-03 1.515628886E-03 1.069636457E+00
 -1.585521852E-03 -7.755953993E-05 8.855063388E-01
 -1.099423156E-03 -1.578055671E-03 1.075784134E+00
 -1.267353364E-04 -3.383936826E-03 5.425434245E-01
 1.280052471E-03 -5.189355928E-03 6.923260330E-01
 3.212106181E-03 -7.052551955E-03 4.732367276E-01
 4.976533353E-03 -8.445784450E-03 1.835572809E-01
 6.934610661E-03 -9.770043194E-03 9.980041901E-02
 8.577847853E-03 -1.076037623E-02 3.960534911E-02
 1.066508237E-02 -1.189518068E-02 4.753447302E-02
 1.296143048E-02 -1.303130295E-02 2.985124316E-02
 1.624549367E-02 -1.448510215E-02 -4.670938521E-02
 1.908354089E-02 -1.562019158E-02 -8.857898539E-02
 2.275440097E-02 -1.696269214E-02 -1.191346685E-01
 2.799164131E-02 -1.867838949E-02 -1.341071582E-01
 3.372515365E-02 -2.036136016E-02 -1.564111785E-01
 4.071522877E-02 -2.220195718E-02 -1.816942299E-01
 4.835257679E-02 -2.401440218E-02 -1.994399136E-01
 5.742627010E-02 -2.596233226E-02 -2.122530590E-01
 6.625399739E-02 -2.769794874E-02 -2.252222470E-01
 7.625143230E-02 -2.950515971E-02 -2.351834425E-01
 8.634670079E-02 -3.120267019E-02 -2.455522882E-01
 9.652568400E-02 -3.279710934E-02 -2.576968790E-01
 1.077078134E-01 -3.443772346E-02 -2.656629063E-01
 1.190347895E-01 -3.600223735E-02 -2.753219099E-01
 1.309487522E-01 -3.754309937E-02 -2.876619603E-01
 1.420001537E-01 -3.889852762E-02 -2.984710358E-01
 1.531073749E-01 -4.019057378E-02 -3.082404648E-01
 1.655345261E-01 -4.155754298E-02 -3.204226425E-01
 1.774026006E-01 -4.278644547E-02 -3.333345227E-01
 1.896275282E-01 -4.397956282E-02 -3.469155364E-01
 2.006659210E-01 -4.500056058E-02 -3.609401920E-01
 2.120424211E-01 -4.598173872E-02 -3.739928783E-01
 2.244982868E-01 -4.698810726E-02 -3.881240358E-01
 2.377378941E-01 -4.798283800E-02 -4.049342374E-01
 2.503561080E-01 -4.885351658E-02 -4.257001490E-01
 2.628131807E-01 -4.962570965E-02 -4.422917519E-01
 2.743392885E-01 -5.028298125E-02 -4.599027309E-01
 2.870664895E-01 -5.090382323E-02 -4.751828039E-01
 2.998380363E-01 -5.145161599E-02 -4.917613585E-01
 3.126851618E-01 -5.188864842E-02 -5.096480354E-01
 3.248128593E-01 -5.222117156E-02 -5.244740031E-01
 3.373867869E-01 -5.246211961E-02 -5.385820347E-01
 3.485382199E-01 -5.257650465E-02 -5.508890774E-01
 3.600026071E-01 -5.261218175E-02 -5.597632002E-01
 3.708725572E-01 -5.254894122E-02 -5.672440681E-01
 3.817471564E-01 -5.240335315E-02 -5.695603883E-01
 3.933226168E-01 -5.213439837E-02 -5.663064529E-01
 4.064708352E-01 -5.170814320E-02 -5.548817078E-01
 4.190032184E-01 -5.117212608E-02 -5.429774141E-01
 4.316637814E-01 -5.049028248E-02 -5.201936159E-01
 4.439648092E-01 -4.971405119E-02 -4.910318749E-01
 4.554336071E-01 -4.887089878E-02 -4.605596967E-01
 4.669186473E-01 -4.794557020E-02 -4.281070940E-01
 4.791107476E-01 -4.684806615E-02 -3.945600973E-01
 4.902771711E-01 -4.575207084E-02 -3.557801605E-01
 5.028150082E-01 -4.445036128E-02 -3.149025483E-01
 5.164427757E-01 -4.295306653E-02 -2.771404387E-01
 5.297188163E-01 -4.140783474E-02 -2.401991604E-01
 5.429959297E-01 -3.979036957E-02 -2.016830637E-01
 5.551180840E-01 -3.827420250E-02 -1.662461755E-01
 5.684188008E-01 -3.656437248E-02 -1.341840455E-01
 5.809230804E-01 -3.492243960E-02 -1.037535453E-01
 5.928450227E-01 -3.335174918E-02 -7.731087449E-02
 6.050823331E-01 -3.170296922E-02 -5.151564978E-02
 6.194786429E-01 -2.974417247E-02 -2.040338835E-02
 6.339425445E-01 -2.779960074E-02 7.520479540E-03
 6.488502026E-01 -2.577322721E-02 3.129114707E-02
 6.615702510E-01 -2.403125539E-02 5.814132236E-02
 6.746941805E-01 -2.226904966E-02 8.123538513E-02
 6.869432926E-01 -2.065138519E-02 9.854008963E-02
 6.992021203E-01 -1.903583109E-02 1.165284285E-01
 7.133640051E-01 -1.720457524E-02 1.358412950E-01
 7.261192799E-01 -1.555500180E-02 1.547421346E-01
 7.381959558E-01 -1.402627770E-02 1.746159095E-01
 7.514315248E-01 -1.238809526E-02 1.920294092E-01
 7.631258368E-01 -1.097354107E-02 2.103049169E-01
 7.764975429E-01 -9.416819550E-03 2.251028483E-01
 7.878251672E-01 -8.116967045E-03 2.437677993E-01
 8.010479212E-01 -6.705485284E-03 2.577367544E-01
 8.116919398E-01 -5.568397231E-03 2.731066771E-01
 8.233819008E-01 -4.401714541E-03 2.899807995E-01
 8.366998434E-01 -3.165661823E-03 3.047067532E-01
 8.492235541E-01 -2.076967387E-03 3.187847644E-01
 8.614224792E-01 -1.125150127E-03 3.318242626E-01
 8.735762239E-01 -2.931621566E-04 3.419599471E-01
 8.858584166E-01 4.221376439E-04 3.501892921E-01
 8.989340663E-01 1.066417783E-03 3.574915159E-01
 9.092351198E-01 1.447801711E-03 3.643943032E-01
 9.202193022E-01 1.735979342E-03 3.656938833E-01
 9.297854304E-01 1.900502713E-03 3.650340314E-01
 9.383294582E-01 1.976088388E-03 3.660287941E-01
 9.500630498E-01 1.969416160E-03 3.590993927E-01
 9.622359872E-01 1.835288713E-03 3.694893749E-01
 9.759942889E-01 1.522810548E-03 3.388265928E-01
 9.878980517E-01 1.104550203E-03 3.975593703E-01
 -5.000000000E-01 -1.000000000E+00 5.181058541E-02
 3.500000000E+00 -1.000000000E+00 1.308984200E-02
 3.500000000E+00 1.000000000E+00 -2.189364946E-03
 -5.000000000E-01 1.000000000E+00 4.974309493E-02
 -5.000000000E-01 5.000000000E-01 9.692653005E-02
 -5.000000000E-01 2.752797990E-12 1.460331892E-01
 -5.000000000E-01 -5.000000000E-01 9.774944342E-02
 -9.421907698E-13 -1.000000000E+00 2.628345734E-02
 5.000000000E-01 -1.000000000E+00 -2.221398417E-03
 1.000000000E+00 -1.000000000E+00 1.476161265E-02
 1.500000000E+00 -1.000000000E+00 3.832461084E-02
 2.000000000E+00 -1.000000000E+00 3.423521754E-02
 2.500000000E+00 -1.000000000E+00 2.267143063E-02
 3.000000000E+00 -1.000000000E+00 1.561446121E-02
 3.500000000E+00 -5.000000000E-01 1.281836607E-02
 3.500000000E+00 -2.752797990E-12 1.109177482E-02
 3.500000000E+00 5.000000000E-01 4.452170549E-03
 3.000000000E+00 1.000000000E+00 -8.967753962E-03
 2.500000000E+00 1.000000000E+00 -1.891475836E-02
 2.000000000E+00 1.000000000E+00 -3.778249716E-02
 1.500000000E+00 1.000000000E+00 -8.595584189E-02
 1.000000000E+00 1.000000000E+00 -1.503224318E-01
 5.000000000E-01 1.000000000E+00 -9.701665931E-02
 1.733724275E-12 1.000000000E+00 1.272518274E-02
 6.835215891E-01 -3.387569873E-02 8.923361794E-02
 7.825809391E-01 -2.229990263E-02 2.276649361E-01
 9.018488635E-01 -1.018706903E-02 3.461829420E-01
 5.877372274E-01 -4.455794384E-02 -8.876706855E-02
 4.989909586E-01 -5.669586391E-02 -3.180492397E-01
 2.791918146E-01 -6.330631018E-02 -4.466069508E-01
 7.047193729E-01 6.213048465E-02 -4.494059715E-01
 2.894477378E-01 8.232764664E-02 -5.159658213E-01
 3.782617310E-01 7.994225355E-02 -6.085570688E-01
 9.114123101E-01 3.212797420E-02 -1.773236902E-02
 8.156767012E-01 5.128950572E-02 -2.284824316E-01
 1.822241430E-01 -5.789485486E-02 -3.235749441E-01
 6.098244019E-01 7.435548432E-02 -6.866783886E-01
 3.774923604E-01 -6.415133966E-02 -5.452075930E-01
 1.907569370E-01 7.230413464E-02 -4.083699635E-01
 5.167170709E-01 8.136639409E-02 -7.490822678E-01
 1.838683078E+00 -5.970482535E-01 2.982053358E-02
 1.783314953E+00 6.458196835E-01 -2.416098905E-02
 3.031161591E+00 2.156905467E-01 4.608019269E-03
 7.922394716E-01 -6.021625060E-01 2.619019616E-02
 7.971572272E-01 5.347751289E-01 -2.336672109E-01
 2.896918754E-01 6.799486549E-01 -1.166494162E-01
 2.734882387E+00 -5.326571455E-01 1.314072150E-02
 1.191466682E+00 6.791349284E-01 -8.399126588E-02
 1.008063044E+00 3.585454843E-01 -5.230021107E-02
 1.288888933E+00 -6.070252918E-01 5.562606896E-02
 1.524174082E+00 -2.415425135E-01 3.878289315E-02
 2.500000000E-01 -5.669872981E-01 -4.962763316E-02
 6.890581672E-02 -3.745864301E-02 -1.997535947E-01
 2.249355179E+00 -5.881867333E-01 1.973677018E-02
 2.038213935E+00 -2.294810173E-01 1.404180530E-02
 2.422543703E+00 -1.893482533E-01 8.314233225E-03
 2.184736465E+00 1.584994639E-01 -9.152646644E-04
 1.782970099E+00 1.017566134E-01 7.603920351E-03
 -2.712351862E-01 -2.475233294E-01 1.609929368E-01
 -1.563290232E-01 -5.627781972E-01 6.560069764E-02
 -2.716336584E-01 2.369948577E-01 1.600238892E-01
 1.095147904E-01 5.506307262E-02 -2.701901224E-01
 -6.698329180E-02 6.047562961E-01 1.774458282E-02
 1.396239425E-01 3.739675405E-01 -9.791861135E-02
 2.239798322E+00 5.544450094E-01 -1.211414069E-02
 2.746124759E+00 5.960621818E-01 -4.364656222E-03
 -2.349193581E-01 2.212688733E-03 2.126089293E-01
 -1.269004382E-01 -1.259606478E-01 2.350098746E-01
 3.224541172E-02 -3.715174245E-01 2.177443545E-02
 1.241860172E-01 -4.984819236E-02 -2.622755876E-01
 2.709981593E-01 -2.966812889E-01 -1.889851282E-01
 4.390905841E-01 -6.361620029E-02 -4.770443408E-01
 -1.101805843E-01 1.271362618E-01 2.503485692E-01
 5.757714799E-02 4.494136211E-02 -8.545518004E-02
 -6.569770203E-02 3.243481686E-01 8.772466216E-02
 2.755044479E-03 1.823338799E-01 1.249968091E-01
 1.552701373E-01 2.314249081E-01 -1.887587293E-01
 2.396725505E-01 7.727366059E-02 -4.670711182E-01
 2.638297734E-01 8.089684053E-02 -4.924886655E-01
 -2.659064418E-02 1.044876268E-01 2.942204097E-01
 2.675452335E-02 3.080433065E-02 1.284000019E-01
 -1.102806192E-01 2.384734819E-02 3.485583631E-01
 -7.011844047E-02 -5.490366211E-02 3.711310506E-01
 3.051844260E-02 -2.534686441E-02 -1.049450578E-01
 3.475175430E-02 1.132327178E-01 9.739069404E-02
 3.109379797E+00 -2.612447036E-01 1.094510772E-02
 -5.150818448E-02 3.917938159E-02 4.323420040E-01
 -5.047919956E-02 -1.088361649E-02 5.499517702E-01
 -2.095867376E-02 -5.227562990E-02 4.049094102E-01
 -3.513948931E-02 -1.026246593E-01 2.574463183E-01
 3.790726544E-02 -1.158005738E-01 6.250479409E-02
 -1.723929242E-02 -1.900394506E-01 1.232324183E-01
 7.863938859E-02 -1.908035297E-01 -5.338717425E-02
 9.901844697E-02 -1.080532062E-01 -1.518328844E-01
 1.627604462E-01 -1.445312439E-01 -2.143623058E-01
 2.295269688E-01 -6.110919426E-02 -3.809311314E-01
 1.580431487E-01 -2.564559075E-01 -1.215833006E-01
 2.384406073E-01 -1.901941372E-01 -2.643614293E-01
 3.319241892E-01 -6.382399246E-02 -5.113299325E-01
 3.058948005E-01 -6.245264242E-02 -4.818639940E-01
 3.823354792E-01 -2.175708885E-01 -2.979781365E-01
 4.006021264E-01 -3.602423150E-01 -1.697592636E-01
 4.814920833E-01 -2.362221902E-01 -2.150854128E-01
 4.379835894E-01 -1.604483785E-01 -3.361545121E-01
 5.341870177E-01 -1.627058640E-01 -1.730249125E-01
 5.543070725E-01 -5.120645109E-02 -1.660031458E-01
 5.231876465E-01 -5.550951706E-02 -2.489009268E-01
 5.850525420E-01 -2.316336216E-01 -8.649499799E-02
 6.294648695E-01 -1.553697930E-01 -2.279246007E-02
 7.339525708E-01 -2.554328691E-02 1.638720798E-01
 7.575585651E-01 -2.338577744E-02 1.947966720E-01
 6.437013093E-01 -4.506249832E-02 2.020620763E-02
 6.831621246E-01 -2.238128370E-01 3.037516611E-02
 7.285217533E-01 -1.497745691E-01 9.930661068E-02
 8.450307488E-01 -1.455053382E-02 3.026037931E-01
 8.175275439E-01 -1.456354438E-02 2.727327607E-01
 8.666788657E-01 -1.324093919E-02 3.221897052E-01
 7.819104210E-01 -2.208719460E-01 1.149063740E-01
 9.672577994E-01 -1.116852869E-02 3.400575342E-01
 8.274300696E-01 -1.439672284E-01 1.811613599E-01
 8.729078176E-01 -1.997340898E-01 1.659454788E-01
 9.393793118E-01 -1.404919100E-01 2.158797905E-01
 9.842971808E-01 -2.236079211E-01 1.623501397E-01
 1.034834724E+00 -1.302609007E-01 1.930674149E-01
 1.105900506E+00 -2.290869080E-01 1.298595297E-01
 1.145334446E+00 -1.256764450E-01 1.232198943E-01
 1.080066141E+00 -6.379377163E-02 1.704756743E-01
 1.160370495E+00 -1.191339894E-02 1.004972647E-01
 1.031232005E+00 -3.577149513E-01 1.148779045E-01
 3.577952553E-01 -1.420287207E-01 -3.983392126E-01
 1.258873460E+00 -1.091624948E-01 7.790605550E-02
 1.289746523E+00 1.998556103E-02 5.632635819E-02
 1.182473631E+00 1.038494212E-01 7.475970110E-02
 1.344284342E+00 1.824493189E-01 3.003523411E-02
 8.678988109E-01 -8.816233827E-02 2.451807198E-01
 7.679827690E-01 -9.576793558E-02 1.578543379E-01
 6.635960007E-01 -1.063697338E-01 3.528188443E-02
 4.070738963E-01 -1.112547632E-01 -4.404234842E-01
 4.002351774E-01 -6.236110267E-02 -5.373701632E-01
 9.750047067E-01 -8.446568793E-02 2.559089935E-01
 5.793005338E-01 -1.132444703E-01 -1.005028877E-01
 4.879003978E-01 -1.240837017E-01 -2.887384282E-01
 5.427079214E-01 -3.461930418E-01 -1.076020451E-01
 2.277301729E-01 -1.191358334E-01 -3.184782883E-01
 5.379236322E-01 -5.047876365E-01 -8.681345645E-02
 1.155458068E+00 2.565830493E-01 2.169803756E-02
 1.337713656E+00 3.905920537E-01 -8.716018577E-03
 1.500473567E+00 6.698728430E-02 2.365295927E-02
 8.431245662E-01 -3.429848509E-01 9.967738230E-02
 2.916286257E-01 -1.361310467E-01 -3.661470656E-01
 2.688761633E-01 -9.861807864E-02 -3.897585945E-01
 2.569894358E-01 -5.889354867E-02 -4.226772300E-01
 1.445697726E-01 -9.490611973E-02 -2.416335075E-01
 1.563423826E-01 -5.211137777E-02 -2.995190774E-01
 1.232566308E+00 -3.821152991E-01 7.922319867E-02
 3.043781662E-01 -9.681626509E-02 -4.315010203E-01
 3.426751286E-01 -1.017259135E-01 -4.543508098E-01
 3.541922516E-01 -6.402130385E-02 -5.336023438E-01
 3.733250283E-01 -1.021791506E-01 -4.745844362E-01
 -8.771250861E-03 6.055589282E-02 3.868633832E-01
 1.212885624E-02 1.983420666E-02 3.270237935E-01
 3.182154227E-01 -6.442698589E-02 -4.968673040E-01
 3.247683465E-01 -8.015015450E-02 -4.782565865E-01
 2.911875868E-01 -7.925618487E-02 -4.396454885E-01
 3.436569626E-01 -7.519618704E-02 -5.055089465E-01
 1.478871225E+00 5.959657165E-01 -2.622141191E-02
 2.926357455E-01 -6.147411534E-02 -4.679164298E-01
 2.981717978E-02 7.299144615E-02 1.334502690E-01
 4.027295951E-02 3.911743798E-02 1.371809440E-02
 7.926090692E-02 9.362471765E-02 -1.240728721E-01
 1.438274913E-01 6.117487547E-02 -3.380544828E-01
 7.247533453E-02 5.073700925E-02 -1.547344853E-01
 8.741185659E-02 1.620286513E-01 -8.866596518E-02
 1.242718292E-01 1.116337747E-01 -2.202299791E-01
 3.892714027E-01 -6.158497984E-02 -5.497758529E-01
 3.914881448E-01 -7.831127290E-02 -5.135938786E-01
 4.154570765E-01 -7.965956820E-02 -4.946232236E-01
 4.395834645E-01 -9.987416751E-02 -4.119285320E-01
 4.736977632E-01 -8.243440731E-02 -3.648318804E-01
 5.065164228E-01 -8.797515469E-02 -2.748042350E-01
 4.620339053E-01 -6.224279365E-02 -4.188991676E-01
 3.644675481E-01 -7.845897843E-02 -5.123033094E-01
 4.766265739E-01 -6.090727214E-02 -3.821624728E-01
 4.502256032E-01 -7.530817461E-02 -4.322097168E-01
 4.874721425E-01 -5.604111871E-02 -3.560683311E-01
 4.925159859E-01 -6.879522208E-02 -3.268745560E-01
 5.112774824E-01 -6.745685107E-02 -2.747343057E-01
 5.324268097E-01 -7.322148031E-02 -2.176302749E-01
 5.568760379E-01 -7.375855131E-02 -1.511164797E-01
 5.677472261E-01 -5.671084880E-02 -1.337330880E-01
 5.884970620E-01 -6.529752572E-02 -8.630750689E-02
 6.151205859E-01 -4.091342579E-02 -3.263953406E-02
 6.211933089E-01 -9.543497040E-02 -2.733657320E-02
 5.365222893E-01 -1.048952431E-01 -1.942480699E-01
 6.504071377E-01 -7.300290681E-02 2.346901246E-02
 6.833184275E-01 -6.913300166E-02 7.509439293E-02
 7.069348992E-01 -3.046889131E-02 1.221827600E-01
 7.111546941E-01 -1.003442972E-01 9.844645166E-02
 7.453361035E-01 -6.170946446E-02 1.584665764E-01
 7.832425801E-01 -5.788453965E-02 2.056411074E-01
 8.137961232E-01 -8.667893628E-02 2.125145119E-01
 8.500457596E-01 -5.150451820E-02 2.708708576E-01
 8.890655888E-01 -4.822863702E-02 2.980718876E-01
 9.331386691E-01 -6.891038273E-03 3.535047831E-01
 9.162506995E-01 -7.738359851E-02 2.679366186E-01
 9.214710958E-01 -3.936714419E-02 3.140635792E-01
 9.443890272E-01 -6.628184254E-03 3.530564076E-01
 9.374600864E-01 -2.142386996E-02 3.329120939E-01
 9.231225662E-01 -1.704733294E-02 3.408183710E-01
 9.509607943E-01 -4.355070303E-02 3.065980055E-01
 9.900534047E-01 -4.277747538E-02 2.835228392E-01
 9.543450334E-01 -1.952006625E-02 3.360870556E-01
 9.065213678E-01 -2.486738329E-02 3.277383471E-01
 8.894747307E-01 -2.108146234E-02 3.241878451E-01
 6.280039777E-01 -4.106406801E-02 -8.332851794E-03
 6.210421225E-01 -5.767878401E-02 -2.354485576E-02
 1.022211945E+00 -7.040544702E-02 2.316879147E-01
 1.031100746E+00 -3.072939945E-02 2.260522084E-01
 1.061802054E+00 9.524708491E-03 1.703176032E-01
 1.074910971E+00 1.376795590E-01 8.537288973E-02
 9.694800099E-01 2.398905269E-02 1.542714333E-01
 9.033356495E-01 2.012045349E-01 -9.550550360E-02
 7.656550189E-01 5.539508849E-02 -3.292097185E-01
 7.373279890E-01 5.661527125E-02 -3.860740183E-01
 7.883373163E-01 5.268427592E-02 -2.867550466E-01
 8.632348519E-01 4.327437499E-02 -1.362033743E-01
 1.036131416E+00 6.951312472E-02 1.450707829E-01
 7.257527768E-01 5.997736876E-02 -4.073243623E-01
 7.368284368E-01 7.205201343E-02 -3.783779410E-01
 8.715029523E-01 -3.204966075E-02 3.042217539E-01
 7.511650215E-01 5.702583325E-02 -3.579266863E-01
 7.610375622E-01 7.202420581E-02 -3.317244481E-01
 7.492117942E-01 9.709923549E-02 -3.461967528E-01
 6.555514062E-01 6.714445021E-02 -5.770009468E-01
 6.806623661E-01 6.698504394E-02 -5.080248739E-01
 6.451490136E-01 6.961512250E-02 -6.035627197E-01
 6.540626150E-01 7.904015745E-02 -5.707082708E-01
 6.364661046E-01 8.069922959E-02 -6.127030503E-01
 6.469867214E-01 1.048678923E-01 -5.690246079E-01
 5.627803943E-01 7.713984112E-02 -7.629096249E-01
 5.408532270E-01 7.717363882E-02 -7.603810556E-01
 5.739435288E-01 7.925777632E-02 -7.524117735E-01
 5.882604402E-01 7.679821891E-02 -7.358497043E-01
 5.857741775E-01 9.397514526E-02 -7.157004276E-01
 5.614507448E-01 9.814972624E-02 -7.306309594E-01
 4.545841130E-01 8.452787586E-02 -6.813519873E-01
 5.859550934E-01 1.198066453E-01 -6.787982817E-01
 5.562928753E-01 1.261069898E-01 -6.876947652E-01
 5.813676267E-01 1.610195930E-01 -6.249309897E-01
 4.805603936E-01 8.215883551E-02 -7.115184534E-01
 4.300002078E-01 8.592609465E-02 -6.547710017E-01
 6.090380000E-01 1.060219526E-01 -6.568223266E-01
 5.338904289E-01 1.057957471E-01 -7.133076465E-01
 4.946943461E-01 8.304518885E-02 -7.310738459E-01
 4.858434572E-01 1.003630336E-01 -6.943438416E-01
 5.077019320E-01 9.701222792E-02 -7.246861880E-01
 4.997828494E-01 1.220913759E-01 -6.754220351E-01
 4.708511846E-01 1.225318201E-01 -6.479850937E-01
 4.857006697E-01 1.624297923E-01 -6.103863457E-01
 4.671049583E-01 9.727987050E-02 -6.787586664E-01
 4.463992851E-01 1.042983427E-01 -6.462006637E-01
 4.207955977E-01 1.059069650E-01 -6.159319518E-01
 4.050975985E-01 8.627254034E-02 -6.274917563E-01
 3.948182447E-01 1.060586223E-01 -5.941234376E-01
 3.415873710E-01 8.226531138E-02 -5.698269188E-01
 3.164902278E-01 8.168724902E-02 -5.430265328E-01
 4.037543097E-01 1.358689489E-01 -5.658977098E-01
 3.723348860E-01 1.314074301E-01 -5.441071950E-01
 3.876990424E-01 1.682539370E-01 -5.150836040E-01
 7.791783594E-01 6.515283475E-02 -2.999093503E-01
 8.003937059E-01 6.688924139E-02 -2.568182859E-01
 8.285624060E-01 7.309443924E-02 -2.027702581E-01
 8.367512226E-01 4.077587799E-02 -1.971251785E-01
 7.832928474E-01 9.108159442E-02 -2.847183159E-01
 7.659279714E-01 1.224099606E-01 -3.053576275E-01
 7.207661761E-01 1.276178425E-01 -3.804371693E-01
 7.671326314E-01 1.822388764E-01 -2.860578736E-01
 8.094133431E-01 1.231580180E-01 -2.335543909E-01
 8.531502996E-01 1.027206506E-01 -1.545143276E-01
 8.572241702E-01 6.581967638E-02 -1.471745450E-01
 8.921768366E-01 8.133538870E-02 -7.548661286E-02
 8.877162611E-01 3.724041230E-02 -7.802702113E-02
 6.336254972E-01 6.875041017E-02 -6.318369633E-01
 6.663114857E-01 6.797577038E-02 -5.472357635E-01
 6.746523654E-01 8.043477265E-02 -5.183858754E-01
 6.943722201E-01 7.798619830E-02 -4.620172139E-01
 6.870487576E-01 1.034746848E-01 -4.659491252E-01
 6.729576982E-01 1.370311189E-01 -4.884142671E-01
 7.176224578E-01 9.164578043E-02 -4.070704476E-01
 6.247916643E-01 1.346373070E-01 -6.013403531E-01
 6.419389411E-01 1.810262948E-01 -5.273751382E-01
 5.863494068E-01 2.336173587E-01 -5.268102363E-01
 6.821621147E-01 2.488099370E-01 -4.167564769E-01
 5.922587931E-01 3.061198287E-01 -4.777546032E-01
 7.910139173E-01 2.877206619E-01 -2.555016503E-01
 5.015546011E-01 2.832595465E-01 -4.846508883E-01
 4.919624101E-01 4.016141980E-01 -3.397348574E-01
 3.555823041E-01 3.293404226E-01 -3.409315396E-01
 5.206251769E-01 2.014247365E-01 -5.756991245E-01
 6.784466254E-01 3.975792981E-01 -3.463655716E-01
 3.668168115E-01 8.124612654E-02 -5.947421738E-01
 3.729697912E-01 9.649014082E-02 -5.813588843E-01
 3.442274372E-01 1.144195896E-01 -5.334198601E-01
 3.342644127E-01 1.529966514E-01 -4.835075745E-01
 3.015612667E-01 1.224942372E-01 -4.795412324E-01
 2.840590186E-01 1.689132749E-01 -4.127430776E-01
 2.469366408E-01 1.284604895E-01 -4.169469622E-01
 3.311965759E-01 2.154275872E-01 -4.186244993E-01
 2.490402162E-01 2.490420032E-01 -2.867111194E-01
 3.520842644E-01 9.310579835E-02 -5.693759317E-01
 3.268486925E-01 9.594898747E-02 -5.384321483E-01
 3.540099947E-01 7.936244222E-02 -5.845504328E-01
 8.480060123E-01 4.437559725E-02 -1.706331115E-01
 8.796485742E-01 5.247854588E-02 -9.797128399E-02
 9.029464161E-01 5.173800263E-02 -4.233579104E-02
 9.274060414E-01 4.298064157E-02 1.727471476E-02
 9.373779265E-01 2.778881390E-02 5.731613758E-02
 9.514792342E-01 4.040135486E-02 7.935645514E-02
 9.375784729E-01 7.270727643E-02 2.520709012E-02
 9.171368546E-01 1.337836271E-01 -4.668543133E-02
 9.914628476E-01 1.118004670E-01 6.962112167E-02
 9.854931406E-01 5.187766999E-02 1.382557727E-01
 9.935376351E-01 2.133757362E-01 -5.016047789E-03
 9.518239988E-01 2.254663117E-02 1.040946437E-01
 3.431396821E-01 -6.161602152E-02 -5.274297142E-01
 8.010895435E-01 4.928525592E-02 -2.597809010E-01
 4.669014159E-01 8.242171504E-02 -6.981948141E-01
 3.890625924E-01 8.513626307E-02 -6.137883854E-01
 5.399187188E-01 -5.581570068E-02 -2.030445186E-01
 6.231853290E-01 7.270243133E-02 -6.537883472E-01
 6.200229449E-01 8.765382183E-02 -6.480875763E-01
 1.822211971E-02 -6.345792799E-02 1.217067212E-01
 1.668150099E-02 -1.751046785E-02 -2.411406038E-02
 5.984072042E-02 -7.642875770E-02 -9.512877580E-02
 9.251500443E-02 -6.889922363E-02 -1.930980722E-01
 9.116550042E-02 -4.652655899E-02 -2.226268704E-01
 9.600883120E-01 -5.081409424E-01 8.100156765E-02
 7.215839165E-01 -2.890052826E-02 1.428666640E-01
 7.134026559E-01 -4.246938695E-02 1.267632693E-01
 6.968099559E-01 -4.570118078E-02 1.030636328E-01
 6.637036851E-01 -5.105197318E-02 5.152973442E-02
 8.265616478E-01 4.362603357E-02 -2.117524653E-01
 8.600470336E-01 4.000303178E-01 -1.761191140E-01
 8.992259826E-01 3.253373972E-02 -4.869936456E-02
 7.766044105E-01 5.148053793E-02 -3.119379322E-01
 5.760549764E-01 -4.751715578E-02 -1.144242308E-01
 9.242440727E-01 -5.473876164E-03 3.569495868E-01
 9.149543959E-01 -7.067491660E-03 3.513193474E-01
 1.016823104E+00 3.184793147E-02 2.190415081E-01
 1.013078295E+00 -1.274234618E-03 2.722634900E-01
 9.951970862E-01 1.287491949E-02 2.629037349E-01
 1.003910493E+00 -1.834916641E-02 3.024449236E-01
 9.849903099E-01 -1.371080556E-02 3.509181221E-01
 6.017207256E-01 -4.558373296E-02 -6.114279298E-02
 3.654482659E-01 -6.222221466E-02 -5.448017279E-01
 9.235780789E-01 2.702543956E-02 1.766860220E-02
 5.519395147E-01 8.024600174E-02 -7.590396390E-01
 4.501497018E-01 -5.995042370E-02 -4.538687615E-01
 6.946823714E-01 -2.994659742E-02 1.057570664E-01
 4.425314659E-01 8.347979372E-02 -6.707463400E-01
 4.175796022E-01 8.414825913E-02 -6.435601355E-01
 2.563437508E+00 2.031369870E-01 -4.989569537E-04
 6.020037114E-01 8.549793991E-02 -6.982788028E-01
 1.197520519E-01 -7.446840840E-02 -2.263220331E-01
 1.669737884E-01 -7.167054369E-02 -2.895916757E-01
 1.911201641E-01 -6.994107937E-02 -3.215415967E-01
 2.051930397E-01 -5.776022175E-02 -3.521760939E-01
 2.143612490E-01 -7.672437772E-02 -3.420007652E-01
 2.401450742E-01 -8.149355252E-02 -3.743574237E-01
 1.423040277E-01 -6.365052826E-02 -2.665949090E-01
 1.061563489E-01 -5.436161964E-02 -2.336305147E-01
 6.973984069E-02 -5.139776314E-02 -1.658746069E-01
 2.174431097E-01 -5.672376058E-02 -3.690942382E-01
 9.697982475E-01 -2.657095195E-02 3.135010449E-01
 2.761055377E-01 9.782006841E-02 -4.799632799E-01
 3.024661708E-01 9.427767587E-02 -5.135645860E-01
 5.307424915E-01 8.055667379E-02 -7.540226092E-01
 1.937661592E-01 -5.491525588E-02 -3.408629504E-01
 7.175073622E-01 7.164470803E-02 -4.205405978E-01
 8.474391600E-01 1.617381770E-01 -1.599977863E-01
 -2.088406494E-02 3.136329793E-02 5.844804868E-01
 3.675014587E-03 1.690749987E-02 5.190142072E-01
 -2.317808093E-02 6.778304666E-03 7.577782271E-01
 -1.347704141E-02 -1.337516616E-02 7.515002975E-01
 5.108735010E-01 -5.460120538E-02 -2.852053885E-01
 -1.078917057E-01 -2.995638099E-01 1.170911901E-01
 8.548756068E-01 -2.584647446E-02 2.991611320E-01
 8.348549951E-01 -3.162000101E-02 2.733409088E-01
 8.141432584E-01 -5.075424631E-02 2.429806866E-01
 7.691522623E-01 -2.036519955E-02 2.116072212E-01
 7.687578165E-01 -3.711513473E-02 1.975614109E-01
 7.477841130E-01 -3.655632122E-02 1.755336446E-01
 5.405007331E-01 8.921446576E-02 -7.460431284E-01
 4.367095232E-01 2.168821179E-01 -4.951893837E-01
 8.312325213E-01 -1.466190930E-02 2.852715033E-01
 4.555117679E-02 -5.286794178E-02 -8.463450467E-02
 9.673473388E-03 -4.185173592E-02 2.191453537E-01
 4.281849240E-02 -2.999593908E-02 -1.633963351E-01
 3.184307079E-02 -3.864290899E-02 -3.982197086E-02
 5.329941478E-02 -4.036109541E-02 -1.585075097E-01
 4.336659222E-01 -7.685702785E-02 -4.675255382E-01
 4.253400566E-01 -6.385316878E-02 -5.062270261E-01