TITLE     = "Visualization of the solution"
VARIABLES = "x"
"y"
"Pressure_Coefficient"
ZONE T="Zone"
 STRANDID=0, SOLUTIONTIME=0
 Nodes=714, Elements=1213, ZONETYPE=FEQuadrilateral
 DATAPACKING=POINT
 DT=(DOUBLE DOUBLE DOUBLE )
 1.000257730E+00 5.014841445E-04 3.033099594E-01
 9.866681695E-01 2.971481299E-03 2.284165609E-01
 9.731459618E-01 5.418228917E-03 1.578732816E-01
 9.563285112E-01 8.448569104E-03 9.981450787E-02
 9.409665465E-01 1.121748891E-02 5.406497677E-02
 9.264397621E-01 1.386023965E-02 1.037589637E-02
 9.140857458E-01 1.605521515E-02 -2.159910799E-02
 9.012771845E-01 1.831111498E-02 -5.218192773E-02
 8.887444139E-01 2.048580162E-02 -8.506903315E-02
 8.763285875E-01 2.263147384E-02 -1.162429309E-01
 8.638013601E-01 2.470623516E-02 -1.410199603E-01
 8.514608145E-01 2.671873011E-02 -1.591121044E-01
 8.388429880E-01 2.868910320E-02 -1.790536276E-01
 8.276386261E-01 3.046189994E-02 -1.999164842E-01
 8.159843683E-01 3.223069385E-02 -2.206300277E-01
 8.037815690E-01 3.408512846E-02 -2.430859250E-01
 7.913162112E-01 3.591835126E-02 -2.597212502E-01
 7.792390585E-01 3.763686866E-02 -2.808712638E-01
 7.671918869E-01 3.936263546E-02 -2.994209867E-01
 7.554344535E-01 4.096499458E-02 -3.166075708E-01
 7.427350283E-01 4.268915206E-02 -3.371547382E-01
 7.295545340E-01 4.441221058E-02 -3.614830622E-01
 7.191282511E-01 4.577153549E-02 -3.848771399E-01
 7.082443833E-01 4.712779820E-02 -4.025049809E-01
 6.968026757E-01 4.851585254E-02 -4.235734404E-01
 6.839608550E-01 5.003966019E-02 -4.454416658E-01
 6.713228822E-01 5.147036538E-02 -4.712829990E-01
 6.612415910E-01 5.259070918E-02 -5.008259880E-01
 6.499653459E-01 5.380158499E-02 -5.217787328E-01
 6.386937499E-01 5.493490025E-02 -5.373264750E-01
 6.271716952E-01 5.605105311E-02 -5.606640502E-01
 6.160941124E-01 5.708251894E-02 -5.906750254E-01
 6.056790948E-01 5.802457035E-02 -6.112492647E-01
 5.935451388E-01 5.900804326E-02 -6.273854284E-01
 5.822026730E-01 5.988735333E-02 -6.457673738E-01
 5.690940619E-01 6.081600860E-02 -6.648260820E-01
 5.569775105E-01 6.161980703E-02 -6.776172562E-01
 5.447757840E-01 6.232298538E-02 -6.875429162E-01
 5.339044929E-01 6.292251498E-02 -6.917570336E-01
 5.222691298E-01 6.345978379E-02 -6.859266555E-01
 5.098308325E-01 6.396657974E-02 -6.852074858E-01
 4.987752736E-01 6.435821205E-02 -6.857179706E-01
 4.859448373E-01 6.475170702E-02 -6.828591427E-01
 4.729213119E-01 6.505071372E-02 -6.782292133E-01
 4.592813551E-01 6.530168653E-02 -6.727297281E-01
 4.459364116E-01 6.543998420E-02 -6.636363358E-01
 4.331792295E-01 6.550835073E-02 -6.514460619E-01
 4.202432930E-01 6.548787653E-02 -6.377718194E-01
 4.078617096E-01 6.540750712E-02 -6.279624806E-01
 3.953137100E-01 6.526616216E-02 -6.180137187E-01
 3.831164241E-01 6.505999714E-02 -6.068348664E-01
 3.713709116E-01 6.479049474E-02 -5.944248530E-01
 3.583342731E-01 6.443171203E-02 -5.807732707E-01
 3.459438682E-01 6.401506811E-02 -5.665260313E-01
 3.332555592E-01 6.352026016E-02 -5.598228378E-01
 3.224319220E-01 6.306660175E-02 -5.504404033E-01
 3.098860383E-01 6.245046481E-02 -5.366624636E-01
 2.969442606E-01 6.175006926E-02 -5.200151171E-01
 2.831053436E-01 6.090560928E-02 -5.036896950E-01
 2.705458403E-01 6.006716564E-02 -4.935020887E-01
 2.586288154E-01 5.922042206E-02 -4.829536274E-01
 2.459658980E-01 5.823031068E-02 -4.697702592E-01
 2.334026545E-01 5.717309937E-02 -4.564219525E-01
 2.210150510E-01 5.604326725E-02 -4.424085917E-01
 2.091777325E-01 5.488892272E-02 -4.284653569E-01
 1.973770559E-01 5.366199836E-02 -4.160851481E-01
 1.849114299E-01 5.228957906E-02 -4.026374174E-01
 1.730356663E-01 5.087924004E-02 -3.878518818E-01
 1.614404917E-01 4.942096025E-02 -3.740557393E-01
 1.495261937E-01 4.782644287E-02 -3.584934441E-01
 1.385429800E-01 4.625231028E-02 -3.399349424E-01
 1.269432008E-01 4.449007288E-02 -3.238946437E-01
 1.155549437E-01 4.264885932E-02 -3.109526955E-01
 1.048938036E-01 4.081355780E-02 -2.936338573E-01
 9.484361857E-02 3.895656392E-02 -2.684998058E-01
 8.376926929E-02 3.677420691E-02 -2.388413263E-01
 7.226156443E-02 3.432213888E-02 -2.091431073E-01
 6.242103502E-02 3.204051778E-02 -1.746809474E-01
 5.276559293E-02 2.960903943E-02 -1.436929538E-01
 4.407925904E-02 2.722305991E-02 -1.085567175E-01
 3.669107705E-02 2.499563061E-02 -6.629749177E-02
 3.020728379E-02 2.286214568E-02 -2.225921992E-02
 2.465107106E-02 2.084711939E-02 2.786293340E-02
 2.065219730E-02 1.926336624E-02 5.783070015E-02
 1.684525795E-02 1.761935093E-02 9.179763934E-02
 1.388532855E-02 1.622695103E-02 1.296562882E-01
 1.121875457E-02 1.484703086E-02 1.978898045E-01
 9.272206575E-03 1.375777554E-02 2.311960933E-01
 7.535214536E-03 1.269919798E-02 2.542586274E-01
 5.920885131E-03 1.162036695E-02 3.525498742E-01
 3.777894424E-03 1.000129525E-02 4.762883090E-01
 1.970830141E-03 8.369836956E-03 4.923909417E-01
 4.954707110E-04 6.706012879E-03 8.404874436E-01
 -9.448244818E-04 4.398779478E-03 9.788502905E-01
 -1.575775561E-03 2.613807097E-03 1.249921021E+00
 -1.795542543E-03 1.161610009E-03 1.198418770E+00
 -1.731477794E-03 -4.344604386E-04 1.258867731E+00
 -1.307461527E-03 -2.171775559E-03 1.137238310E+00
 -3.719291126E-04 -4.188713618E-03 8.969967671E-01
 1.081962255E-03 -6.281164475E-03 8.324669897E-01
 3.110179910E-03 -8.447385393E-03 5.505223086E-01
 4.961143248E-03 -1.005519927E-02 4.290447201E-01
 7.119338959E-03 -1.167405024E-02 3.295651278E-01
 8.797846735E-03 -1.279782970E-02 2.297446532E-01
 1.091295201E-02 -1.409412827E-02 1.952014464E-01
 1.329534966E-02 -1.541516744E-02 1.197833238E-01
 1.658794098E-02 -1.707752980E-02 9.687251251E-02
 1.965205185E-02 -1.847959869E-02 4.603793322E-02
 2.357784100E-02 -2.012282982E-02 -1.451313717E-02
 2.893698961E-02 -2.214352973E-02 -4.835414477E-02
 3.467392921E-02 -2.409221791E-02 -9.076642263E-02
 4.170396551E-02 -2.625832148E-02 -1.211968700E-01
 4.934536293E-02 -2.836975083E-02 -1.638547058E-01
 5.831407756E-02 -3.062687255E-02 -1.869280976E-01
 6.721945852E-02 -3.266718611E-02 -2.127711412E-01
 7.752370089E-02 -3.483611718E-02 -2.332829689E-01
 8.756638318E-02 -3.678429499E-02 -2.562652434E-01
 9.806444496E-02 -3.867505491E-02 -2.758197903E-01
 1.092224196E-01 -4.053736851E-02 -2.963741535E-01
 1.206482127E-01 -4.231312871E-02 -3.146471948E-01
 1.324091554E-01 -4.403219000E-02 -3.357437466E-01
 1.433534473E-01 -4.552195221E-02 -3.551442434E-01
 1.547179371E-01 -4.697759077E-02 -3.698540184E-01
 1.667450964E-01 -4.842051864E-02 -3.865808607E-01
 1.785961539E-01 -4.975231737E-02 -4.055966611E-01
 1.905784458E-01 -5.100247636E-02 -4.226968104E-01
 2.013600171E-01 -5.205901712E-02 -4.400573039E-01
 2.128627002E-01 -5.310391635E-02 -4.566575297E-01
 2.252088189E-01 -5.414091051E-02 -4.747726762E-01
 2.378190905E-01 -5.510381982E-02 -4.944808413E-01
 2.501022816E-01 -5.594985932E-02 -5.143616081E-01
 2.625061572E-01 -5.671958998E-02 -5.354218245E-01
 2.735781372E-01 -5.730963126E-02 -5.544117426E-01
 2.860538960E-01 -5.788157135E-02 -5.682138652E-01
 2.984592021E-01 -5.837048963E-02 -5.899112364E-01
 3.110888302E-01 -5.873466283E-02 -6.118904603E-01
 3.227192760E-01 -5.897501484E-02 -6.280899252E-01
 3.352024853E-01 -5.913964286E-02 -6.429758552E-01
 3.458659053E-01 -5.916411430E-02 -6.539922357E-01
 3.573029637E-01 -5.911900476E-02 -6.595829794E-01
 3.682894409E-01 -5.896861851E-02 -6.679228211E-01
 3.790516555E-01 -5.870840698E-02 -6.653282073E-01
 3.904955685E-01 -5.834046751E-02 -6.483468408E-01
 4.032039344E-01 -5.780778080E-02 -6.248513366E-01
 4.154679775E-01 -5.716526881E-02 -5.986367002E-01
 4.281148314E-01 -5.638801679E-02 -5.685194048E-01
 4.404157996E-01 -5.549476296E-02 -5.325286422E-01
 4.525508285E-01 -5.449926481E-02 -4.918261637E-01
 4.643247128E-01 -5.342302099E-02 -4.471443155E-01
 4.768129885E-01 -5.221483484E-02 -4.072274269E-01
 4.884030819E-01 -5.099147931E-02 -3.723588838E-01
 5.009302497E-01 -4.958574474E-02 -3.312127641E-01
 5.145111680E-01 -4.798478261E-02 -2.906576417E-01
 5.278402567E-01 -4.635515809E-02 -2.550178150E-01
 5.409843922E-01 -4.465419427E-02 -2.182150094E-01
 5.541353822E-01 -4.293604195E-02 -1.836395132E-01
 5.674024224E-01 -4.112830386E-02 -1.510449038E-01
 5.804061890E-01 -3.932197019E-02 -1.155304366E-01
 5.928794742E-01 -3.759968281E-02 -8.746009362E-02
 6.054842472E-01 -3.580323979E-02 -6.035187598E-02
 6.194194555E-01 -3.384311125E-02 -3.165863085E-02
 6.338163018E-01 -3.181473911E-02 -8.962958436E-03
 6.479387879E-01 -2.977747470E-02 1.832743511E-02
 6.612829566E-01 -2.789653838E-02 4.383967738E-02
 6.747286916E-01 -2.599050291E-02 6.261248912E-02
 6.871016026E-01 -2.424621768E-02 8.602816803E-02
 6.994947195E-01 -2.252092026E-02 1.069185897E-01
 7.139739990E-01 -2.052029409E-02 1.278098180E-01
 7.270470262E-01 -1.875326224E-02 1.476396535E-01
 7.386807799E-01 -1.716931164E-02 1.682531193E-01
 7.522761226E-01 -1.544183213E-02 1.813083871E-01
 7.642658949E-01 -1.385150664E-02 1.995396862E-01
 7.778231502E-01 -1.217841171E-02 2.199402105E-01
 7.897720933E-01 -1.072067954E-02 2.322273472E-01
 8.021252751E-01 -9.228996001E-03 2.518814354E-01
 8.133620024E-01 -7.960127667E-03 2.678816441E-01
 8.245708346E-01 -6.689986214E-03 2.836875362E-01
 8.376759291E-01 -5.360374693E-03 2.985340283E-01
 8.500966430E-01 -4.135270603E-03 3.113986900E-01
 8.622374535E-01 -3.026947146E-03 3.285480684E-01
 8.739154339E-01 -2.074407879E-03 3.403338346E-01
 8.855681419E-01 -1.217074576E-03 3.499673472E-01
 8.987345099E-01 -3.820686543E-04 3.608207207E-01
 9.088039994E-01 1.569540909E-04 3.707848391E-01
 9.198431373E-01 6.081656320E-04 3.727517439E-01
 9.300297499E-01 9.289170266E-04 3.742223491E-01
 9.394175410E-01 1.137880143E-03 3.765505870E-01
 9.513394833E-01 1.287024003E-03 3.716414871E-01
 9.643902779E-01 1.295904862E-03 3.740646992E-01
 9.777181745E-01 1.144917798E-03 3.745100066E-01
 9.897031188E-01 8.751937421E-04 3.741798490E-01
 -5.000000000E-01 -1.000000000E+00 4.844940525E-02
 3.500000000E+00 -1.000000000E+00 1.246420111E-02
 3.500000000E+00 1.000000000E+00 -2.987292493E-04
 -5.000000000E-01 1.000000000E+00 4.846429247E-02
 -5.000000000E-01 5.000000000E-01 9.394408364E-02
 -5.000000000E-01 2.752797990E-12 1.435035897E-01
 -5.000000000E-01 -5.000000000E-01 1.032008709E-01
 -9.421907698E-13 -1.000000000E+00 2.375593492E-02
 5.000000000E-01 -1.000000000E+00 -2.488303661E-02
 1.000000000E+00 -1.000000000E+00 -1.756389153E-03
 1.500000000E+00 -1.000000000E+00 3.319514166E-02
 2.000000000E+00 -1.000000000E+00 3.057236737E-02
 2.500000000E+00 -1.000000000E+00 2.049704886E-02
 3.000000000E+00 -1.000000000E+00 1.455585110E-02
 3.500000000E+00 -5.000000000E-01 1.352673509E-02
 3.500000000E+00 -2.752797990E-12 1.312921956E-02
 3.500000000E+00 5.000000000E-01 6.515573210E-03
 3.000000000E+00 1.000000000E+00 -6.553681686E-03
 2.500000000E+00 1.000000000E+00 -1.546948737E-02
 2.000000000E+00 1.000000000E+00 -3.271523183E-02
 1.500000000E+00 1.000000000E+00 -7.627708171E-02
 1.000000000E+00 1.000000000E+00 -1.305309562E-01
 5.000000000E-01 1.000000000E+00 -8.513191779E-02
 1.733724275E-12 1.000000000E+00 1.227885468E-02
 6.824257424E-01 -3.583361552E-02 7.274701398E-02
 7.860799418E-01 -2.304314398E-02 2.194048776E-01
 9.041003882E-01 -1.224299561E-02 3.488244587E-01
 5.888701185E-01 -4.947032119E-02 -9.801372625E-02
 2.790456056E-01 -7.111237194E-02 -5.379358002E-01
 2.750726378E-01 7.256926131E-02 -4.837315719E-01
 7.541521331E-01 5.655570604E-02 -3.130073566E-01
 8.464052849E-01 4.130808932E-02 -1.661996849E-01
 6.450250230E-01 6.663812296E-02 -5.183671250E-01
 1.815463274E-01 -6.373603409E-02 -3.928306422E-01
 5.497159115E-01 7.334233222E-02 -6.686223977E-01
 4.460077900E-01 -6.600472668E-02 -4.965653314E-01
 4.014678216E-01 7.597998941E-02 -6.098833890E-01
 1.782967068E+00 -5.250357647E-01 2.770008204E-02
 1.777553616E+00 6.450749755E-01 -2.321385934E-02
 3.031182758E+00 2.156806618E-01 5.990930181E-03
 7.507747411E-01 -6.136447567E-01 -1.211663058E-02
 3.631458252E-01 -7.075008975E-02 -6.384777718E-01
 7.500617779E-01 5.743679231E-01 -2.149644809E-01
 9.559428766E-01 2.583655329E-02 8.717703072E-02
 3.338899251E-01 6.154211690E-01 -1.344745577E-01
 1.165858315E-01 5.496455516E-02 -2.863805474E-01
 1.779154859E-01 6.461199563E-02 -3.742891347E-01
 4.835122244E-01 7.889055176E-02 -6.628709532E-01
 2.734830293E+00 -5.327093267E-01 1.282094296E-02
 1.174330781E+00 6.136402023E-01 -5.279639610E-02
 9.937322713E-01 3.821993159E-01 -5.965430117E-02
 1.247342743E+00 -6.368495997E-01 5.356005945E-02
 1.504582868E+00 -2.787668725E-01 3.869521740E-02
 1.955767704E-01 -5.459383663E-01 -5.556818846E-02
 8.025474784E-02 -4.514572116E-02 -2.086858129E-01
 2.240023517E+00 -5.762559593E-01 1.713171489E-02
 2.024658982E+00 -1.906417705E-01 1.167136503E-02
 2.420118360E+00 -1.843629486E-01 7.824873811E-03
 2.184560889E+00 1.580839194E-01 1.271267246E-03
 1.828142388E+00 8.772633192E-02 7.032522329E-03
 -2.152274013E-01 -2.652113553E-01 1.540953554E-01
 -1.438378631E-01 -6.050568953E-01 5.227313273E-02
 -2.700054656E-01 2.391968104E-01 1.571186886E-01
 -1.013830358E-01 6.181823603E-01 3.095809092E-02
 6.436855252E-03 3.247344245E-01 2.864594341E-02
 4.514918349E-02 3.599282704E-02 -5.932321241E-02
 2.238977007E+00 5.542682666E-01 -9.966632836E-03
 2.745997441E+00 5.960285269E-01 -2.652558176E-03
 -2.392199296E-01 -1.496055430E-03 2.157233472E-01
 -1.284078537E-01 -1.253689813E-01 2.514887501E-01
 1.419914930E-02 -3.754832826E-01 4.507388070E-02
 2.724157632E-01 -3.372441363E-01 -2.163839056E-01
 -1.413677112E-01 1.241764160E-01 2.296596450E-01
 -1.263480372E-01 2.011782966E-03 3.184776592E-01
 -5.736571228E-02 6.665421675E-02 3.704753405E-01
 2.194385455E-02 2.482531497E-02 9.179450613E-02
 -4.239191417E-02 1.764120856E-01 1.706197843E-01
 3.999475625E-03 9.605648700E-02 1.964763159E-01
 7.319899054E-02 4.598085312E-02 -1.765531123E-01
 3.959223977E-02 1.725770909E-01 2.044893168E-02
 1.768442338E-01 2.657091338E-01 -1.720665672E-01
 3.384265766E-01 7.880034788E-02 -5.451336693E-01
 2.262518462E-01 6.710090851E-02 -4.371643407E-01
 1.558464078E-01 1.666942277E-01 -2.288844212E-01
 -1.631873455E-02 5.210263226E-02 4.174055920E-01
 7.213678673E-03 1.710817741E-02 3.473622419E-01
 -5.739023213E-02 5.716235868E-03 4.947414418E-01
 5.736941619E-02 1.071483984E-01 -2.725653474E-02
 1.711669868E-02 6.050583056E-02 2.114156793E-01
 3.372867276E-02 3.006105533E-02 -1.948075849E-02
 5.168097224E-02 7.139716787E-02 -1.153300908E-02
 1.453034852E-01 4.331741530E-01 -6.949876937E-02
 3.062100187E-01 3.374481998E-01 -2.831596854E-01
 2.734052867E-01 2.213261972E-01 -3.368163427E-01
 4.054798694E-01 2.527085528E-01 -4.283474957E-01
 3.684370261E-01 1.651396682E-01 -4.843753580E-01
 5.466504137E-01 4.935852624E-01 -2.754839615E-01
 8.612775354E-02 8.246985028E-02 -1.680731096E-01
 1.022130125E-01 5.084131942E-02 -2.611676224E-01
 3.109350628E+00 -2.612904515E-01 1.175324548E-02
 -2.755215919E-02 2.252490684E-02 5.966388296E-01
 1.208549673E-04 1.169217360E-02 6.266063316E-01
 1.029840619E-01 1.293837160E-01 -1.531074303E-01
 1.562020655E-01 1.087071170E-01 -2.826896609E-01
 2.097366527E-01 1.347353792E-01 -3.380931635E-01
 1.544534468E-01 6.239223694E-02 -3.424664815E-01
 1.982316826E-01 9.969743480E-02 -3.591898914E-01
 2.486449470E-01 1.093702193E-01 -4.121654753E-01
 2.537796517E-01 7.060095709E-02 -4.637418799E-01
 2.022487962E-01 6.612436684E-02 -4.055682767E-01
 1.190749693E-01 8.968150005E-02 -2.368416747E-01
 2.901861991E-01 7.429878516E-02 -4.981907509E-01
 2.838592369E-01 8.663037264E-02 -4.775185407E-01
 3.034798057E-01 8.996033520E-02 -4.969534571E-01
 2.857482961E-01 1.134589917E-01 -4.517365382E-01
 3.212795863E-01 1.164794349E-01 -4.888829596E-01
 3.151559954E-01 7.603756904E-02 -5.273089521E-01
 1.314433711E-01 5.861787052E-02 -3.080831638E-01
 3.965525316E-03 4.150022099E-02 3.327005404E-01
 5.939355206E-02 5.288022383E-02 -1.095562030E-01
 3.031304598E-01 7.289944469E-02 -5.150656812E-01
 3.821300520E-02 5.219082177E-02 5.624447938E-03
 5.536138053E-01 6.914548005E-01 -2.040735333E-01
 7.241926127E-01 3.121837478E-01 -2.831506558E-01
 5.739636553E-01 3.143068018E-01 -3.881193693E-01
 2.634653049E-01 8.510273902E-02 -4.574105301E-01
 2.562825429E+00 2.038264964E-01 9.568685886E-04
 2.602383767E-01 1.546712173E-01 -3.774162833E-01
 -5.036943756E-03 2.672630810E-02 5.388180465E-01
 4.474515604E-01 -6.872763394E-01 -6.086287645E-02
 2.217998853E-01 1.007604557E-01 -3.914327925E-01
 1.904677790E-01 7.692682543E-02 -3.768172983E-01
 1.665362377E-01 8.012861765E-02 -3.400034722E-01
 1.418146892E-01 7.523357475E-02 -3.003042131E-01
 8.213536835E-01 4.283380047E-01 -1.829892342E-01
 2.138160917E-01 7.922076566E-02 -4.039807541E-01
 1.698905391E+00 -1.599926990E-01 2.188556857E-02
 1.525109111E+00 6.272274290E-02 2.065637652E-02
 1.295761252E+00 -1.732653595E-01 6.980062545E-02
 1.563732075E+00 3.227650194E-01 -3.182937579E-03
 1.295142582E+00 2.112349278E-01 2.570117745E-02
 1.469954208E+00 6.004754277E-01 -2.775738673E-02
 1.309726320E+00 1.083384475E-02 5.392822087E-02
 1.169293218E+00 -5.958534705E-03 1.024484619E-01
 1.154158084E+00 -1.312176372E-01 1.185822251E-01
 9.732099868E-01 -1.380730527E-02 3.569436495E-01
 1.074426019E+00 -7.761010061E-02 1.729865821E-01
 1.052355430E+00 -1.699080135E-01 1.621444686E-01
 1.086034406E+00 3.202508486E-02 1.387306172E-01
 1.142350524E+00 -2.612300958E-01 1.101037100E-01
 9.888879945E-01 -2.731269704E-01 1.411600938E-01
 9.112552850E-01 -1.808261945E-01 1.887557565E-01
 8.312785584E-01 -1.989758993E-02 2.782257908E-01
 8.685758141E-01 -1.381125042E-02 3.217345874E-01
 8.085222849E-01 -2.072480040E-02 2.504555922E-01
 8.473620166E-01 -2.765652829E-01 1.189866434E-01
 7.755947655E-01 -1.748577769E-01 1.220398947E-01
 7.345536538E-01 -3.088157370E-02 1.521684862E-01
 7.133849426E-01 -2.843640862E-01 2.979962937E-02
 5.090404807E-01 -5.998085242E-02 -2.971067878E-01
 6.534830861E-01 -1.832907539E-01 -8.395095080E-03
 6.425928655E-01 -4.268685201E-02 5.914094981E-03
 5.870042612E-01 -2.585403162E-01 -8.699771184E-02
 5.360079098E-01 -1.891227940E-01 -1.808477719E-01
 5.518051467E-01 -5.898710273E-02 -1.859061958E-01
 7.074812815E-01 -1.242913865E-01 7.511507967E-02
 4.766413355E-01 -2.788529396E-01 -2.215157823E-01
 4.214194885E-01 -1.972361168E-01 -3.600340466E-01
 4.098923877E-01 -6.810749768E-02 -5.850668887E-01
 8.445135921E-01 -1.029300964E-01 2.203453729E-01
 5.886473995E-01 -1.363660747E-01 -9.759138242E-02
 4.763645707E-01 -1.382043750E-01 -3.134889425E-01
 9.993525358E-01 -9.901208381E-02 2.356454772E-01
 5.928576436E-01 -4.204962614E-01 -8.272780143E-02
 1.050745454E+00 -1.941222075E-02 1.938462449E-01
 1.178477559E+00 9.178297732E-02 7.600828080E-02
 1.074006508E+00 1.159369745E-01 9.383080112E-02
 1.027260301E+00 6.532738582E-02 1.395695309E-01
 9.871935621E-01 1.247205110E-01 3.844092736E-02
 8.980296383E-01 2.871309587E-02 -6.180539960E-02
 9.221636585E-01 2.565661936E-02 -3.465599066E-03
 8.677531461E-01 3.659069968E-02 -1.305070179E-01
 1.030649236E+00 1.894706707E-02 1.899182450E-01
 1.088515679E+00 -4.271566731E-01 8.704960271E-02
 1.045630557E+00 2.251852135E-01 2.001837119E-02
 9.323534694E-01 2.238846014E-01 -6.141932919E-02
 8.911367788E-01 1.302995650E-01 -8.713505657E-02
 8.031928104E-01 4.837106766E-02 -2.381031012E-01
 8.290328795E-01 2.153243562E-01 -1.778390258E-01
 8.085523331E-01 1.273475158E-01 -2.054807095E-01
 6.913404762E-01 6.342733701E-02 -4.246898827E-01
 7.150948239E-01 5.898364781E-02 -3.850667125E-01
 7.495072549E-01 1.864121182E-01 -2.839909041E-01
 7.414877917E-01 1.193502244E-01 -3.082555178E-01
 6.915469492E-01 1.608532222E-01 -3.779340511E-01
 5.999592238E-01 7.069493992E-02 -6.047101871E-01
 6.219724152E-01 6.933495025E-02 -5.647108573E-01
 6.910637404E-01 1.087549717E-01 -4.044698836E-01
 6.408882981E-01 1.294912072E-01 -4.820997847E-01
 6.355922998E-01 1.792683596E-01 -4.568743013E-01
 5.864012985E-01 1.530186906E-01 -5.366164171E-01
 5.185969326E-01 7.419336874E-02 -6.721302928E-01
 7.816776065E-01 9.222674809E-02 -2.583477157E-01
 7.680142817E-01 4.824742621E-02 -2.930916028E-01
 8.225421363E-01 8.389190438E-02 -2.025729786E-01
 8.232564102E-01 4.133640717E-02 -2.059690389E-01
 5.986774694E-01 1.075352130E-01 -5.686288026E-01
 5.782081101E-01 7.433437545E-02 -6.345385368E-01
 5.553155581E-01 1.182071417E-01 -6.035829855E-01
 5.301880369E-01 1.597782841E-01 -5.530548564E-01
 5.086615631E-01 1.189934904E-01 -6.124595735E-01
 4.410519615E-01 7.800666132E-02 -6.418391745E-01
 4.782084373E-01 1.611401459E-01 -5.519400502E-01
 4.616258866E-01 1.187818737E-01 -6.013754797E-01
 9.368646041E-01 8.627695305E-02 -3.679021158E-03
 9.782813316E-01 6.815591996E-02 8.997212270E-02
 9.808245761E-01 1.624027162E-02 1.811271661E-01
 8.893291973E-01 8.015515657E-02 -8.091561367E-02
 6.580618529E-01 9.789627675E-02 -4.687913165E-01
 6.681366557E-01 6.513427829E-02 -4.733040123E-01
 1.164726523E+00 3.402358599E-01 3.294910983E-03
 4.284915654E-01 1.506732439E-01 -5.441758068E-01
 4.252418817E-01 1.170059163E-01 -5.822342044E-01
 3.694639052E-01 1.179015327E-01 -5.294512166E-01
 3.644918046E-01 7.456525368E-02 -5.740517099E-01
 7.228098489E-01 9.145934494E-02 -3.555297073E-01
 7.476235911E-01 7.924043285E-02 -3.154453427E-01
 6.677272869E-01 2.298622775E-01 -3.901162477E-01
 4.944119066E-01 2.400998896E-01 -4.738768473E-01
 3.934474596E-01 -4.193739701E-01 -1.780663784E-01
 1.151596746E+00 1.968751906E-01 4.710428127E-02
 4.283066651E-01 7.561069729E-02 -6.329352144E-01
 5.325253685E-01 9.970980263E-02 -6.344169574E-01
 3.453072835E-01 1.013555805E-01 -5.282421844E-01
 3.825879538E-01 9.275691952E-02 -5.712745491E-01
 9.153792608E-01 -4.385466943E-01 7.976590386E-02
 1.006335225E+00 -6.271221347E-01 5.269704487E-02
 5.813807473E-01 2.127223839E-01 -4.767346506E-01
 3.739623067E-01 -2.721410867E-01 -3.021043353E-01
 3.073254674E-01 -2.059856446E-01 -3.637456008E-01
 2.294783224E-01 -6.696631915E-02 -4.627307973E-01
 3.174301592E-01 -7.211529275E-02 -5.965754445E-01
 1.977263553E-01 -2.300186876E-01 -2.340838114E-01
 1.263791224E-01 -5.194155789E-02 -3.106682083E-01
 2.407783795E-01 -1.524995916E-01 -3.667856065E-01
 1.429490586E-01 -1.505461294E-01 -2.197812470E-01
 3.516447526E-01 -1.476898518E-01 -4.828544052E-01
 1.941419894E-01 -1.168846322E-01 -3.451496105E-01
 9.147722654E-02 -2.516981954E-01 -5.478258815E-02
 6.191216405E-02 -1.621592742E-01 -1.171789051E-02
 3.769077901E-02 -3.199087328E-02 -6.600487611E-02
 9.537818783E-02 -1.105480663E-01 -1.603586228E-01
 4.594896069E-02 -9.289808715E-02 3.715219114E-03
 1.542790530E-01 -3.480765336E-01 -1.126339781E-01
 7.805716278E-02 -8.063303227E-02 -1.271168281E-01
 1.008346937E-01 -5.214274406E-02 -2.561634716E-01
 3.001560240E-01 -1.301793409E-01 -4.715740638E-01
 3.362158573E-01 -1.094665082E-01 -5.466301637E-01
 3.406462047E-01 -7.195184331E-02 -6.234022751E-01
 3.747558007E-01 -1.064114475E-01 -5.597920741E-01
 3.831691990E-01 -6.986226696E-02 -6.324503197E-01
 2.617960776E-01 -1.096665745E-01 -4.508387284E-01
 2.552848273E-01 -6.974450458E-02 -5.027439718E-01
 2.298344173E-01 -1.082681494E-01 -4.086259811E-01
 2.075082013E-01 -6.160946313E-02 -4.352706746E-01
 3.957990719E-01 -7.101207742E-02 -6.108515284E-01
 4.059190844E-01 -8.320632843E-02 -5.715833997E-01
 4.246374270E-01 -8.275339858E-02 -5.263000090E-01
 4.088182507E-01 -1.053458540E-01 -5.214856767E-01
 4.481526438E-01 -1.048869198E-01 -4.351444968E-01
 4.361984996E-01 -1.437026363E-01 -4.076917343E-01
 4.874761930E-01 -9.928182207E-02 -3.313788363E-01
 4.696652274E-01 -6.383435730E-02 -4.160162528E-01
 5.228812232E-01 -1.279962762E-01 -2.248025283E-01
 5.573075988E-01 -1.008831021E-01 -1.637647796E-01
 5.985850991E-01 -9.541583327E-02 -7.971602093E-02
 6.134089718E-01 -4.874530493E-02 -4.840509348E-02
 6.426772564E-01 -1.170190475E-01 -9.321456456E-03
 6.726147025E-01 -8.219929439E-02 4.253497906E-02
 7.181029935E-01 -7.504087214E-02 1.108643079E-01
 7.098746578E-01 -3.431233563E-02 1.163260014E-01
 7.573954456E-01 -1.040579669E-01 1.463669660E-01
 7.614883667E-01 -6.127249899E-02 1.664651712E-01
 7.596482710E-01 -2.503011680E-02 1.852776874E-01
 6.310017433E-01 -8.120685072E-02 -2.107024460E-02
 7.721762360E-01 -2.529293843E-02 2.026299634E-01
 7.791756685E-01 -4.164749990E-02 2.039844605E-01
 7.915634342E-01 -6.566120888E-02 1.964617280E-01
 7.994397561E-01 -3.517223246E-02 2.306395661E-01
 8.240897971E-01 -5.827077094E-02 2.388112316E-01
 8.682287879E-01 -7.116608833E-02 2.619805415E-01
 8.534266510E-01 -4.267775740E-02 2.793369587E-01
 8.854490116E-01 -4.057275784E-02 3.041192754E-01
 9.368415904E-01 -9.453770169E-03 3.588774751E-01
 9.083321386E-01 -7.384872286E-02 2.777559835E-01
 9.226016616E-01 -4.163632938E-02 3.168524247E-01
 7.486614877E-01 -3.899773458E-02 1.658783876E-01
 9.499077027E-01 -6.683126648E-02 2.910625284E-01
 4.836402557E-01 -7.004134620E-02 -3.649478346E-01
 2.173628980E-01 -6.303927374E-02 -4.491220426E-01
 2.101419217E-01 -7.759840198E-02 -4.176008501E-01
 1.853183902E-01 -8.082791857E-02 -3.731290275E-01
 1.605147131E-01 -5.913506722E-02 -3.593977156E-01
 2.422553825E-01 -8.380437181E-02 -4.613285710E-01
 1.459726634E-01 -5.780350680E-02 -3.368691365E-01
 1.502540112E-01 -7.555503822E-02 -3.176688219E-01
 1.683529223E-01 -7.177941254E-02 -3.565580430E-01
 6.296822849E-01 -4.712577057E-02 -1.731669618E-02
 9.492263621E-01 -3.740116847E-02 3.218404440E-01
 2.430997734E-01 -6.632430973E-02 -4.865259538E-01
 1.960755506E-01 -6.447221854E-02 -4.137133963E-01
 5.630721186E-02 -6.358357100E-02 -9.107052337E-02
 1.692786496E-02 -7.201702795E-02 1.941741068E-01
 8.485167181E-03 -1.573287764E-02 3.197306111E-01
 1.593199808E-02 -2.167460205E-02 1.673156086E-01
 2.346850717E-02 -2.677000166E-02 5.889385818E-02
 5.268414087E-02 -3.999649742E-02 -1.259795181E-01
 6.482116098E-02 -4.920466869E-02 -1.590537879E-01
 3.636209888E-02 -5.415595441E-02 1.457594271E-02
 5.712064775E-01 -7.350929492E-02 -1.360625687E-01
 6.000100513E-01 -6.455401532E-02 -7.581873890E-02
 4.970541629E-01 -6.131926233E-02 -3.346214108E-01
 5.031489280E-01 -7.633636711E-02 -3.021527892E-01
 5.235408916E-01 -7.367774813E-02 -2.538015338E-01
 6.899315887E-01 -5.801797074E-02 7.522033929E-02
 7.264943982E-01 -4.743594962E-02 1.352604609E-01
 6.660969077E-01 -5.771953011E-02 4.184369314E-02
 1.356851890E-01 -5.385202611E-02 -3.257330073E-01
 1.285916949E-01 -6.847876212E-02 -2.932641576E-01
 1.304365697E-01 -9.525929801E-02 -2.599334168E-01
 1.045661491E-01 -7.338918969E-02 -2.242071744E-01
 8.514160250E-02 -6.071222380E-02 -1.806318566E-01
 1.293220348E-02 -4.820906954E-02 2.427105216E-01
 2.625609572E-02 -3.715971180E-02 6.941383673E-02
 5.746724775E-01 9.461119886E-02 -6.181583928E-01
 6.785230834E-01 7.908473711E-02 -4.405229236E-01
 7.976912493E-01 6.952294806E-02 -2.400896645E-01
 -2.857485606E-02 -2.147710048E-01 1.435601716E-01
 5.749865081E-01 -5.577949440E-02 -1.236765149E-01
 3.527934468E-01 -8.403434459E-02 -6.014847772E-01
 7.467640630E-01 -2.550411377E-02 1.698468245E-01
 9.144246996E-01 6.050546523E-02 -3.501685592E-02
 9.451186387E-01 4.926615389E-02 4.248254653E-02
 4.654606678E-01 -8.126628342E-02 -4.095532576E-01
 4.059751630E-01 9.399479313E-02 -5.951092336E-01
 7.223887470E-01 -3.038068305E-02 1.344565317E-01
 2.658531845E-01 -8.163124793E-02 -5.007865789E-01
 2.892025179E-01 -8.874028619E-02 -5.197416855E-01
 3.143434663E-01 -9.464471266E-02 -5.484340958E-01
 3.028490330E-01 -7.405861330E-02 -5.724597845E-01
 3.299304399E-01 -8.322410505E-02 -5.893062842E-01
 4.330111378E-01 9.315576700E-02 -6.162977658E-01
 4.548005182E-01 9.219376187E-02 -6.340751619E-01
 1.289510325E+00 -3.814679007E-01 6.422898582E-02
 5.643189422E-01 7.590505954E-02 -6.517142493E-01
 5.906675776E-01 8.443103230E-02 -6.031133248E-01
 6.092133572E-01 8.061571904E-02 -5.760455484E-01
 6.326223212E-01 8.539668727E-02 -5.267528657E-01
 5.520058695E-01 9.053514959E-02 -6.405834811E-01
 5.349053773E-01 8.156940840E-02 -6.611294673E-01
 6.587243099E-01 7.835538397E-02 -4.857805472E-01
 4.456444063E-01 -8.022395142E-02 -4.746038447E-01
 6.955947098E-01 -3.739031246E-02 9.493351802E-02
 4.332426351E-01 -7.047635048E-02 -5.276880459E-01
 3.291857130E-01 -6.908117976E-02 -6.168454057E-01
 1.619088236E-01 -9.847540482E-02 -3.112540729E-01
 4.853845709E-01 1.000453139E-01 -6.378016345E-01
 4.969900133E-01 8.441458956E-02 -6.574215546E-01
 5.885948963E-01 7.009924159E-02 -6.225887581E-01
 3.044487362E-02 -2.802917523E-02 -1.623331076E-02
 3.434123147E-01 1.318922163E-01 -4.916560311E-01
 3.125737723E-01 1.585848652E-01 -4.351410889E-01
 6.679429341E-01 -4.228430521E-02 5.193007323E-02
 1.714859256E-01 -5.843089287E-02 -3.810733148E-01
 6.788944345E-01 6.172231633E-02 -4.492731292E-01
 9.717715918E-01 3.954596306E-02 1.041138193E-01
 9.983216731E-01 3.577051087E-02 1.822388617E-01
 5.448897707E-01 -7.827919303E-02 -1.974975028E-01
 5.340108921E-01 -6.142011794E-02 -2.280471120E-01
 3.133974596E+00 6.339745962E-01 -1.249069585E-04
 8.198981853E-01 -3.217936002E-02 2.552259751E-01
 -1.349269997E-01 2.654631059E-01 1.321502970E-01
 3.251779195E-01 8.939943428E-02 -5.212292683E-01
 4.681031008E-01 7.957371156E-02 -6.553487514E-01
 4.538346694E-01 7.610316110E-02 -6.536593822E-01
 7.971878702E-01 -1.977797048E-02 2.360049953E-01
 1.334154570E+00 4.208969414E-01 -1.007542043E-02
 4.579069425E-01 -6.598593239E-02 -4.555544293E-01
 3.518366406E-01 -6.892509815E-02 -6.352469841E-01
 2.672535824E-01 -6.730346914E-02 -5.254581582E-01
 3.527320199E-01 7.949098413E-02 -5.571779539E-01
 3.133974596E+00 -6.339745962E-01 1.188750071E-02
 7.047568182E-01 7.561041646E-02 -3.935892849E-01
 1.905841094E-01 6.272295306E-02 -3.941360157E-01
 4.223859449E-01 -6.645055272E-02 -5.633913707E-01
 4.140758887E-01 7.649666540E-02 -6.194432604E-01
 9.043605876E-01 -2.650192198E-02 3.308073851E-01
 9.204002422E-01 -1.941246258E-02 3.464915177E-01
 8.897053554E-01 -1.909927208E-02 3.301297407E-01
 8.804604121E-01 -1.141314216E-02 3.342993901E-01
 8.771637080E-01 -2.241790658E-02 3.171311654E-01
 9.366264955E-01 -2.495484634E-02 3.386475649E-01