TITLE     = "Visualization of the solution"
VARIABLES = "x"
"y"
"Pressure_Coefficient"
ZONE T="Zone"
 STRANDID=0, SOLUTIONTIME=0
 Nodes=715, Elements=1215, ZONETYPE=FEQuadrilateral
 DATAPACKING=POINT
 DT=(DOUBLE DOUBLE DOUBLE )
 1.000164032E+00 5.097757094E-04 2.816315620E-01
 9.893177152E-01 2.664168365E-03 2.447523604E-01
 9.768984914E-01 5.077335518E-03 1.752090969E-01
 9.609200954E-01 8.205747232E-03 1.195154877E-01
 9.461228848E-01 1.112848613E-02 6.858986202E-02
 9.302353859E-01 1.411090139E-02 2.484515819E-02
 9.188616276E-01 1.635623351E-02 -1.258906046E-02
 9.066814184E-01 1.865046285E-02 -4.386699063E-02
 8.950423598E-01 2.084539086E-02 -8.195601352E-02
 8.832632899E-01 2.303433232E-02 -1.182598776E-01
 8.709471822E-01 2.525012568E-02 -1.418428935E-01
 8.583018184E-01 2.741230652E-02 -1.654009235E-01
 8.456798792E-01 2.957417630E-02 -1.863207531E-01
 8.347008228E-01 3.137363866E-02 -2.016490734E-01
 8.228230476E-01 3.331550583E-02 -2.291785117E-01
 8.099071980E-01 3.540414944E-02 -2.535971832E-01
 7.971569300E-01 3.737482056E-02 -2.698675778E-01
 7.842718959E-01 3.931766376E-02 -2.885953976E-01
 7.718117237E-01 4.117776826E-02 -3.086908467E-01
 7.597055435E-01 4.293638095E-02 -3.331919296E-01
 7.464594841E-01 4.483916983E-02 -3.587716173E-01
 7.324500084E-01 4.676454887E-02 -3.822513958E-01
 7.218445539E-01 4.818867147E-02 -4.080910273E-01
 7.108842134E-01 4.963869229E-02 -4.252638358E-01
 6.991249919E-01 5.110833049E-02 -4.405359777E-01
 6.855046153E-01 5.277846381E-02 -4.692358776E-01
 6.725558639E-01 5.432812124E-02 -5.057963630E-01
 6.630322337E-01 5.544058233E-02 -5.309615434E-01
 6.513992548E-01 5.669887736E-02 -5.564307825E-01
 6.395566463E-01 5.796211958E-02 -5.844196092E-01
 6.277819872E-01 5.913054943E-02 -6.087029083E-01
 6.165320873E-01 6.020122394E-02 -6.340528609E-01
 6.055671573E-01 6.118582934E-02 -6.618025239E-01
 5.928771496E-01 6.226173043E-02 -6.896405066E-01
 5.815495849E-01 6.315160543E-02 -7.082406434E-01
 5.682833791E-01 6.410097331E-02 -7.245327925E-01
 5.563215017E-01 6.489202380E-02 -7.386024494E-01
 5.447111130E-01 6.558045745E-02 -7.514529598E-01
 5.342506170E-01 6.615238637E-02 -7.587973043E-01
 5.230978131E-01 6.670001149E-02 -7.493810426E-01
 5.106800199E-01 6.719084084E-02 -7.393947305E-01
 4.995135963E-01 6.760154665E-02 -7.345183953E-01
 4.865115285E-01 6.799364835E-02 -7.292930607E-01
 4.730826318E-01 6.831248850E-02 -7.221697697E-01
 4.594377577E-01 6.854594499E-02 -7.073235230E-01
 4.460697174E-01 6.865918636E-02 -6.916669880E-01
 4.333149493E-01 6.871353835E-02 -6.815707142E-01
 4.206527472E-01 6.869062036E-02 -6.754731609E-01
 4.084900916E-01 6.862024963E-02 -6.649506233E-01
 3.966395557E-01 6.846054643E-02 -6.474967162E-01
 3.841497898E-01 6.823149323E-02 -6.321295464E-01
 3.726669252E-01 6.795226783E-02 -6.196259661E-01
 3.597932160E-01 6.759386510E-02 -6.105795231E-01
 3.472659290E-01 6.716798991E-02 -5.971775203E-01
 3.341560364E-01 6.663964689E-02 -5.839812277E-01
 3.227177262E-01 6.612028182E-02 -5.701136637E-01
 3.098963797E-01 6.546686590E-02 -5.573607493E-01
 2.963003814E-01 6.470341980E-02 -5.437419968E-01
 2.821902037E-01 6.381206959E-02 -5.304906312E-01
 2.694546878E-01 6.292907149E-02 -5.176030128E-01
 2.572812736E-01 6.201058254E-02 -5.041568959E-01
 2.446232140E-01 6.098382175E-02 -4.880282138E-01
 2.320477217E-01 5.986827612E-02 -4.697730877E-01
 2.194274664E-01 5.867391080E-02 -4.528990817E-01
 2.077942640E-01 5.748816580E-02 -4.353847693E-01
 1.961656511E-01 5.622871593E-02 -4.186684491E-01
 1.837580800E-01 5.479432270E-02 -4.029424294E-01
 1.719125211E-01 5.333283544E-02 -3.845068205E-01
 1.607472152E-01 5.185794458E-02 -3.645179470E-01
 1.487181783E-01 5.017548427E-02 -3.490228182E-01
 1.381586939E-01 4.860257730E-02 -3.293239342E-01
 1.264951378E-01 4.674669728E-02 -3.081056147E-01
 1.151810363E-01 4.483356327E-02 -2.862460653E-01
 1.045776159E-01 4.291329905E-02 -2.619804663E-01
 9.452573955E-02 4.097207636E-02 -2.338229662E-01
 8.340239525E-02 3.867558017E-02 -1.996500847E-01
 7.165347040E-02 3.603918478E-02 -1.708373952E-01
 6.195125356E-02 3.367480263E-02 -1.279469497E-01
 5.205692351E-02 3.104445897E-02 -7.966912974E-02
 4.367709905E-02 2.860756963E-02 -3.056510218E-02
 3.665018082E-02 2.638715692E-02 1.051136310E-02
 3.042632341E-02 2.423841320E-02 5.785148107E-02
 2.490939386E-02 2.215704508E-02 9.934913820E-02
 2.097976767E-02 2.053792030E-02 1.578231208E-01
 1.721524261E-02 1.885595545E-02 2.024617045E-01
 1.422270667E-02 1.740734465E-02 2.510557474E-01
 1.146089286E-02 1.594565064E-02 3.030331006E-01
 9.420074522E-03 1.477212273E-02 3.591762946E-01
 7.685155142E-03 1.368953194E-02 3.943612721E-01
 6.065482274E-03 1.258886885E-02 4.582732339E-01
 3.932607826E-03 1.096234471E-02 5.356044920E-01
 2.027247334E-03 9.231491946E-03 6.044111943E-01
 4.525732656E-04 7.436520420E-03 7.069880924E-01
 -1.066413359E-03 4.901110660E-03 1.145938316E+00
 -1.631841878E-03 3.009714419E-03 1.046283570E+00
 -1.726468676E-03 1.550663728E-03 1.004406093E+00
 -1.518411795E-03 7.716028631E-05 9.765735006E-01
 -1.022622921E-03 -1.334141009E-03 9.010212097E-01
 -3.574946459E-05 -3.018758027E-03 8.073069417E-01
 1.368450816E-03 -4.680339247E-03 3.369131330E-01
 3.301861230E-03 -6.399755366E-03 2.968779535E-01
 5.056892522E-03 -7.673813030E-03 1.788582543E-01
 7.041233126E-03 -8.907211013E-03 7.605325381E-02
 8.657731116E-03 -9.804049507E-03 -7.697898531E-03
 1.076778769E-02 -1.085503306E-02 -2.953580937E-02
 1.313170604E-02 -1.191749517E-02 -6.582448295E-02
 1.646489277E-02 -1.326020807E-02 -7.854978745E-02
 1.938574575E-02 -1.432313211E-02 -1.215589502E-01
 2.320299856E-02 -1.558000594E-02 -1.516577388E-01
 2.861362137E-02 -1.717426628E-02 -1.771399930E-01
 3.447023407E-02 -1.871767640E-02 -1.966194357E-01
 4.185315594E-02 -2.045396529E-02 -2.040122918E-01
 4.955931008E-02 -2.208546922E-02 -2.153017394E-01
 5.899456143E-02 -2.388965711E-02 -2.192113509E-01
 6.799978018E-02 -2.545161173E-02 -2.286423799E-01
 7.822414488E-02 -2.709235996E-02 -2.356037335E-01
 8.853942901E-02 -2.861538343E-02 -2.441063251E-01
 9.875420481E-02 -3.003407270E-02 -2.524695862E-01
 1.099754646E-01 -3.147723153E-02 -2.597098163E-01
 1.214762405E-01 -3.286876902E-02 -2.675891659E-01
 1.334288120E-01 -3.422674537E-02 -2.767240460E-01
 1.445595324E-01 -3.541333228E-02 -2.870922575E-01
 1.559022963E-01 -3.655697778E-02 -2.956471086E-01
 1.685183793E-01 -3.775308281E-02 -3.047662290E-01
 1.805525422E-01 -3.882752731E-02 -3.163377770E-01
 1.928137094E-01 -3.985101357E-02 -3.281577859E-01
 2.037611753E-01 -4.070393741E-02 -3.383038777E-01
 2.153268456E-01 -4.155177251E-02 -3.479324170E-01
 2.278089821E-01 -4.239377752E-02 -3.596980901E-01
 2.413415164E-01 -4.324683920E-02 -3.767994018E-01
 2.539937198E-01 -4.394781217E-02 -3.943959471E-01
 2.667046785E-01 -4.458250478E-02 -4.061020204E-01
 2.780164480E-01 -4.507902637E-02 -4.189772740E-01
 2.908516228E-01 -4.556716606E-02 -4.314683816E-01
 3.037807643E-01 -4.597808793E-02 -4.480392627E-01
 3.165175021E-01 -4.626660421E-02 -4.609682829E-01
 3.285611570E-01 -4.647356644E-02 -4.718226076E-01
 3.410023153E-01 -4.658471048E-02 -4.841046910E-01
 3.519914448E-01 -4.658786580E-02 -4.910038465E-01
 3.631182611E-01 -4.651200399E-02 -4.916258108E-01
 3.738368452E-01 -4.637737572E-02 -4.967759420E-01
 3.842221200E-01 -4.613683745E-02 -4.972687039E-01
 3.955495954E-01 -4.580302536E-02 -4.876205658E-01
 4.083083868E-01 -4.529199377E-02 -4.740017255E-01
 4.204515517E-01 -4.470026866E-02 -4.580982121E-01
 4.325261414E-01 -4.398480803E-02 -4.376524783E-01
 4.446630180E-01 -4.317072779E-02 -4.124678331E-01
 4.559842348E-01 -4.230839014E-02 -3.862000891E-01
 4.670894742E-01 -4.137038812E-02 -3.549772570E-01
 4.790674448E-01 -4.028782248E-02 -3.226626732E-01
 4.896489084E-01 -3.925174475E-02 -2.917385951E-01
 5.020018816E-01 -3.798215464E-02 -2.571896158E-01
 5.151978135E-01 -3.651819751E-02 -2.182816156E-01
 5.283730030E-01 -3.502641246E-02 -1.789729592E-01
 5.416292548E-01 -3.346262500E-02 -1.463222145E-01
 5.535606146E-01 -3.201269731E-02 -1.156301740E-01
 5.661644936E-01 -3.046391532E-02 -8.554653040E-02
 5.785385966E-01 -2.892142721E-02 -5.770758545E-02
 5.897602439E-01 -2.751982771E-02 -3.266948582E-02
 6.017347574E-01 -2.601992898E-02 -9.947524803E-03
 6.161744595E-01 -2.419913001E-02 1.612545921E-02
 6.303629279E-01 -2.241254598E-02 4.380849559E-02
 6.454545856E-01 -2.053969726E-02 6.860858592E-02
 6.582849622E-01 -1.896885782E-02 8.758689073E-02
 6.714246273E-01 -1.736248471E-02 1.071933396E-01
 6.836379170E-01 -1.590272784E-02 1.252046735E-01
 6.959270835E-01 -1.443179697E-02 1.440938822E-01
 7.102144957E-01 -1.281437837E-02 1.594971714E-01
 7.230195999E-01 -1.134859677E-02 1.750014015E-01
 7.352650762E-01 -1.001391280E-02 1.915963277E-01
 7.483052015E-01 -8.596356027E-03 2.057127504E-01
 7.597807646E-01 -7.381528616E-03 2.239046444E-01
 7.728620768E-01 -6.081217434E-03 2.376440287E-01
 7.844215631E-01 -4.974025767E-03 2.489003792E-01
 7.970272303E-01 -3.802485066E-03 2.632555768E-01
 8.083293438E-01 -2.828983590E-03 2.771079342E-01
 8.200448155E-01 -1.847956097E-03 2.890738856E-01
 8.334547281E-01 -8.387283306E-04 3.042763742E-01
 8.463315964E-01 3.073714470E-05 3.127381050E-01
 8.586096168E-01 7.802053588E-04 3.237416334E-01
 8.711782694E-01 1.430924633E-03 3.343330172E-01
 8.838922977E-01 1.965934178E-03 3.407549542E-01
 8.973288536E-01 2.394065261E-03 3.462160733E-01
 9.079497457E-01 2.614224097E-03 3.512680602E-01
 9.183961153E-01 2.734814771E-03 3.500158039E-01
 9.278191924E-01 2.759372350E-03 3.483223272E-01
 9.365423918E-01 2.716767369E-03 3.466171452E-01
 9.483264089E-01 2.557046013E-03 3.419998447E-01
 9.606707096E-01 2.271280857E-03 3.327756182E-01
 9.751331210E-01 1.775329700E-03 3.279666852E-01
 9.876458049E-01 1.204574830E-03 3.438588172E-01
 -5.000000000E-01 -1.000000000E+00 4.739796127E-02
 3.500000000E+00 -1.000000000E+00 1.304612637E-02
 3.500000000E+00 1.000000000E+00 -4.075458364E-03
 -5.000000000E-01 1.000000000E+00 4.106860700E-02
 -5.000000000E-01 5.000000000E-01 9.329490314E-02
 -5.000000000E-01 2.752797990E-12 1.353985468E-01
 -5.000000000E-01 -5.000000000E-01 9.079582248E-02
 -9.421907698E-13 -1.000000000E+00 2.565842771E-02
 5.000000000E-01 -1.000000000E+00 4.610509117E-03
 1.000000000E+00 -1.000000000E+00 2.475207483E-02
 1.500000000E+00 -1.000000000E+00 4.492167352E-02
 2.000000000E+00 -1.000000000E+00 3.636838362E-02
 2.500000000E+00 -1.000000000E+00 2.373971649E-02
 3.000000000E+00 -1.000000000E+00 1.630337035E-02
 3.500000000E+00 -5.000000000E-01 1.317271011E-02
 3.500000000E+00 -2.752797990E-12 1.248351614E-02
 3.500000000E+00 5.000000000E-01 3.972006287E-03
 3.000000000E+00 1.000000000E+00 -1.020097004E-02
 2.500000000E+00 1.000000000E+00 -1.990037055E-02
 2.000000000E+00 1.000000000E+00 -3.867746707E-02
 1.500000000E+00 1.000000000E+00 -8.627991805E-02
 1.000000000E+00 1.000000000E+00 -1.497994689E-01
 5.000000000E-01 1.000000000E+00 -1.018775996E-01
 1.733724275E-12 1.000000000E+00 5.463554111E-03
 6.903689121E-01 -2.724665397E-02 1.294824809E-01
 8.044638289E-01 -1.205648481E-02 2.658886056E-01
 5.964131653E-01 -3.845149640E-02 -2.185552400E-02
 9.020363649E-01 -7.477319553E-03 3.356266045E-01
 2.586331078E-01 -5.352316047E-02 -3.865536191E-01
 7.062346634E-01 6.021576822E-02 -4.224220581E-01
 2.760494768E-01 7.700550722E-02 -5.084431120E-01
 3.659406115E-01 7.817034211E-02 -6.025437497E-01
 9.154307653E-01 3.093823254E-02 -2.545692325E-02
 8.192720051E-01 4.635847293E-02 -2.309551980E-01
 6.122056293E-01 7.264762561E-02 -6.323577336E-01
 4.952531073E-01 -5.020376347E-02 -2.668346468E-01
 4.036113800E-01 -5.707224755E-02 -4.574335995E-01
 5.166294184E-01 7.974252510E-02 -7.235349651E-01
 1.788705562E+00 -5.285546942E-01 3.004972013E-02
 1.786646683E+00 6.734058577E-01 -2.830327502E-02
 3.031174757E+00 2.156842940E-01 4.774963392E-03
 8.014412608E-01 -5.323734289E-01 4.578788846E-02
 7.414449845E-01 5.082959333E-01 -2.443197936E-01
 3.250624192E-01 6.191380248E-01 -1.698185291E-01
 1.207093013E-01 5.433984042E-02 -2.803876882E-01
 1.765509559E-01 6.842492842E-02 -3.708318538E-01
 4.382697362E-01 8.128381884E-02 -6.705916862E-01
 2.734850655E+00 -5.326890949E-01 1.407642665E-02
 1.186950690E+00 6.924754675E-01 -8.736684463E-02
 9.938409999E-01 3.102474477E-01 -5.603304854E-02
 1.274056236E+00 -6.200290268E-01 6.371721039E-02
 1.506894660E+00 -2.203251255E-01 3.819892338E-02
 2.412280413E-01 -5.821464781E-01 -3.325913696E-02
 6.992958286E-02 -3.626589045E-02 -1.994335193E-01
 1.271989729E-01 -4.474767739E-02 -2.585598434E-01
 1.871234831E-01 -4.830119748E-02 -3.137049170E-01
 3.358969929E-01 -5.535778653E-02 -4.653130251E-01
 2.240997788E+00 -5.768143553E-01 2.011266231E-02
 2.025810046E+00 -1.912160639E-01 1.259807054E-02
 2.420207341E+00 -1.843047698E-01 8.670678999E-03
 2.184630933E+00 1.582459417E-01 1.106981024E-03
 1.777412995E+00 1.257527934E-01 4.822819815E-03
 -2.707986294E-01 -2.544235681E-01 1.424359384E-01
 -1.571877919E-01 -5.718731740E-01 6.007899461E-02
 -2.597376239E-01 2.223596114E-01 1.508102191E-01
 -1.526489147E-01 6.988016822E-01 3.375454693E-02
 3.120726884E-02 3.514368535E-01 1.984360583E-02
 5.443532364E-02 4.022927083E-02 -6.714744069E-02
 2.240276228E+00 5.583432073E-01 -1.223193865E-02
 2.746210553E+00 5.967092041E-01 -4.724343985E-03
 -2.508581517E-01 -8.578633074E-04 1.936297442E-01
 -1.417336196E-01 -1.283663235E-01 2.131165751E-01
 5.046576330E-02 -4.107293960E-01 2.592615730E-02
 2.827816075E-01 -3.113493794E-01 -1.554849097E-01
 -1.290552238E-01 1.178256964E-01 2.349271044E-01
 -1.245290115E-01 -1.871162482E-03 2.885356423E-01
 -5.641098190E-02 -6.567874913E-02 3.250252283E-01
 3.792377536E-02 -2.849994197E-02 -1.440334737E-01
 2.056568713E-02 -1.922513051E-02 -7.463940611E-02
 -4.927716599E-02 -1.493683181E-01 1.730747214E-01
 4.533785708E-03 -9.233219568E-02 1.502413010E-01
 3.820967839E-02 -1.692374097E-01 4.151418287E-02
 7.098604680E-02 -1.017134142E-01 -9.278392468E-02
 1.222701353E-01 -1.562677455E-01 -1.371340523E-01
 -1.409248266E-02 -5.161021027E-02 3.286664686E-01
 8.450741265E-03 -1.237569860E-02 5.709726643E-02
 -5.605605664E-02 -6.455752585E-03 4.455068487E-01
 1.326858458E-01 -9.070271945E-02 -2.171410386E-01
 1.873016001E-01 -1.264047205E-01 -2.433582365E-01
 2.214587273E-01 -5.507789618E-02 -3.434416145E-01
 1.858196702E-01 -1.858612032E-01 -1.818264677E-01
 2.481699125E-01 -1.604936780E-01 -2.656084331E-01
 2.977548475E-01 -5.710424247E-02 -4.250853619E-01
 2.443307942E-01 -1.012815206E-01 -3.178445381E-01
 3.008935037E-01 -1.221734987E-01 -3.446075612E-01
 3.063121594E-01 -1.949865359E-01 -2.623590306E-01
 3.551422873E-01 -1.405298676E-01 -3.448284529E-01
 4.494966231E-01 -5.680729725E-02 -3.789814930E-01
 4.261307603E-01 -5.658308047E-02 -4.271351158E-01
 3.924393351E-01 -2.141450061E-01 -2.499219714E-01
 3.685196637E-01 -5.811657727E-02 -4.738670596E-01
 4.303120691E-01 -3.231290978E-01 -1.599043355E-01
 5.002148232E-01 -2.468329022E-01 -1.461688010E-01
 5.493322439E-01 -4.956227860E-02 -1.220390056E-01
 5.230773320E-01 -4.718235378E-02 -1.942137545E-01
 4.728568013E-01 -1.623460153E-01 -2.294904750E-01
 5.637211437E-01 -1.690220426E-01 -8.298194606E-02
 6.095386447E-01 -2.789822640E-01 -1.503262720E-02
 6.680566722E-01 -1.890948033E-01 5.384001194E-02
 7.534559785E-01 -2.191411312E-02 2.065646871E-01
 7.296313074E-01 -2.351822483E-02 1.780557441E-01
 6.417837640E-01 -3.569767954E-02 5.638570295E-02
 7.147649156E-01 -2.800280167E-01 6.691112833E-02
 7.904444243E-01 -2.176578220E-01 1.270192097E-01
 9.675327872E-01 -8.740823273E-03 3.239722667E-01
 9.411129291E-01 -1.071067422E-02 3.279258941E-01
 8.531196651E-01 -1.022760631E-02 3.081037846E-01
 8.790862463E-01 -9.307508098E-03 3.267907234E-01
 8.276661722E-01 -3.539936591E-01 9.719417424E-02
 9.086592468E-01 -2.044964612E-01 1.751780060E-01
 8.648913078E-01 -1.227146044E-01 2.224236846E-01
 9.649530247E-01 -1.189287194E-01 2.159768377E-01
 1.011310082E+00 -1.976218467E-01 1.590797787E-01
 1.064016889E+00 -1.015453406E-01 1.676932705E-01
 1.108437116E+00 -2.044228620E-01 1.249530082E-01
 1.170062923E+00 -1.016732743E-01 1.028730083E-01
 7.744174470E-01 -1.043028428E-01 1.741677197E-01
 1.103137983E+00 -1.200584490E-02 1.225939515E-01
 1.213855909E+00 8.989961925E-03 7.113963014E-02
 1.139267679E+00 1.041375760E-01 8.171552892E-02
 9.648084471E-01 2.106084753E-02 1.223490832E-01
 1.289381182E+00 1.717417040E-01 3.150018795E-02
 9.063578763E-01 -6.541408883E-02 2.723042177E-01
 1.066092353E+00 -3.332522953E-01 1.104794019E-01
 6.229306191E-01 -1.151420257E-01 1.017683894E-02
 1.394815133E+00 1.471743048E-02 3.645378894E-02
 1.003967371E+00 -6.799416597E-02 2.317668575E-01
 5.618056500E-01 -1.059185202E-01 -9.121396705E-02
 1.236686225E+00 -3.134075522E-01 7.741856207E-02
 1.493542049E+00 1.941938641E-01 8.835519248E-03
 6.881270368E-01 -1.164842503E-01 9.405499037E-02
 6.597817650E-01 -7.517728130E-02 6.958995880E-02
 6.672347192E-01 -3.083826347E-02 9.535608212E-02
 7.014518576E-01 -6.701002111E-02 1.266402567E-01
 6.214844845E-01 -7.553429324E-02 1.630753020E-02
 1.011866173E-01 -2.599062293E-01 -4.282080018E-02
 1.161831923E+00 2.734652373E-01 1.312245055E-02
 3.412995974E-01 -9.813922563E-02 -3.997547652E-01
 3.801537289E-01 -9.603096026E-02 -4.060276419E-01
 2.785425308E-01 -9.062785174E-02 -3.652575333E-01
 4.136894657E-01 -1.299673499E-01 -3.308349281E-01
 4.550517662E-01 -1.037687042E-01 -3.088004697E-01
 5.093434264E-01 -1.153490454E-01 -1.908989523E-01
 4.873882222E-01 -8.344344477E-02 -2.593453872E-01
 4.749864939E-01 -4.910607109E-02 -3.230762425E-01
 1.760398599E-01 -8.408314500E-02 -2.652355144E-01
 1.491634945E-01 -4.799140678E-02 -2.775519727E-01
 3.109362068E+00 -2.612728293E-01 1.156813492E-02
 4.205526968E-02 -6.852109504E-02 -1.752398519E-02
 5.456898031E-02 -3.311129266E-02 -1.733873767E-01
 1.477238159E-02 -5.023266793E-02 1.013092813E-01
 5.241546890E-01 -8.412032030E-02 -1.747222664E-01
 1.062174789E+00 5.856717298E-02 1.314639765E-01
 1.044078165E+00 1.700698767E-01 4.143737682E-02
 8.990690447E-01 2.270101745E-01 -1.038948079E-01
 7.538030703E-01 5.399048176E-02 -3.399860256E-01
 7.817083841E-01 5.554925994E-02 -2.870767194E-01
 8.671718660E-01 3.923608828E-02 -1.444150958E-01
 9.457340198E-01 1.377374441E-01 -2.256570632E-02
 9.955548120E-01 8.925591856E-02 9.007610498E-02
 8.289762270E-01 3.443935153E-01 -1.863118768E-01
 7.485463196E-01 2.345763891E-01 -2.906116292E-01
 6.565444339E-01 6.872214322E-02 -5.328935144E-01
 8.011460431E-01 1.618592323E-01 -2.241252959E-01
 6.869833934E-01 3.361063115E-01 -3.437209095E-01
 5.723684513E-01 2.683233714E-01 -4.735460486E-01
 5.629773032E-01 7.470144272E-02 -7.179971408E-01
 6.477135469E-01 1.639281892E-01 -4.864652277E-01
 5.643609667E-01 4.095522700E-01 -3.616329688E-01
 4.486830154E-01 2.874582699E-01 -4.442482883E-01
 5.060773011E-01 1.950240181E-01 -5.548266344E-01
 4.828587557E-01 8.290735740E-02 -7.048554463E-01
 4.000106930E-01 2.125511801E-01 -4.838387916E-01
 4.024265166E-01 7.880326314E-02 -6.399054426E-01
 3.309193868E-01 2.801367629E-01 -3.690287289E-01
 2.858359418E-01 1.824631610E-01 -4.085892804E-01
 2.257786495E-01 7.439018496E-02 -4.416830153E-01
 2.010363618E-01 7.166939565E-02 -4.071109185E-01
 3.298037349E-01 7.958791881E-02 -5.624964207E-01
 3.024561386E-01 7.652265039E-02 -5.355418049E-01
 4.341144407E-01 1.554105287E-01 -5.761374724E-01
 3.399272405E-01 1.450755716E-01 -5.003160933E-01
 2.209151407E-01 2.668204720E-01 -2.599046352E-01
 1.729056381E-01 1.740147119E-01 -2.436250342E-01
 2.326800683E-01 1.387192877E-01 -3.828650610E-01
 2.542179366E-01 4.149527537E-01 -2.082495557E-01
 9.629574008E-02 -7.014250945E-02 -1.838598591E-01
 9.221359903E-02 -3.996162679E-02 -2.275866182E-01
 5.335122192E-01 -3.588164651E-01 -7.757412213E-02
 3.897829296E-01 -5.780531582E-02 -4.691154909E-01
 3.961437141E-01 -7.353579627E-02 -4.341032731E-01
 3.786653011E-01 -7.029612139E-02 -4.530759432E-01
 3.591178896E-01 -7.216769323E-02 -4.476120611E-01
 5.528120413E-01 -7.382440518E-02 -1.110860185E-01
 5.746788176E-01 -4.137954360E-02 -6.659014696E-02
 9.391490318E-01 8.362081849E-02 2.814553541E-03
 8.950117519E-01 1.055237471E-01 -8.819249047E-02
 9.438540230E-01 2.759577254E-02 5.638840863E-02
 1.013360833E+00 4.327141951E-02 1.702073518E-01
 9.038040436E-01 6.878434100E-02 -6.422400709E-02
 8.917989599E-01 3.469113380E-02 -9.035674073E-02
 1.044661303E+00 1.699565156E-02 1.761188605E-01
 1.027854399E+00 -2.454459381E-02 2.179186043E-01
 8.682742575E-01 7.767398462E-02 -1.342434433E-01
 8.422892445E-01 4.268329672E-02 -1.882494380E-01
 8.431422410E-01 1.140936414E-01 -1.744636514E-01
 7.916025445E-01 1.051860002E-01 -2.564862570E-01
 7.494953112E-01 1.421670913E-01 -3.102603863E-01
 7.457478422E-01 9.435035487E-02 -3.393733469E-01
 7.296257610E-01 5.600788271E-02 -3.865580771E-01
 7.037868743E-01 1.073397085E-01 -4.039660728E-01
 8.313345481E-01 7.844279769E-02 -2.005796742E-01
 -2.516498748E-02 -2.026653583E-02 5.552036361E-01
 7.054410771E-01 -2.592199470E-02 1.487797002E-01
 7.420717988E-01 5.768122510E-02 -3.619571976E-01
 6.086970760E-01 -3.520499048E-02 5.087888369E-04
 6.950062500E-01 6.494736597E-02 -4.424428393E-01
 6.819224353E-01 6.293344967E-02 -4.748175342E-01
 6.880761311E-01 7.828612316E-02 -4.516748269E-01
 6.995651078E-02 -6.504567850E-02 -1.418529342E-01
 3.856891823E-02 -4.487312664E-02 -8.090608301E-02
 2.591615336E-02 -3.540017703E-02 -4.660390608E-02
 -2.785028752E-04 -3.295482408E-02 3.620572363E-01
 3.477835718E-01 -5.786431176E-02 -4.691379888E-01
 6.228248197E-01 -3.744817283E-02 2.571052003E-02
 5.078291593E-01 -4.703175742E-02 -2.331340179E-01
 7.335156853E-01 7.066642843E-02 -3.713157182E-01
 4.843768233E-01 -4.859976257E-02 -2.990131731E-01
 7.996211945E-01 7.075622278E-02 -2.528115068E-01
 2.709065207E-01 -5.681462464E-02 -3.958567998E-01
 3.094453932E-01 -8.761440961E-02 -3.950081627E-01
 3.108505053E-01 -6.684686462E-02 -4.246997956E-01
 6.716038520E-01 6.761318374E-02 -4.989941571E-01
 6.669520127E-01 9.053596909E-02 -4.930855985E-01
 6.338832638E-01 6.978518136E-02 -5.865231795E-01
 6.714659875E-01 1.234538544E-01 -4.622082332E-01
 6.324246144E-01 1.106205853E-01 -5.582330402E-01
 5.947078718E-01 1.473606672E-01 -5.864119336E-01
 5.924319374E-01 1.090154768E-01 -6.356989316E-01
 5.874284619E-01 7.203674841E-02 -6.875491937E-01
 5.475187544E-01 1.478671866E-01 -6.244793149E-01
 5.762965102E-01 7.534982862E-02 -7.006064179E-01
 5.680154635E-01 9.410648774E-02 -6.854153421E-01
 5.390418635E-01 7.712338821E-02 -7.370280261E-01
 5.418780681E-01 1.095898319E-01 -6.823295752E-01
 5.133966477E-01 1.329202063E-01 -6.446889574E-01
 4.720723899E-01 1.248350630E-01 -6.391067817E-01
 1.136960083E-01 -4.348621387E-02 -2.455097736E-01
 1.178538533E-01 -6.005112648E-02 -2.269350662E-01
 3.238024646E-01 -5.697709453E-02 -4.517790951E-01
 3.350206015E-01 -7.064122614E-02 -4.381359965E-01
 4.141291983E-01 -6.776098335E-02 -4.228643391E-01
 4.362726575E-01 -7.227660317E-02 -3.845528939E-01
 4.118695746E-01 -9.048188000E-02 -3.902707338E-01
 4.356552556E-01 -4.852121701E-01 -9.695176799E-02
 2.470538169E-01 -5.467612347E-02 -3.714434943E-01
 2.565643236E-01 -7.054541905E-02 -3.670777478E-01
 2.355934771E-01 -6.792101569E-02 -3.454709425E-01
 2.099971689E-01 -7.388044146E-02 -3.036184361E-01
 6.081103957E-01 -5.331995541E-02 -3.046980345E-03
 5.891524886E-01 -7.609997093E-02 -4.093565949E-02
 1.967294397E-01 -4.876729174E-02 -3.225809656E-01
 1.911168909E-01 -6.413880556E-02 -3.024138898E-01
 2.346513039E-01 -5.266313041E-02 -3.596604063E-01
 6.446519739E-01 6.710176537E-02 -5.634607545E-01
 8.054817309E-01 5.014694222E-02 -2.519652042E-01
 7.739165106E-01 7.716785338E-02 -2.951334335E-01
 6.993670000E-01 -3.989560879E-02 1.354299439E-01
 7.191609212E-01 -3.808348116E-02 1.578129231E-01
 7.410001635E-01 -3.791524344E-02 1.838580101E-01
 7.662139103E-01 -3.835128943E-02 2.080754417E-01
 7.792032158E-01 -1.376663468E-02 2.384267345E-01
 7.531224533E-01 -6.499446124E-02 1.810380152E-01
 7.827229665E-01 -6.348320866E-02 2.113892629E-01
 6.797482775E-01 -4.522850179E-02 1.075932899E-01
 6.562308240E-01 -4.556768226E-02 7.587848556E-02
 4.619548955E-01 -7.187243240E-02 -3.319610679E-01
 6.350360088E-01 -5.379084410E-02 3.996224069E-02
 1.745654857E-01 -5.053760215E-02 -2.990109945E-01
 1.601875248E-01 -6.312314408E-02 -2.712872161E-01
 6.536420663E-01 -3.053050044E-02 7.780414483E-02
 7.898772148E-01 -3.812045547E-02 2.312994525E-01
 8.137343083E-01 -5.251660916E-02 2.427167786E-01
 8.267584635E-01 -1.263777114E-02 2.847561680E-01
 1.616674361E-01 -4.719244272E-02 -2.891569834E-01
 5.872630922E-01 -5.089502190E-02 -4.207345413E-02
 5.353040879E-01 -4.521696280E-02 -1.573359403E-01
 7.174934803E-01 -2.233733517E-02 1.642885129E-01
 4.378178400E-01 -5.456450334E-02 -4.084070408E-01
 4.145262554E-01 -5.428171476E-02 -4.489686891E-01
 4.669058433E-01 8.009929798E-02 -6.982497341E-01
 3.581061662E-01 -5.624969041E-02 -4.756938464E-01
 5.622831243E-01 -4.212797971E-02 -9.380676503E-02
 5.695868587E-01 -5.677611979E-02 -8.019677892E-02
 2.844179283E-01 -5.537051454E-02 -4.123497675E-01
 8.391940408E-01 -1.390535262E-02 2.960187644E-01
 8.508650133E-01 -2.955676647E-02 2.885054597E-01
 8.310493241E-01 -3.257206391E-02 2.722151274E-01
 8.453148657E-01 -5.560776471E-02 2.617073751E-01
 8.780015924E-01 -4.422273829E-02 2.885442739E-01
 8.139904429E-01 -1.123483441E-02 2.759592069E-01
 4.538406375E-01 8.257055802E-02 -6.821797644E-01
 4.434059065E-01 9.537286548E-02 -6.577949926E-01
 4.066201779E-01 1.179455038E-01 -5.974694156E-01
 4.245891478E-01 9.490637824E-02 -6.436990554E-01
 3.703282309E-01 1.196354147E-01 -5.607467438E-01
 3.377061458E-01 1.075164750E-01 -5.406802460E-01
 3.148820487E-01 7.593642938E-02 -5.515222827E-01
 3.108163440E-01 9.167178148E-02 -5.280240090E-01
 2.872690332E-01 9.415315259E-02 -5.001245974E-01
 3.049597719E-01 1.248448643E-01 -4.868916890E-01
 2.639816517E-01 9.006577182E-02 -4.778383230E-01
 2.509383977E-01 7.540142460E-02 -4.784455231E-01
 2.397387064E-01 9.546645317E-02 -4.428214133E-01
 2.134220850E-01 9.358477147E-02 -4.012578005E-01
 1.858522902E-01 8.879538610E-02 -3.594546737E-01
 1.551702438E-01 7.881345652E-02 -3.131615959E-01
 1.415081963E-01 6.092011570E-02 -3.137945346E-01
 1.961134092E-01 1.191771381E-01 -3.389718969E-01
 3.457371981E-01 8.887620174E-02 -5.729166630E-01
 1.542137716E-01 6.091969384E-02 -3.397318091E-01
 1.301877648E-01 5.642689760E-02 -2.972701816E-01
 1.228036394E-01 7.008503653E-02 -2.677904200E-01
 8.707333066E-02 4.898182987E-02 -1.845188971E-01
 9.672765388E-02 4.997381309E-02 -2.241451418E-01
 8.921458300E-02 6.411496312E-02 -1.639256086E-01
 6.784828906E-01 -2.731572636E-02 1.137736828E-01
 3.790053719E-01 -5.574644553E-02 -4.788003088E-01
 5.497833004E-01 7.445142025E-02 -7.333727139E-01
 8.667978992E-01 -8.124104000E-03 3.213643910E-01
 7.128519273E-01 7.628989232E-02 -4.035559143E-01
 4.152029037E-01 8.075511750E-02 -6.551611948E-01
 4.264058968E-01 7.886989466E-02 -6.663962946E-01
 8.102094131E-01 -2.482380863E-02 2.605159424E-01
 7.932808843E-01 5.024354062E-02 -2.696537732E-01
 4.651137730E-01 -5.415771924E-02 -3.457116874E-01
 1.375061225E-01 -5.854310826E-02 -2.505190338E-01
 2.635410975E-01 7.348247153E-02 -4.978865748E-01
 5.321751194E-01 -6.126946071E-02 -1.612922772E-01
 2.563112035E+00 2.046700498E-01 -3.369948379E-04
 5.642448234E-01 1.922476402E-01 -5.645247706E-01
 -5.172450864E-03 -1.363870625E-02 5.362735129E-01
 3.117634188E-03 -9.132707322E-03 3.547338200E-01
 7.659427852E-01 5.740846531E-02 -3.154837737E-01
 6.431203264E-01 8.158375449E-02 -5.541893915E-01
 6.242656599E-01 8.273688262E-02 -5.955266610E-01
 6.058826891E-01 9.002315013E-02 -6.270509543E-01
 7.191594674E-01 6.016788924E-02 -4.039813191E-01
 5.156020959E-01 1.047842999E-01 -6.950100011E-01
 2.063983746E-01 -5.402002414E-02 -3.282559844E-01
 1.383713869E-01 -4.418445402E-02 -2.719261531E-01
 2.134917653E-01 7.116128574E-02 -4.273965412E-01
 9.462569898E-01 5.092926014E-01 -1.170550956E-01
 9.923980613E-01 -3.914185872E-02 2.648719999E-01
 9.666536222E-01 -5.468802177E-02 2.659589438E-01
 9.320641676E-01 -4.574261979E-02 2.917975592E-01
 9.213608596E-01 -7.765775893E-03 3.371983597E-01
 9.932618024E-01 -1.737755332E-02 3.079403076E-01
 9.117576847E-01 -5.496171824E-03 3.400113150E-01
 9.097883789E-01 -1.644247045E-02 3.269546408E-01
 8.921649547E-01 -1.979192241E-02 3.174154851E-01
 9.075442895E-01 -3.585923998E-02 3.053057919E-01
 9.275016598E-01 -2.121714997E-02 3.171795849E-01
 9.484694971E-01 -2.884841793E-02 3.107174831E-01
 1.076421628E-01 5.721358546E-02 -2.454117948E-01
 5.072926493E-01 -6.239040527E-02 -2.258435533E-01
 8.238985130E-01 -8.918141362E-02 2.189451523E-01
 8.705744105E-01 -2.108837274E-02 3.089452861E-01
 9.696298058E-01 4.991115905E-02 8.975280631E-02
 9.293230123E-01 4.739327140E-02 7.198346470E-03
 9.050790779E-01 4.484271377E-02 -5.747661326E-02
 8.325291824E-01 5.557616208E-02 -2.028782243E-01
 6.982666698E-01 1.697968214E-01 -3.866754488E-01
 9.719312511E-01 -2.475795078E-02 2.922510363E-01
 7.679769081E-01 -1.803598465E-02 2.245806321E-01
 2.888376000E-01 7.450323516E-02 -5.246376666E-01
 5.660071533E-01 6.220679664E-01 -2.460631350E-01
 5.985061005E-01 7.454297209E-02 -6.625484500E-01
 7.415315454E-01 -2.039157004E-02 1.929877481E-01
 7.919812358E-01 -1.678977587E-02 2.495087450E-01
 8.850641554E-02 2.462669768E-01 -5.801374543E-02
 8.153924377E-02 1.623823534E-01 -7.294203192E-02
 -4.110345188E-02 2.196687174E-01 1.322467170E-01
 -3.073571657E-02 1.236458330E-01 2.513289197E-01
 2.077325515E-02 2.470943582E-02 1.949803412E-01
 3.454808929E-02 1.098234292E-01 8.983304821E-02
 -7.368679703E-02 6.263400101E-02 3.571641935E-01
 -3.987426573E-02 3.412376304E-02 5.275063365E-01
 -8.869681330E-03 6.941141032E-02 3.558225526E-01
 -3.086005878E-02 4.777306438E-03 6.713037593E-01
 -8.616381170E-03 3.910749792E-02 5.043637590E-01
 -8.030210802E-04 1.482033095E-02 8.088517244E-01