TITLE     = "Visualization of the solution"
VARIABLES = "x"
"y"
"Pressure_Coefficient"
ZONE T="Zone"
 STRANDID=0, SOLUTIONTIME=0
 Nodes=701, Elements=1187, ZONETYPE=FEQuadrilateral
 DATAPACKING=POINT
 DT=(DOUBLE DOUBLE DOUBLE )
 9.997825623E-01 5.128607154E-04 3.336529941E-01
 9.847980738E-01 3.505327739E-03 2.757935797E-01
 9.717676640E-01 6.190937944E-03 1.650211740E-01
 9.559012055E-01 9.363413788E-03 1.191146760E-01
 9.419733882E-01 1.218449976E-02 6.948892442E-02
 9.289325476E-01 1.470711920E-02 3.851281579E-02
 9.180021286E-01 1.692339219E-02 -1.039032154E-02
 9.064278007E-01 1.921105571E-02 -4.326790052E-02
 8.947299719E-01 2.142284438E-02 -7.641998598E-02
 8.828237653E-01 2.367493324E-02 -1.046760845E-01
 8.706051707E-01 2.588273957E-02 -1.265362874E-01
 8.585353494E-01 2.804624848E-02 -1.555332097E-01
 8.466427326E-01 3.014566191E-02 -1.879069923E-01
 8.355792165E-01 3.206915036E-02 -2.078968402E-01
 8.239158392E-01 3.398719430E-02 -2.269722659E-01
 8.117272854E-01 3.600858897E-02 -2.495766334E-01
 7.992000580E-01 3.800122067E-02 -2.671349885E-01
 7.872904539E-01 3.985378891E-02 -2.939294508E-01
 7.753557563E-01 4.172262922E-02 -3.141619497E-01
 7.636864781E-01 4.343154281E-02 -3.337633417E-01
 7.512459159E-01 4.528112337E-02 -3.572028480E-01
 7.378138900E-01 4.716978967E-02 -3.791786060E-01
 7.271578312E-01 4.866358265E-02 -3.989713980E-01
 7.158175111E-01 5.017437786E-02 -4.183344676E-01
 7.041909695E-01 5.171381310E-02 -4.433829553E-01
 6.910820603E-01 5.338167399E-02 -4.669863403E-01
 6.781651974E-01 5.495169386E-02 -4.946160113E-01
 6.674613953E-01 5.623007566E-02 -5.209469288E-01
 6.555966735E-01 5.756996199E-02 -5.493099952E-01
 6.443984509E-01 5.879510567E-02 -5.807728427E-01
 6.325318813E-01 6.004034728E-02 -6.023336381E-01
 6.207954288E-01 6.116901338E-02 -6.247135706E-01
 6.101172566E-01 6.216439605E-02 -6.578122009E-01
 5.980975628E-01 6.323650479E-02 -6.876132326E-01
 5.863077044E-01 6.421158463E-02 -7.086071602E-01
 5.726971030E-01 6.524576247E-02 -7.346402247E-01
 5.599390864E-01 6.614914536E-02 -7.552658946E-01
 5.470005870E-01 6.695462018E-02 -7.690649275E-01
 5.355299115E-01 6.760641932E-02 -7.761748518E-01
 5.233149529E-01 6.820906699E-02 -7.810868908E-01
 5.106880665E-01 6.877271086E-02 -7.857495244E-01
 4.996638894E-01 6.918459386E-02 -7.831850039E-01
 4.864463210E-01 6.960878521E-02 -7.753334852E-01
 4.733150005E-01 6.993015110E-02 -7.592948363E-01
 4.593297839E-01 7.018052787E-02 -7.419533938E-01
 4.455694556E-01 7.034116983E-02 -7.252975601E-01
 4.325137138E-01 7.040172815E-02 -7.095301190E-01
 4.190945029E-01 7.038316131E-02 -6.977386713E-01
 4.065124393E-01 7.029561698E-02 -6.837659880E-01
 3.933935761E-01 7.012119144E-02 -6.723188792E-01
 3.811027408E-01 6.989405304E-02 -6.576386137E-01
 3.692339063E-01 6.959052384E-02 -6.412247255E-01
 3.557455242E-01 6.918004155E-02 -6.268730384E-01
 3.430421650E-01 6.870508194E-02 -6.148963422E-01
 3.302253187E-01 6.816630065E-02 -6.049418405E-01
 3.195894361E-01 6.764311343E-02 -5.929825014E-01
 3.072918057E-01 6.698747724E-02 -5.822802458E-01
 2.944476306E-01 6.622731686E-02 -5.659812067E-01
 2.805788219E-01 6.529593468E-02 -5.521303749E-01
 2.684265077E-01 6.441470981E-02 -5.415575398E-01
 2.565472722E-01 6.348492205E-02 -5.267380368E-01
 2.440219671E-01 6.240948290E-02 -5.106993021E-01
 2.315023839E-01 6.126137823E-02 -4.965108516E-01
 2.195068151E-01 6.007585675E-02 -4.804112626E-01
 2.077088207E-01 5.881925300E-02 -4.645603561E-01
 1.960902661E-01 5.750732496E-02 -4.473822877E-01
 1.838902980E-01 5.603311211E-02 -4.299723694E-01
 1.722075641E-01 5.453355983E-02 -4.107808623E-01
 1.606204808E-01 5.294666812E-02 -3.932421798E-01
 1.491593122E-01 5.128451437E-02 -3.759809606E-01
 1.384275854E-01 4.962829873E-02 -3.532405194E-01
 1.272154301E-01 4.778036103E-02 -3.314677562E-01
 1.162642762E-01 4.587860033E-02 -3.103448957E-01
 1.056407541E-01 4.389901087E-02 -2.917344303E-01
 9.596282989E-02 4.199125618E-02 -2.660113716E-01
 8.532944322E-02 3.975533321E-02 -2.365043661E-01
 7.404102385E-02 3.719055280E-02 -2.104049219E-01
 6.439437717E-02 3.483237326E-02 -1.827656189E-01
 5.489947647E-02 3.232203424E-02 -1.507475668E-01
 4.601138458E-02 2.976389229E-02 -1.166164435E-01
 3.822055086E-02 2.730780095E-02 -7.790481613E-02
 3.138393536E-02 2.495605126E-02 -3.935336807E-02
 2.552008629E-02 2.274696529E-02 1.237851924E-02
 2.121291868E-02 2.096563019E-02 5.797996399E-02
 1.710826531E-02 1.912219636E-02 1.172430133E-01
 1.400356833E-02 1.759407111E-02 1.520350480E-01
 1.125050709E-02 1.611325331E-02 2.144706394E-01
 9.231276810E-03 1.492896955E-02 2.889376918E-01
 7.385488600E-03 1.375395898E-02 3.229265718E-01
 5.656850524E-03 1.254244521E-02 4.288650317E-01
 3.444850910E-03 1.077089366E-02 4.406884936E-01
 1.626434270E-03 9.020701051E-03 4.637440554E-01
 1.469517156E-04 7.226096932E-03 7.782116561E-01
 -1.278346172E-03 4.760280717E-03 1.159842240E+00
 -1.899795257E-03 2.845678711E-03 1.015014233E+00
 -2.112691989E-03 1.285409904E-03 1.043156418E+00
 -2.035701415E-03 -5.508563481E-04 9.990074364E-01
 -1.561068348E-03 -2.605551621E-03 9.921696781E-01
 -5.115879467E-04 -5.015845411E-03 8.674632441E-01
 1.131421304E-03 -7.546030916E-03 8.289653233E-01
 3.368373029E-03 -1.013822760E-02 5.908437095E-01
 5.359789822E-03 -1.205085777E-02 5.192425151E-01
 7.688176353E-03 -1.399069466E-02 4.674128079E-01
 9.482406080E-03 -1.533457451E-02 3.784666224E-01
 1.168316230E-02 -1.684765331E-02 3.286939421E-01
 1.421614923E-02 -1.844549552E-02 2.459498991E-01
 1.758174784E-02 -2.037812583E-02 1.958888414E-01
 2.079623006E-02 -2.206112817E-02 1.394060313E-01
 2.491737157E-02 -2.404247597E-02 8.956618460E-02
 3.039339185E-02 -2.642078139E-02 4.352942330E-02
 3.614429384E-02 -2.867321484E-02 -4.492745434E-02
 4.315128177E-02 -3.116279282E-02 -8.920671942E-02
 5.074306205E-02 -3.361612186E-02 -1.531875446E-01
 5.950534716E-02 -3.617109358E-02 -1.907134202E-01
 6.821262836E-02 -3.849691898E-02 -2.215673539E-01
 7.856892794E-02 -4.102716967E-02 -2.476457804E-01
 8.844781667E-02 -4.323520139E-02 -2.761698611E-01
 9.902142733E-02 -4.543545842E-02 -2.999026127E-01
 1.102917418E-01 -4.760906100E-02 -3.236642086E-01
 1.217622086E-01 -4.965265468E-02 -3.489939803E-01
 1.335015893E-01 -5.160599202E-02 -3.710484774E-01
 1.438762397E-01 -5.321376026E-02 -3.917961927E-01
 1.551965028E-01 -5.486828089E-02 -4.107963055E-01
 1.671083868E-01 -5.649429560E-02 -4.322321204E-01
 1.786693782E-01 -5.796345696E-02 -4.507574057E-01
 1.903742254E-01 -5.934913456E-02 -4.693497376E-01
 2.009320557E-01 -6.051754579E-02 -4.894299178E-01
 2.122506201E-01 -6.168426946E-02 -5.092973801E-01
 2.243858278E-01 -6.282894313E-02 -5.303920917E-01
 2.364633381E-01 -6.388734281E-02 -5.545782757E-01
 2.482015193E-01 -6.479728967E-02 -5.790085634E-01
 2.604262233E-01 -6.566968560E-02 -6.000324241E-01
 2.713575661E-01 -6.634686142E-02 -6.233127018E-01
 2.838201821E-01 -6.701210886E-02 -6.419841025E-01
 2.958758175E-01 -6.755492091E-02 -6.633770368E-01
 3.086521327E-01 -6.801200658E-02 -6.860431402E-01
 3.202041984E-01 -6.831500679E-02 -7.099589467E-01
 3.326884806E-01 -6.853551418E-02 -7.337055235E-01
 3.431193233E-01 -6.861106306E-02 -7.581768715E-01
 3.545289636E-01 -6.859415770E-02 -7.736552694E-01
 3.655366898E-01 -6.847711653E-02 -7.880272665E-01
 3.763865829E-01 -6.824556738E-02 -7.953956977E-01
 3.881528378E-01 -6.790132821E-02 -7.922102696E-01
 4.009980857E-01 -6.735797226E-02 -7.737757832E-01
 4.131338894E-01 -6.673046201E-02 -7.417902887E-01
 4.259853661E-01 -6.593392044E-02 -7.048268924E-01
 4.384340644E-01 -6.502240151E-02 -6.628555051E-01
 4.512746930E-01 -6.395511329E-02 -6.126722352E-01
 4.634361267E-01 -6.280915439E-02 -5.574775294E-01
 4.758970439E-01 -6.155968830E-02 -5.074924621E-01
 4.879830778E-01 -6.022171304E-02 -4.618803993E-01
 5.003814697E-01 -5.876031145E-02 -4.112006225E-01
 5.141188502E-01 -5.707521737E-02 -3.658000411E-01
 5.273367763E-01 -5.532187968E-02 -3.223291818E-01
 5.400259495E-01 -5.360354483E-02 -2.802390477E-01
 5.532032847E-01 -5.172025785E-02 -2.389848422E-01
 5.664996505E-01 -4.980925471E-02 -2.008996415E-01
 5.796914697E-01 -4.784841090E-02 -1.674322231E-01
 5.928861499E-01 -4.588032514E-02 -1.365499692E-01
 6.056690216E-01 -4.391186684E-02 -1.061592132E-01
 6.190607548E-01 -4.182711244E-02 -7.096883464E-02
 6.330953836E-01 -3.966447711E-02 -4.331032583E-02
 6.468841434E-01 -3.751655295E-02 -2.041882958E-02
 6.599197984E-01 -3.545426950E-02 6.602051938E-03
 6.732988954E-01 -3.333748877E-02 3.384843087E-02
 6.856041551E-01 -3.139242530E-02 5.847820096E-02
 6.980297565E-01 -2.945242636E-02 7.822617534E-02
 7.126977444E-01 -2.714880556E-02 1.029382438E-01
 7.259252071E-01 -2.512282692E-02 1.248921442E-01
 7.375038266E-01 -2.335960977E-02 1.407390175E-01
 7.507554293E-01 -2.133255638E-02 1.612027343E-01
 7.632992268E-01 -1.942924224E-02 1.859259740E-01
 7.765241265E-01 -1.746088266E-02 2.080701899E-01
 7.889540195E-01 -1.569105312E-02 2.242489534E-01
 8.015581369E-01 -1.387985796E-02 2.418941692E-01
 8.125379086E-01 -1.234786492E-02 2.649533370E-01
 8.238028884E-01 -1.082978584E-02 2.820891918E-01
 8.363234997E-01 -9.213076904E-03 2.970877759E-01
 8.486202955E-01 -7.671769708E-03 3.156053166E-01
 8.608201742E-01 -6.240650546E-03 3.359144306E-01
 8.718455434E-01 -5.035255570E-03 3.501555108E-01
 8.830067515E-01 -3.895810572E-03 3.650290264E-01
 8.956080079E-01 -2.745969687E-03 3.777890252E-01
 9.059510231E-01 -1.933957217E-03 3.868040790E-01
 9.165241718E-01 -1.197303762E-03 3.957971640E-01
 9.264663458E-01 -6.143747014E-04 4.033831583E-01
 9.361026883E-01 -1.557424112E-04 4.095591281E-01
 9.485863447E-01 2.829870500E-04 4.098611752E-01
 9.624651670E-01 5.877844524E-04 4.158146657E-01
 9.767919779E-01 7.093695458E-04 4.392335683E-01
 9.894727468E-01 6.519871531E-04 3.472317860E-01
 -5.000000000E-01 -1.000000000E+00 5.741217806E-02
 3.500000000E+00 -1.000000000E+00 1.368480613E-02
 3.500000000E+00 1.000000000E+00 -1.016251735E-03
 -5.000000000E-01 1.000000000E+00 5.495329925E-02
 -5.000000000E-01 5.000000000E-01 1.097959461E-01
 -5.000000000E-01 2.752797990E-12 1.699202195E-01
 -5.000000000E-01 -5.000000000E-01 1.127424887E-01
 -9.421907698E-13 -1.000000000E+00 2.971286431E-02
 5.000000000E-01 -1.000000000E+00 -3.178748727E-02
 1.000000000E+00 -1.000000000E+00 -1.088988318E-02
 1.500000000E+00 -1.000000000E+00 3.048749299E-02
 2.000000000E+00 -1.000000000E+00 3.035853273E-02
 2.500000000E+00 -1.000000000E+00 2.084186021E-02
 3.000000000E+00 -1.000000000E+00 1.531559833E-02
 3.500000000E+00 -5.000000000E-01 1.474337863E-02
 3.500000000E+00 -2.752797990E-12 1.444025803E-02
 3.500000000E+00 5.000000000E-01 6.816108278E-03
 3.000000000E+00 1.000000000E+00 -7.259476333E-03
 2.500000000E+00 1.000000000E+00 -1.654285220E-02
 2.000000000E+00 1.000000000E+00 -3.533717360E-02
 1.500000000E+00 1.000000000E+00 -8.020478657E-02
 1.000000000E+00 1.000000000E+00 -1.479433633E-01
 5.000000000E-01 1.000000000E+00 -9.764109366E-02
 1.733724275E-12 1.000000000E+00 1.713531065E-02
 6.711019334E-01 -4.893362416E-02 2.649073298E-02
 7.735663059E-01 -3.349240676E-02 1.919597044E-01
 8.888538210E-01 -1.166343252E-02 3.608415652E-01
 5.699931974E-01 -5.990067523E-02 -1.921098082E-01
 6.977061143E-01 6.803406410E-02 -4.453091572E-01
 2.855723030E-01 7.489641302E-02 -5.454817459E-01
 9.113125975E-01 3.132720539E-02 -2.919766342E-02
 7.941603112E-01 5.125556946E-02 -2.748690054E-01
 2.416865376E-01 -7.849400072E-02 -5.418295358E-01
 5.803101181E-01 7.535883524E-02 -7.029098038E-01
 4.064147901E-01 -7.699149272E-02 -7.392424213E-01
 4.172371595E-01 8.241020024E-02 -6.795970884E-01
 1.840534048E+00 -5.986385316E-01 2.959130313E-02
 1.765927907E+00 5.656829191E-01 -1.663892387E-02
 3.031182604E+00 2.156808280E-01 6.694159806E-03
 7.580061627E-01 -5.060793458E-01 6.664958183E-04
 4.832975409E-01 -7.261173663E-02 -4.667827956E-01
 3.622254188E-01 -7.183977694E-01 -6.975121432E-02
 1.239046533E-01 -6.261946340E-02 -3.283240112E-01
 3.403724900E-01 -7.791661476E-02 -7.291759235E-01
 7.339650763E-01 5.420759132E-01 -2.425866495E-01
 4.962349838E-01 8.168644608E-02 -7.619758030E-01
 2.889324935E-01 6.443671452E-01 -1.098433630E-01
 1.183076742E-01 6.051798999E-02 -2.896557423E-01
 1.767548748E-01 6.536508861E-02 -4.000534130E-01
 2.734829968E+00 -5.327094851E-01 1.312676883E-02
 1.166438215E+00 6.152317172E-01 -7.107720476E-02
 9.867884669E-01 3.445033041E-01 -3.793154883E-02
 8.539646967E-01 3.774692414E-02 -1.666558871E-01
 1.246898780E+00 -6.623415559E-01 5.307288012E-02
 1.504772407E+00 -2.687547324E-01 4.319384476E-02
 2.249617722E+00 -5.885237576E-01 1.812724446E-02
 1.981973416E+00 -2.127876519E-01 1.497736691E-02
 2.413157256E+00 -1.867384497E-01 8.765680944E-03
 2.184558327E+00 1.580817671E-01 1.336968585E-03
 1.780938479E+00 1.469826509E-01 2.786100885E-03
 -2.712376843E-01 -2.367994877E-01 1.897228464E-01
 -1.458419304E-01 -6.015188898E-01 5.560329642E-02
 1.369957033E-01 -3.713525629E-01 -6.406039556E-02
 7.107651406E-02 -5.139433368E-02 -1.864311196E-01
 1.840289872E-01 -7.358737738E-02 -4.353654261E-01
 -2.743314922E-01 2.322917877E-01 1.838697445E-01
 -1.078288944E-01 6.246646352E-01 4.067846421E-02
 2.500524296E-02 3.299980163E-01 2.752054231E-02
 4.548356170E-02 3.958295874E-02 -6.837435016E-02
 2.191463640E+00 6.007832813E-01 -1.082101757E-02
 2.738078282E+00 6.037811229E-01 -2.487255003E-03
 -2.355347026E-01 -4.436349913E-03 2.442253601E-01
 -1.285474068E-01 1.267990644E-01 2.655134464E-01
 -1.098976623E-01 -1.272239685E-01 2.732633854E-01
 -7.385442553E-02 -3.207848137E-01 1.106004620E-01
 8.007856015E-03 -1.818612722E-01 1.276414599E-01
 3.767439102E-02 -3.547218514E-02 -1.483956279E-02
 1.571511693E-01 -2.171606325E-01 -2.154249402E-01
 -2.243629386E-02 -9.891639830E-02 2.994456213E-01
 -1.099173692E-01 -2.337010942E-02 3.932619992E-01
 -7.137559861E-02 5.549863233E-02 4.223772132E-01
 2.207227432E-02 2.595186746E-02 7.579230352E-02
 3.241047609E-02 -1.161018595E-01 1.090275936E-01
 3.109350404E+00 -2.612904759E-01 1.250238131E-02
 -5.107096793E-02 -3.889154427E-02 4.917897674E-01
 -5.022799383E-02 1.149071895E-02 6.159469524E-01
 -2.594089039E-02 5.192185026E-02 4.795293336E-01
 -3.487801594E-02 9.928613522E-02 3.072773618E-01
 3.167571961E-02 1.125574029E-01 1.014468011E-01
 9.025563919E-02 5.489199053E-02 -2.206655898E-01
 5.108368654E-04 1.884125418E-01 1.315909998E-01
 8.449622707E-02 1.468737110E-01 -7.439721129E-02
 1.934743037E-01 2.925127807E-01 -2.039219879E-01
 3.479007599E-01 7.899559072E-02 -6.064279407E-01
 2.356004061E-01 7.381756585E-02 -4.851422761E-01
 1.922601047E-01 1.803453977E-01 -2.871180667E-01
 -1.171170847E-01 2.660122013E-01 1.504338349E-01
 1.430980827E-01 4.570910652E-01 -6.545698605E-02
 7.832892390E-02 1.018676124E-01 -1.103949880E-01
 1.438343688E-01 1.425340779E-01 -2.442040092E-01
 -5.891237497E-03 -5.631077387E-02 4.535112355E-01
 8.839757948E-03 -1.830406136E-02 4.550747088E-01
 1.990300831E-02 -2.745836780E-02 1.844911709E-01
 2.794903510E-02 -7.420936300E-02 1.303775851E-01
 5.109956423E-02 -4.332069790E-02 -1.155461933E-01
 6.626872154E-02 -8.752135256E-02 -9.251925450E-02
 1.025612737E-01 -5.810697076E-02 -2.785017052E-01
 8.156288531E-02 -1.384096265E-01 -5.674436372E-02
 1.092564840E-01 -1.023440611E-01 -2.307423066E-01
 3.034270349E-01 4.061852669E-01 -2.630293959E-01
 3.112664497E-01 2.673127031E-01 -3.746122782E-01
 4.388372484E-01 3.106482455E-01 -4.375127826E-01
 2.885111412E-01 1.694533328E-01 -4.442323059E-01
 3.779281459E-01 2.084722625E-01 -4.893185493E-01
 5.281734190E-01 2.358413513E-01 -5.407357330E-01
 6.405109063E-01 6.888749370E-02 -5.757858696E-01
 6.141676397E-01 7.528263283E-02 -6.311657944E-01
 6.626002271E-01 6.638545309E-02 -5.223991185E-01
 5.560405286E-01 3.449195737E-01 -4.247357445E-01
 6.300191720E-01 2.348416563E-01 -4.749139537E-01
 4.625505695E-01 1.553408469E-01 -6.320193332E-01
 4.517482956E-01 8.353706042E-02 -7.136708312E-01
 5.759582989E-01 1.604931288E-01 -6.090357687E-01
 5.276151287E-01 8.064412526E-02 -7.609035985E-01
 5.531169515E-01 7.625719969E-02 -7.476335465E-01
 6.645900110E-01 1.632407589E-01 -4.566362741E-01
 7.485092639E-01 5.951660274E-02 -3.541754278E-01
 7.249494534E-01 6.349948212E-02 -3.942123176E-01
 7.179290275E-01 2.215704559E-01 -3.383840266E-01
 7.491580163E-01 1.427301842E-01 -3.164955899E-01
 8.057944696E-01 1.932376671E-01 -2.228299748E-01
 8.292814856E-01 1.357274928E-01 -1.957074579E-01
 6.818585841E-01 3.535615844E-01 -3.223392496E-01
 3.570127437E-01 1.449687435E-01 -5.323932628E-01
 8.835740454E-01 1.965090146E-01 -1.106961910E-01
 9.676307978E-01 2.215410695E-02 1.453113211E-01
 9.205851648E-01 1.230157625E-01 -3.699746684E-02
 9.911675592E-01 1.978884123E-01 5.561893865E-03
 1.107185817E+00 2.432874550E-01 3.578985030E-02
 9.931100604E-01 1.171736999E-01 7.660738150E-02
 9.469381393E-01 7.214220233E-02 3.858542341E-02
 9.063740166E-01 7.369503945E-02 -5.068920085E-02
 8.817192683E-01 3.698887259E-02 -1.024557875E-01
 7.873676173E-01 1.017930440E-01 -2.710564543E-01
 7.719650467E-01 5.473226587E-02 -3.143233772E-01
 6.200677234E-01 1.328828639E-01 -5.683628396E-01
 4.559593260E-01 4.745082667E-01 -3.130823747E-01
 6.979394432E-01 1.190563558E-01 -4.144720415E-01
 9.897723932E-01 6.304546671E-02 1.360156181E-01
 1.053592663E+00 7.824951372E-02 1.499959511E-01
 8.379750328E-01 3.055449906E-01 -1.980326373E-01
 9.508104782E-01 2.450627580E-02 8.965565029E-02
 9.631301921E-01 4.389614959E-02 1.038397997E-01
 9.401159181E-01 4.055113408E-02 4.906209812E-02
 9.862503112E-01 1.711548834E-02 2.461172258E-01
 9.374608232E-01 2.352999884E-02 5.242618258E-02
 1.150486797E-01 1.060438300E-01 -2.215800606E-01
 1.430684569E-01 6.175297611E-02 -3.468575478E-01
 9.201596461E-01 4.922694986E-02 -6.327870595E-03
 8.986107167E-01 4.234473368E-02 -6.239803409E-02
 8.763336851E-01 5.775346091E-02 -1.124620841E-01
 8.741342857E-01 9.174399068E-02 -1.102349375E-01
 8.517767493E-01 7.030868867E-02 -1.653654387E-01
 8.226021691E-01 4.669464403E-02 -2.255062946E-01
 8.377436404E-01 5.324323173E-02 -1.968080450E-01
 8.224139120E-01 6.584919368E-02 -2.151242520E-01
 8.767908609E-03 7.108781952E-02 2.375986450E-01
 1.521982959E-01 9.669852437E-02 -3.090432241E-01
 1.577927609E-01 7.326589485E-02 -3.574157107E-01
 9.259972768E-01 2.937763326E-02 1.396179764E-02
 8.089268128E-01 5.065717903E-02 -2.481915262E-01
 8.018514178E-01 7.077950582E-02 -2.539595366E-01
 7.840256684E-01 6.703565626E-02 -2.875445751E-01
 7.652966345E-01 7.326349611E-02 -3.186940496E-01
 7.410279666E-01 7.754241273E-02 -3.580593593E-01
 7.161218503E-01 8.388932102E-02 -4.013655602E-01
 7.331120502E-01 1.040897237E-01 -3.579095571E-01
 6.921194453E-01 8.698133000E-02 -4.425977244E-01
 6.830645026E-01 7.481768730E-02 -4.711699816E-01
 6.687513189E-01 8.681105169E-02 -4.940447689E-01
 1.895151532E-01 6.847723677E-02 -4.224767211E-01
 2.124179843E-01 7.096514009E-02 -4.550295439E-01
 1.804078973E-01 8.513028424E-02 -3.798515478E-01
 1.815473279E-01 1.203368719E-01 -3.439118794E-01
 2.049013653E-01 1.033726455E-01 -4.006943218E-01
 8.660861328E-01 3.974546901E-02 -1.353294584E-01
 6.742841978E-01 6.698500299E-02 -4.966220207E-01
 8.325390663E-01 4.142596787E-02 -2.088854576E-01
 6.531317298E-01 7.092460436E-02 -5.468637321E-01
 6.438380609E-01 8.478142407E-02 -5.525341133E-01
 6.527721148E-01 1.141724124E-01 -5.125747437E-01
 6.210875241E-01 9.611664600E-02 -5.951499845E-01
 5.922125115E-01 1.124095000E-01 -6.446411173E-01
 5.382484697E-01 1.284135566E-01 -6.881650907E-01
 4.579678212E-02 7.696292117E-02 5.513871999E-03
 7.020712262E-02 4.702254347E-02 -1.687787389E-01
 2.886751670E-02 4.825122074E-02 6.650204350E-02
 5.221109316E-03 4.174313252E-02 3.230223253E-01
 6.826725625E-03 1.723572014E-02 3.804840688E-01
 -1.510159433E-02 2.240570722E-02 7.099501436E-01
 -1.872171663E-04 1.359726554E-02 4.863417633E-01
 1.131701238E-02 2.652164659E-02 2.322729762E-01
 1.210121575E-02 1.931737750E-02 1.978709208E-01
 2.503718537E-01 7.576595645E-02 -5.020090641E-01
 2.415349508E-01 9.068346859E-02 -4.720195641E-01
 2.627382950E-01 9.108734682E-02 -5.017091574E-01
 2.534638323E-01 1.192085247E-01 -4.504825376E-01
 2.846454071E-01 1.126249531E-01 -4.969212492E-01
 3.141795416E-01 7.881282212E-02 -5.718866680E-01
 2.214533331E-01 1.415905859E-01 -3.898527455E-01
 2.993665957E-01 7.775133379E-02 -5.563668418E-01
 3.035257030E-01 9.409565999E-02 -5.434672517E-01
 3.230247174E-01 9.013295226E-02 -5.682669320E-01
 3.210344595E-01 1.172210996E-01 -5.313907741E-01
 7.825594473E-01 5.091998194E-02 -2.973705806E-01
 7.601406678E-01 5.524500618E-02 -3.351740737E-01
 5.600272405E-01 1.056019639E-01 -6.915035001E-01
 6.000904970E-01 8.752712191E-02 -6.588920989E-01
 8.428544665E-01 4.113561894E-02 -1.889653640E-01
 1.313988780E-01 7.593834855E-02 -2.934065031E-01
 1.021021072E-01 7.519660457E-02 -2.170026875E-01
 7.432061980E-02 7.151416801E-02 -1.329785870E-01
 -2.032684897E-02 -3.118780840E-02 5.261717464E-01
 -5.163964989E-03 -8.075544996E-03 9.462457545E-01
 -1.556550550E-02 -5.894179812E-03 8.858369365E-01
 -5.309699678E-03 -2.258070343E-02 6.414575523E-01
 5.365336883E-03 -4.247797768E-02 4.591727410E-01
 2.273407684E-03 -1.324087439E-02 6.002539820E-01
 6.031040067E-01 7.242900342E-02 -6.654337957E-01
 5.935819778E-01 7.255261000E-02 -6.854397628E-01
 2.552425894E+00 2.124748246E-01 1.258099052E-03
 2.621598429E-01 7.420982779E-02 -5.192229414E-01
 2.229956961E-01 8.510677178E-02 -4.504932307E-01
 1.312741714E-01 5.809261991E-02 -3.236573478E-01
 1.551352099E-01 6.061183154E-02 -3.717206897E-01
 1.645021781E-01 6.134460859E-02 -3.867856575E-01
 3.304912644E-02 3.337966455E-02 -2.535699172E-03
 8.168746252E-01 9.504595907E-02 -2.227858265E-01
 6.288219068E-01 7.437959288E-02 -5.945859683E-01
 2.244413318E-01 7.063486849E-02 -4.731894126E-01
 3.561385245E-01 1.153579121E-01 -5.720086082E-01
 3.762896097E-01 8.181493807E-02 -6.339489448E-01
 3.840702754E-01 1.169185983E-01 -5.979612260E-01
 3.601580622E-01 8.191821031E-02 -6.155393552E-01
 3.682553749E-01 9.788701001E-02 -6.054630077E-01
 3.880865808E-01 9.436120168E-02 -6.321579228E-01
 4.130425522E-01 1.078864924E-01 -6.458816083E-01
 4.335066013E-01 8.985220827E-02 -6.849056869E-01
 4.502203685E-01 1.096223046E-01 -6.721617335E-01
 4.700136056E-01 9.719444678E-02 -7.193271539E-01
 4.141102390E-01 1.507213564E-01 -5.889897634E-01
 3.877359697E-01 7.947113079E-02 -6.528922615E-01
 3.998073409E-01 8.116426971E-02 -6.611620539E-01
 4.809070919E-01 1.243706909E-01 -6.912720043E-01
 5.085026120E-01 1.619747929E-01 -6.373276374E-01
 5.110441386E-01 1.105986027E-01 -7.139687283E-01
 5.346853352E-01 1.003572416E-01 -7.311688524E-01
 5.122672050E-01 9.011855827E-02 -7.520799225E-01
 7.358916810E-01 5.927837398E-02 -3.766787529E-01
 2.730566711E-01 7.667850843E-02 -5.299679685E-01
 7.117571797E-01 6.346221164E-02 -4.196219753E-01
 1.319126419E-01 -1.530699261E-01 -2.204951421E-01
 1.543309362E-01 -1.104732177E-01 -3.234852737E-01
 1.488403649E-01 -6.379802632E-02 -3.818259692E-01
 1.854252089E-01 -1.571165736E-01 -3.260517697E-01
 2.910375144E-01 -7.911208655E-02 -6.329345876E-01
 2.349839678E-01 -2.090965071E-01 -3.466583136E-01
 3.089749684E-01 -7.793911182E-02 -6.670156245E-01
 2.783191514E-01 -1.542623810E-01 -4.757177785E-01
 3.180618536E-01 -2.100315015E-01 -4.434974965E-01
 2.897299831E-01 -2.977721913E-01 -3.045634185E-01
 3.927233675E-01 -2.704313378E-01 -3.889837913E-01
 4.381144511E-01 -1.856917816E-01 -4.685635319E-01
 5.012663740E-01 -2.492820186E-01 -2.952071747E-01
 3.698399030E-01 -8.121530809E-02 -7.552628762E-01
 4.447594906E-01 -7.554151452E-02 -6.185663799E-01
 4.956834008E-01 -3.673636356E-01 -2.424312523E-01
 5.077929167E-01 -1.587258185E-01 -3.216541101E-01
 5.804008365E-01 -2.119648686E-01 -1.463499820E-01
 5.393785296E-01 -6.561718621E-02 -2.766713305E-01
 5.757408585E-01 -1.417605736E-01 -1.624401589E-01
 6.270469050E-01 -5.413273500E-02 -5.838228080E-02
 6.518942180E-01 -1.621752913E-01 -2.971156347E-02
 7.219200438E-01 -3.811013120E-02 1.140526285E-01
 7.453959219E-01 -3.489150048E-02 1.485792509E-01
 6.645895464E-01 -2.623482540E-01 -2.141595865E-02
 7.440693981E-01 -1.886714463E-01 8.156685318E-02
 8.324994474E-01 -1.892899386E-02 2.838887844E-01
 8.568860633E-01 -1.558222225E-02 3.202333386E-01
 8.079195026E-01 -2.299195152E-02 2.480698534E-01
 7.157747590E-01 -1.211982038E-01 6.632849693E-02
 8.156020919E-01 -1.410126918E-01 1.706487338E-01
 9.564344102E-01 -1.136090595E-02 3.930720048E-01
 9.234409497E-01 -1.100936296E-02 3.815097815E-01
 8.291893731E-01 -2.061288405E-01 1.425540384E-01
 8.889799413E-01 -1.480626813E-01 2.192903802E-01
 9.196899608E-01 -2.367195657E-01 1.625313222E-01
 1.017386224E+00 -1.711933592E-01 1.992162887E-01
 1.046278357E+00 -2.928318274E-01 1.372038146E-01
 1.130740318E+00 -1.937910676E-01 1.386359713E-01
 1.081611217E+00 -8.588980469E-02 1.916121257E-01
 1.211789756E+00 -8.931845658E-02 1.062652117E-01
 8.532302791E-01 -9.031328210E-02 2.459859364E-01
 9.323457318E-01 -9.210191318E-02 2.808594918E-01
 8.020918171E-01 -8.308917863E-02 1.986237490E-01
 3.289891869E-01 -1.458522431E-01 -5.604818221E-01
 6.626037242E-01 -1.061825998E-01 -7.824349102E-04
 8.883830688E-01 -5.932723616E-02 3.007216170E-01
 6.135826371E-01 -9.983237565E-02 -8.755331627E-02
 6.019769948E-01 -5.846555077E-02 -1.140652574E-01
 1.125221353E+00 9.707905336E-03 1.377580638E-01
 1.274738542E+00 3.736938447E-02 7.029505033E-02
 7.001000363E-01 -8.247009454E-02 6.069643482E-02
 7.481135237E-01 -7.592024105E-02 1.337732991E-01
 6.923254298E-01 -4.018297146E-02 6.406349992E-02
 9.348793414E-01 -4.034265191E-01 9.781920097E-02
 4.543725533E-01 -1.335622243E-01 -5.132564661E-01
 4.003814777E-01 -1.311151361E-01 -6.200002162E-01
 1.952844172E-01 -1.136064128E-01 -4.004456107E-01
 2.150365534E-01 -7.642493516E-02 -4.916930251E-01
 1.290617718E+00 -2.171645767E-01 8.026544643E-02
 8.327760335E-01 -5.985957481E-02 2.502193831E-01
 8.605185061E-01 -5.004126040E-02 2.876446671E-01
 7.876093295E-01 -3.132610662E-01 7.103597385E-02
 6.469875588E-01 -3.847654329E-01 -7.134381095E-02
 9.672351304E-01 -6.372064493E-01 4.097321788E-02
 5.310920273E-01 -1.158146966E-01 -2.777273769E-01
 5.066965734E-01 -7.240775939E-02 -3.779375098E-01
 2.972154307E-01 -1.180960624E-01 -5.742776857E-01
 2.601005809E-01 -1.159070768E-01 -5.151308935E-01
 2.647986617E-01 -7.821409036E-02 -5.878283731E-01
 7.071076397E-01 -3.940459016E-02 8.599390171E-02
 7.171203348E-01 -5.714377547E-02 9.625032233E-02
 7.370651134E-01 -4.849573161E-02 1.318200339E-01
 7.571194740E-01 -4.907583209E-02 1.601006145E-01
 7.827432420E-01 -5.410251865E-02 1.914654677E-01
 7.892885813E-01 -3.624941956E-02 2.136419996E-01
 4.284964121E-01 -1.076409889E-01 -6.218697031E-01
 8.087605013E-01 -4.208253877E-02 2.359060222E-01
 5.692376519E-01 -9.660018787E-02 -1.895516826E-01
 7.335620226E-01 -3.399595999E-02 1.315136094E-01
 1.066765211E+00 -1.661723597E-02 1.935800375E-01
 1.028442993E+00 -5.090376555E-02 2.736659019E-01
 1.046550688E+00 2.290762310E-02 2.063105165E-01
 1.153054349E+00 1.214533785E-01 9.007861747E-02
 1.287349134E+00 1.957825576E-01 4.137160750E-02
 1.482968770E+00 8.381264538E-02 3.044956613E-02
 1.500500117E+00 3.243852122E-01 7.751925260E-03
 1.245140732E+00 3.834648845E-01 1.020705883E-02
 1.440675680E+00 5.705856158E-01 -1.312756774E-02
 1.402463281E+00 -8.999682266E-02 5.248542031E-02
 9.935314824E-01 -1.011832830E-01 2.633764488E-01
 9.787658628E-01 -5.624395303E-02 3.146949758E-01
 9.830873119E-01 -9.274897459E-03 4.040588050E-01
 9.372103035E-01 -4.603894156E-02 3.427426463E-01
 9.076565842E-01 -3.805693972E-02 3.427237116E-01
 8.663547855E-01 -1.414091136E-02 3.332218767E-01
 1.184073554E+00 -3.102830508E-01 9.999293249E-02
 3.337344954E-01 -1.121479148E-01 -6.372264952E-01
 8.437882834E-01 -1.894476053E-02 3.015642184E-01
 8.373748583E-01 -3.440811021E-02 2.790328745E-01
 6.399721376E-01 -4.959598000E-02 -3.375931292E-02
 6.386470252E-01 -6.977934265E-02 -3.804391404E-02
 6.695568621E-01 -6.885938144E-02 1.603012998E-02
 6.150123137E-01 -6.910069268E-02 -8.622106774E-02
 5.947016191E-01 -7.825878128E-02 -1.336414695E-01
 5.570110543E-01 -7.520744668E-02 -2.228172668E-01
 4.593260986E-01 -7.534030330E-02 -5.565786277E-01
 4.536127131E-01 -9.670015078E-02 -5.496006550E-01
 4.878300899E-01 -1.112777014E-01 -4.098356895E-01
 4.307219416E-01 -8.836658822E-02 -6.477891687E-01
 4.744196794E-01 -8.578353019E-02 -4.845955945E-01
 5.409483356E-01 -5.286028222E-01 -1.300499818E-01
 3.511751541E-01 -4.252281421E-01 -2.050942920E-01
 4.712752979E-01 -7.162088256E-02 -5.135835720E-01
 7.967615111E-01 -2.615781234E-02 2.286962673E-01
 8.783973444E-01 -1.397870081E-02 3.439338356E-01
 8.857707218E-01 -2.635431113E-02 3.344959866E-01
 6.817917553E-01 -4.266949647E-02 4.804898221E-02
 6.137531980E-01 -5.348759154E-02 -8.493096187E-02
 5.858460763E-01 -6.096255365E-02 -1.517386934E-01
 9.131062060E-01 -9.908584525E-03 3.819558341E-01
 9.019629134E-01 -1.494711839E-02 3.693997082E-01
 2.306617754E-01 -1.419982472E-01 -4.238122567E-01
 2.279349230E-01 -9.709046663E-02 -4.851406862E-01
 1.986107704E-01 -8.621211725E-02 -4.433818761E-01
 1.745710240E-01 -9.121721248E-02 -3.892744679E-01
 1.662490253E-01 -7.484238141E-02 -4.047905638E-01
 1.502576330E-01 -8.103837993E-02 -3.568748848E-01
 1.650535893E+00 -1.026979374E-01 2.460029172E-02
 8.204825177E-01 -2.359820752E-02 2.644051359E-01
 5.517284023E-01 6.769748427E-01 -2.301043405E-01
 5.777855433E-01 -2.951448419E-01 -1.440787520E-01
 2.351227239E-02 -5.188799555E-02 1.804129484E-01
 1.045124777E-02 -2.875920839E-02 3.528251771E-01
 1.529802353E-02 -2.256773118E-02 2.551238113E-01
 2.034559541E-02 -3.757887515E-02 1.751467188E-01
 4.017250319E-02 -5.104897845E-02 -2.238894171E-02
 5.609589204E-02 -5.971042256E-02 -9.244299783E-02
 2.527775969E-01 -9.089386504E-02 -5.451058289E-01
 1.059622090E+00 1.516104919E-01 7.898217290E-02
 6.903104069E-01 -5.637457987E-02 5.677821850E-02