TITLE     = "Visualization of the solution"
VARIABLES = "x"
"y"
"Pressure_Coefficient"
ZONE T="Zone"
 STRANDID=0, SOLUTIONTIME=0
 Nodes=703, Elements=1191, ZONETYPE=FEQuadrilateral
 DATAPACKING=POINT
 DT=(DOUBLE DOUBLE DOUBLE )
 1.000042200E+00 5.099133123E-04 3.505770739E-01
 9.842008352E-01 3.669479396E-03 2.684947195E-01
 9.705138803E-01 6.384348031E-03 1.911819673E-01
 9.542828798E-01 9.626058862E-03 1.202878326E-01
 9.398500919E-01 1.251418795E-02 7.724237192E-02
 9.273169041E-01 1.500124205E-02 4.010399078E-02
 9.159780741E-01 1.723446138E-02 -1.080054711E-03
 9.044719338E-01 1.952293515E-02 -4.128742906E-02
 8.928284049E-01 2.176004462E-02 -6.554725656E-02
 8.805937767E-01 2.403388917E-02 -1.031635760E-01
 8.689450026E-01 2.625878900E-02 -1.355186383E-01
 8.566032648E-01 2.844164893E-02 -1.502686162E-01
 8.445707560E-01 3.054965474E-02 -1.804594927E-01
 8.335964680E-01 3.249393776E-02 -2.067717460E-01
 8.220665455E-01 3.442109004E-02 -2.295694604E-01
 8.099910617E-01 3.643881902E-02 -2.542878238E-01
 7.975410223E-01 3.844766319E-02 -2.714705060E-01
 7.857407928E-01 4.029829428E-02 -2.944218736E-01
 7.737033367E-01 4.217903689E-02 -3.192535551E-01
 7.622966170E-01 4.389472678E-02 -3.386960698E-01
 7.496662140E-01 4.574772716E-02 -3.569246125E-01
 7.364456654E-01 4.763214290E-02 -3.755036858E-01
 7.257483006E-01 4.912905768E-02 -3.995398324E-01
 7.146291137E-01 5.066265911E-02 -4.268467156E-01
 7.031227946E-01 5.220513418E-02 -4.477544588E-01
 6.902406812E-01 5.384269729E-02 -4.693841179E-01
 6.775226593E-01 5.540345982E-02 -4.970002246E-01
 6.666227579E-01 5.671221763E-02 -5.209765634E-01
 6.549962163E-01 5.802830309E-02 -5.429534233E-01
 6.440532207E-01 5.923374742E-02 -5.644119264E-01
 6.320223212E-01 6.047547236E-02 -5.950896080E-01
 6.206275225E-01 6.163690239E-02 -6.282176081E-01
 6.101801395E-01 6.262068450E-02 -6.499637949E-01
 5.982205272E-01 6.366290897E-02 -6.819210021E-01
 5.865550041E-01 6.464686245E-02 -7.200088861E-01
 5.730535984E-01 6.570310891E-02 -7.478041170E-01
 5.600711703E-01 6.660293788E-02 -7.664612892E-01
 5.470858812E-01 6.742425263E-02 -7.810071855E-01
 5.355075598E-01 6.807404757E-02 -7.859135286E-01
 5.232641697E-01 6.868739426E-02 -7.882086223E-01
 5.106098056E-01 6.924653798E-02 -7.873259011E-01
 4.996910393E-01 6.966020167E-02 -7.781953512E-01
 4.865524173E-01 7.007911056E-02 -7.655375450E-01
 4.735412300E-01 7.040291280E-02 -7.520928011E-01
 4.597760141E-01 7.065809518E-02 -7.418719733E-01
 4.459054172E-01 7.083834708E-02 -7.317990203E-01
 4.329764843E-01 7.091318816E-02 -7.193832708E-01
 4.197342098E-01 7.091351599E-02 -7.056613348E-01
 4.070840776E-01 7.082909346E-02 -6.896693494E-01
 3.937822878E-01 7.066874951E-02 -6.735404586E-01
 3.815567493E-01 7.042649388E-02 -6.604146966E-01
 3.698709309E-01 7.016050816E-02 -6.471540996E-01
 3.562958837E-01 6.974781305E-02 -6.338268700E-01
 3.436454535E-01 6.930167973E-02 -6.214835950E-01
 3.308436275E-01 6.876011938E-02 -6.111080225E-01
 3.204161525E-01 6.827192008E-02 -6.008301097E-01
 3.081590235E-01 6.763235480E-02 -5.874133852E-01
 2.957121730E-01 6.690193713E-02 -5.736423148E-01
 2.821452320E-01 6.602301449E-02 -5.596296909E-01
 2.700103223E-01 6.514891982E-02 -5.469106378E-01
 2.582824230E-01 6.424450129E-02 -5.320133064E-01
 2.458816767E-01 6.319252402E-02 -5.158213858E-01
 2.334056944E-01 6.205991283E-02 -5.031486503E-01
 2.213364542E-01 6.088289246E-02 -4.914651910E-01
 2.096156180E-01 5.965812877E-02 -4.761043460E-01
 1.979034692E-01 5.834152922E-02 -4.577223670E-01
 1.855968982E-01 5.686179921E-02 -4.400608852E-01
 1.738760620E-01 5.535759032E-02 -4.257860509E-01
 1.622361690E-01 5.378088728E-02 -4.093324429E-01
 1.506109387E-01 5.208649486E-02 -3.875628423E-01
 1.397038549E-01 5.040570349E-02 -3.674318912E-01
 1.285042018E-01 4.857011884E-02 -3.453671679E-01
 1.174370795E-01 4.663005099E-02 -3.223906693E-01
 1.068478599E-01 4.466145858E-02 -3.043374199E-01
 9.698342532E-02 4.271008074E-02 -2.774783740E-01
 8.634094894E-02 4.045239091E-02 -2.513732178E-01
 7.520895451E-02 3.792271018E-02 -2.248159688E-01
 6.533415616E-02 3.548686206E-02 -1.964105051E-01
 5.581004918E-02 3.294350207E-02 -1.608220234E-01
 4.683018103E-02 3.034169786E-02 -1.328342620E-01
 3.887581825E-02 2.781779692E-02 -9.800743113E-02
 3.185108677E-02 2.537489869E-02 -4.935919084E-02
 2.593550459E-02 2.311321907E-02 4.500926266E-03
 2.155921981E-02 2.127687633E-02 3.643012172E-02
 1.736168191E-02 1.935918443E-02 8.069290855E-02
 1.420182362E-02 1.776952855E-02 1.277087027E-01
 1.143073384E-02 1.624760218E-02 1.826756215E-01
 9.397392161E-03 1.502290554E-02 2.167950384E-01
 7.514041848E-03 1.378867868E-02 3.240829262E-01
 5.781488027E-03 1.253688615E-02 3.990385618E-01
 3.589822911E-03 1.072131563E-02 4.972032833E-01
 1.811263035E-03 8.938741870E-03 6.969093824E-01
 3.708465665E-04 7.117132191E-03 8.836736344E-01
 -1.002013916E-03 4.596690182E-03 1.206239454E+00
 -1.592540531E-03 2.650604350E-03 1.163561189E+00
 -1.783562824E-03 1.062542549E-03 1.186199941E+00
 -1.685859286E-03 -8.425913402E-04 1.315517937E+00
 -1.177488361E-03 -2.983423881E-03 1.117611783E+00
 -8.632427489E-05 -5.489602685E-03 1.104433107E+00
 1.605388010E-03 -8.123316802E-03 9.997064157E-01
 3.837922821E-03 -1.077606436E-02 6.959497943E-01
 5.853338167E-03 -1.276603062E-02 6.121594534E-01
 8.229664527E-03 -1.481082197E-02 5.112936598E-01
 1.004318334E-02 -1.621689275E-02 4.139998491E-01
 1.223052945E-02 -1.777585037E-02 3.650744068E-01
 1.476027817E-02 -1.942827553E-02 2.832397076E-01
 1.806254685E-02 -2.140633948E-02 2.198037819E-01
 2.130536921E-02 -2.317795902E-02 1.412911223E-01
 2.541285194E-02 -2.524336614E-02 8.389475349E-02
 3.075869754E-02 -2.767397091E-02 1.740910947E-02
 3.638088331E-02 -2.999228053E-02 -4.730489258E-02
 4.317016900E-02 -3.253757954E-02 -1.051842159E-01
 5.060931295E-02 -3.506516665E-02 -1.525768748E-01
 5.929882079E-02 -3.774710745E-02 -1.882618432E-01
 6.791094691E-02 -4.017153010E-02 -2.239790145E-01
 7.819667459E-02 -4.281914979E-02 -2.480360147E-01
 8.780940622E-02 -4.509095848E-02 -2.844824071E-01
 9.842198342E-02 -4.741334915E-02 -3.161731783E-01
 1.095343158E-01 -4.965855554E-02 -3.450026989E-01
 1.210673898E-01 -5.182063952E-02 -3.711954114E-01
 1.326464117E-01 -5.383079499E-02 -3.939478194E-01
 1.429818273E-01 -5.551215261E-02 -4.156568606E-01
 1.543248296E-01 -5.724357069E-02 -4.352704169E-01
 1.661536992E-01 -5.892426148E-02 -4.568659285E-01
 1.776610762E-01 -6.044651940E-02 -4.799286255E-01
 1.892134100E-01 -6.186199188E-02 -5.005878751E-01
 1.997608691E-01 -6.307844818E-02 -5.213790615E-01
 2.110277861E-01 -6.428386271E-02 -5.412713661E-01
 2.230166495E-01 -6.545101106E-02 -5.584773828E-01
 2.348186225E-01 -6.651408225E-02 -5.784117247E-01
 2.465171963E-01 -6.746031344E-02 -6.025775495E-01
 2.584970295E-01 -6.832783669E-02 -6.263315024E-01
 2.694852948E-01 -6.902625412E-02 -6.503139074E-01
 2.819091976E-01 -6.971837580E-02 -6.725052112E-01
 2.937858999E-01 -7.027197629E-02 -6.991043722E-01
 3.065422177E-01 -7.074321806E-02 -7.246527183E-01
 3.182278574E-01 -7.106205821E-02 -7.476603971E-01
 3.306680322E-01 -7.127507776E-02 -7.682375347E-01
 3.410327733E-01 -7.135029137E-02 -7.853037241E-01
 3.525812924E-01 -7.134181261E-02 -7.963594011E-01
 3.637192547E-01 -7.121516019E-02 -8.051287784E-01
 3.746666610E-01 -7.099798322E-02 -8.108719223E-01
 3.866998851E-01 -7.064484060E-02 -8.130991188E-01
 3.996082544E-01 -7.009759545E-02 -8.045504024E-01
 4.117880464E-01 -6.944590807E-02 -7.798308116E-01
 4.246552587E-01 -6.865668297E-02 -7.423707431E-01
 4.370896518E-01 -6.772742420E-02 -6.980568290E-01
 4.499966204E-01 -6.664812565E-02 -6.486412892E-01
 4.623919725E-01 -6.549534947E-02 -6.013734407E-01
 4.748001099E-01 -6.422250718E-02 -5.474685383E-01
 4.871205688E-01 -6.285991520E-02 -4.922171635E-01
 4.995273054E-01 -6.139205769E-02 -4.404325540E-01
 5.130987763E-01 -5.971575901E-02 -3.981221722E-01
 5.260807872E-01 -5.796525255E-02 -3.515706038E-01
 5.383961797E-01 -5.628541112E-02 -3.035763160E-01
 5.518766046E-01 -5.437056720E-02 -2.654828978E-01
 5.650561452E-01 -5.243292451E-02 -2.268856472E-01
 5.783761740E-01 -5.046544224E-02 -1.943078845E-01
 5.917211175E-01 -4.842964932E-02 -1.650474210E-01
 6.047679186E-01 -4.638953507E-02 -1.295181007E-01
 6.180227995E-01 -4.430681467E-02 -9.664112739E-02
 6.315602064E-01 -4.213677719E-02 -6.537201601E-02
 6.453256011E-01 -3.994323313E-02 -3.597013261E-02
 6.584199667E-01 -3.785293549E-02 -1.303482506E-02
 6.717677116E-01 -3.568364680E-02 1.354729300E-02
 6.841874123E-01 -3.367132321E-02 4.148140085E-02
 6.965442300E-01 -3.167869151E-02 6.434110264E-02
 7.115044594E-01 -2.929532342E-02 8.541998701E-02
 7.245817184E-01 -2.720354870E-02 1.066270224E-01
 7.358905077E-01 -2.537566423E-02 1.320779101E-01
 7.494636178E-01 -2.324625663E-02 1.526514725E-01
 7.623065114E-01 -2.121023461E-02 1.756358667E-01
 7.760753632E-01 -1.911461353E-02 1.971142520E-01
 7.881729007E-01 -1.723158918E-02 2.195024293E-01
 8.013401628E-01 -1.529556606E-02 2.414073576E-01
 8.123660684E-01 -1.368672121E-02 2.566402332E-01
 8.236578703E-01 -1.208611485E-02 2.748195614E-01
 8.355206847E-01 -1.038934942E-02 2.995622642E-01
 8.481718898E-01 -8.740577847E-03 3.211435068E-01
 8.605621457E-01 -7.193179335E-03 3.346184450E-01
 8.710100651E-01 -5.922986194E-03 3.531977039E-01
 8.818831444E-01 -4.699720535E-03 3.737970826E-01
 8.946096301E-01 -3.447835566E-03 3.857332434E-01
 9.050291181E-01 -2.534369705E-03 3.967285790E-01
 9.156048894E-01 -1.685922383E-03 4.069768258E-01
 9.259449244E-01 -1.004141988E-03 4.175084440E-01
 9.359660745E-01 -4.586634750E-04 4.229478729E-01
 9.481599927E-01 6.026883784E-05 4.184526254E-01
 9.623305798E-01 4.457008326E-04 4.324579675E-01
 9.765803218E-01 6.310088793E-04 4.260855875E-01
 9.894724488E-01 6.222180091E-04 4.476342994E-01
 -5.000000000E-01 -1.000000000E+00 5.833603790E-02
 3.500000000E+00 -1.000000000E+00 1.420603579E-02
 3.500000000E+00 1.000000000E+00 -2.128425042E-04
 -5.000000000E-01 1.000000000E+00 5.711990993E-02
 -5.000000000E-01 5.000000000E-01 1.128096445E-01
 -5.000000000E-01 2.752797990E-12 1.754205674E-01
 -5.000000000E-01 -5.000000000E-01 1.171805054E-01
 -9.421907698E-13 -1.000000000E+00 3.100212453E-02
 5.000000000E-01 -1.000000000E+00 -3.546590863E-02
 1.000000000E+00 -1.000000000E+00 -1.945388795E-02
 1.500000000E+00 -1.000000000E+00 2.673701389E-02
 2.000000000E+00 -1.000000000E+00 2.899767220E-02
 2.500000000E+00 -1.000000000E+00 2.043158494E-02
 3.000000000E+00 -1.000000000E+00 1.535698568E-02
 3.500000000E+00 -5.000000000E-01 1.518520660E-02
 3.500000000E+00 -2.752797990E-12 1.432702670E-02
 3.500000000E+00 5.000000000E-01 7.119631302E-03
 3.000000000E+00 1.000000000E+00 -6.335107471E-03
 2.500000000E+00 1.000000000E+00 -1.514008632E-02
 2.000000000E+00 1.000000000E+00 -3.256183260E-02
 1.500000000E+00 1.000000000E+00 -7.780860667E-02
 1.000000000E+00 1.000000000E+00 -1.416138553E-01
 5.000000000E-01 1.000000000E+00 -9.026906893E-02
 1.733724275E-12 1.000000000E+00 1.795883481E-02
 6.681811463E-01 -4.904304928E-02 4.087408284E-03
 7.709082594E-01 -3.199894213E-02 1.823163416E-01
 8.896417367E-01 -1.385961703E-02 3.669930423E-01
 5.721595964E-01 -6.527598620E-02 -2.100641891E-01
 7.111516799E-01 6.159742654E-02 -4.251119177E-01
 2.743157397E-01 7.769524513E-02 -5.343233309E-01
 9.120681650E-01 2.905542844E-02 -1.624562777E-02
 8.088917057E-01 5.044728121E-02 -2.486146023E-01
 5.795247066E-01 7.899754766E-02 -7.159370352E-01
 4.145502390E-01 8.178527621E-02 -6.839787448E-01
 4.074369474E-01 -7.911931317E-02 -7.717661221E-01
 1.784919952E+00 -5.340894156E-01 2.905104542E-02
 1.779950306E+00 6.184614030E-01 -2.020392431E-02
 3.031180415E+00 2.156818749E-01 6.953562470E-03
 7.347819066E-01 -4.995661696E-01 -1.681708652E-02
 2.858060166E-01 -8.275964887E-02 -6.547791195E-01
 4.832613051E-01 -7.292739596E-02 -4.968549163E-01
 3.364580683E-01 -6.569066880E-01 -9.179798899E-02
 1.238971935E-01 -6.434230090E-02 -3.503466096E-01
 1.799632977E-01 -7.134042095E-02 -4.640109694E-01
 7.261818851E-01 5.119041490E-01 -2.610850580E-01
 4.974582601E-01 8.267523588E-02 -7.565108523E-01
 2.887731901E-01 6.422924094E-01 -1.099645505E-01
 1.213252766E-01 5.698606858E-02 -3.126152433E-01
 1.781001440E-01 6.638873952E-02 -4.158384009E-01
 2.734835132E+00 -5.327042609E-01 1.324943886E-02
 1.190395044E+00 6.562766279E-01 -6.231708017E-02
 9.867839000E-01 3.445011725E-01 -4.638805703E-02
 1.241251815E+00 -6.232528263E-01 5.547741267E-02
 1.539791012E+00 -2.967948441E-01 4.038813601E-02
 2.240353230E+00 -5.777585731E-01 1.753731076E-02
 2.026062169E+00 -2.020274587E-01 1.287939544E-02
 2.418966681E+00 -1.831392797E-01 8.238947106E-03
 2.184575270E+00 1.581231071E-01 2.616574192E-03
 1.836173205E+00 4.849129805E-02 1.038492395E-02
 -2.736951963E-01 2.319219385E-01 1.900354137E-01
 -1.072626672E-01 6.239071527E-01 4.227853837E-02
 2.489568321E-02 3.301322805E-01 2.822188000E-02
 4.629258918E-02 4.023251122E-02 -9.296107246E-02
 -2.712729695E-01 -2.369287267E-01 1.958982120E-01
 -1.458636368E-01 -6.027577636E-01 5.751798877E-02
 1.251031080E-01 -3.736300187E-01 -6.726479369E-02
 2.225637493E+00 5.648516293E-01 -9.856476406E-03
 2.743772874E+00 5.977929660E-01 -1.930444841E-03
 -2.353668098E-01 -4.570920688E-03 2.522115042E-01
 -1.284135054E-01 1.267317577E-01 2.667520783E-01
 -1.099593981E-01 -1.275426942E-01 2.874939549E-01
 7.102186858E-02 -4.938922432E-02 -1.974240129E-01
 4.500051740E-02 -4.240711801E-02 -7.446159789E-02
 -7.547461801E-02 -3.216261663E-01 1.131640304E-01
 3.526865035E-05 -1.850990906E-01 1.424144595E-01
 1.599413132E-01 -2.218860679E-01 -2.290811091E-01
 3.438690797E-01 -8.310063577E-02 -7.568458881E-01
 2.397362124E-01 -7.854926194E-02 -5.658013073E-01
 2.147361159E-01 -7.676089904E-02 -5.237144664E-01
 -3.228312817E-02 -9.816063185E-02 3.432148699E-01
 2.115053414E-02 -3.022783324E-02 1.807492045E-01
 -1.097528005E-01 -2.341581501E-02 4.136322763E-01
 -7.118563955E-02 5.535122997E-02 4.393001573E-01
 2.169651196E-02 2.948105638E-02 8.600422734E-02
 3.707734588E-02 -1.149055226E-01 9.581868972E-02
 3.109353282E+00 -2.612858618E-01 1.270250769E-02
 -5.087775393E-02 -3.917911969E-02 4.799716804E-01
 -4.960882838E-02 1.065537957E-02 6.193449239E-01
 -2.622080008E-02 5.161416025E-02 4.699462468E-01
 -3.480332055E-02 9.892153983E-02 3.114282820E-01
 3.119298440E-02 1.116967043E-01 1.061861685E-01
 9.100583484E-02 5.488926015E-02 -2.289572113E-01
 3.635257339E-04 1.876785925E-01 1.331203835E-01
 8.275227671E-02 1.399807540E-01 -7.776153128E-02
 1.924474176E-01 2.912101811E-01 -2.057114145E-01
 3.495843058E-01 8.048034031E-02 -6.109732078E-01
 3.149028704E-01 8.215607014E-02 -5.751710982E-01
 2.260154014E-01 7.325424856E-02 -4.804993385E-01
 1.936067996E-01 1.768884196E-01 -2.991788754E-01
 1.428483992E-01 4.556209627E-01 -6.496035331E-02
 -1.164048549E-01 2.654960167E-01 1.560871407E-01
 7.580123131E-02 9.723372028E-02 -1.115546253E-01
 1.418977567E-01 1.347733138E-01 -2.560300764E-01
 3.023115509E-01 4.034420458E-01 -2.624350571E-01
 3.016276519E-01 2.859011839E-01 -3.603627732E-01
 4.239939331E-01 2.981995360E-01 -4.403696311E-01
 2.854893416E-01 1.677012851E-01 -4.487689845E-01
 3.955414500E-01 1.999374180E-01 -5.157704112E-01
 5.065486861E-01 2.190690418E-01 -5.680155752E-01
 6.510164502E-01 7.143016376E-02 -5.397035414E-01
 6.282814845E-01 7.406548760E-02 -5.920537855E-01
 6.774298794E-01 6.846246843E-02 -4.870892486E-01
 6.056639679E-01 7.628389705E-02 -6.492893507E-01
 5.493239317E-01 3.199137477E-01 -4.495992637E-01
 6.272353612E-01 2.321125273E-01 -4.680963036E-01
 4.651376631E-01 1.663706643E-01 -6.207303663E-01
 4.531918734E-01 8.141186808E-02 -7.220127204E-01
 5.721922764E-01 1.585653655E-01 -6.217745891E-01
 5.290282442E-01 8.349445351E-02 -7.645548496E-01
 5.587944540E-01 7.903365010E-02 -7.486370778E-01
 6.595983522E-01 1.610881355E-01 -4.586413491E-01
 7.592920503E-01 6.025808793E-02 -3.335118040E-01
 7.801161483E-01 5.064061072E-02 -3.018761696E-01
 7.101591741E-01 2.187692593E-01 -3.540667310E-01
 7.420782216E-01 1.496923490E-01 -3.256036254E-01
 7.952395229E-01 1.868943183E-01 -2.438817092E-01
 8.659125924E-01 3.863249691E-02 -1.340179813E-01
 8.445203269E-01 4.537485838E-02 -1.769567824E-01
 8.879195654E-01 3.478577550E-02 -8.224975721E-02
 8.232098344E-01 1.344451390E-01 -2.018626803E-01
 8.714113913E-01 1.848112518E-01 -1.220156638E-01
 9.661613448E-01 2.172054746E-02 1.494041118E-01
 9.027397094E-01 1.222837464E-01 -6.349320899E-02
 9.416154988E-01 1.591473842E-01 -1.837460422E-02
 9.903924598E-01 1.119007935E-01 7.185897700E-02
 1.031958216E+00 1.897132702E-01 3.558354826E-02
 1.150735889E+00 2.762961281E-01 3.490832780E-02
 1.184058210E+00 1.406256579E-01 8.267523238E-02
 1.328883797E+00 2.800422382E-01 2.587695257E-02
 1.345213489E+00 5.814470777E-02 5.406888240E-02
 1.218705269E+00 -6.763883277E-02 1.032975652E-01
 1.144257409E+00 2.973854558E-02 1.294017942E-01
 6.753845451E-01 3.486969203E-01 -3.333554849E-01
 3.498414297E-01 1.559729554E-01 -5.205405596E-01
 9.349323359E-01 7.678488158E-02 1.597296456E-02
 6.972114789E-01 1.186966712E-01 -4.105419703E-01
 8.616835033E-01 9.769650676E-02 -1.361817660E-01
 6.075147501E-01 1.262386472E-01 -5.976985415E-01
 4.512114540E-01 4.646454426E-01 -3.164678459E-01
 7.794866674E-01 1.093512678E-01 -2.816898912E-01
 8.316934466E-01 2.838990074E-01 -1.955877959E-01
 9.488904316E-01 2.475089612E-02 9.122257459E-02
 9.601252631E-01 3.852276298E-02 1.119070687E-01
 9.824976187E-01 3.538063620E-02 1.709661754E-01
 9.374787440E-01 4.213339086E-02 5.533487003E-02
 1.062008456E+00 8.708884383E-02 1.414244652E-01
 9.800025188E-01 1.836243920E-02 2.009235231E-01
 9.356344486E-01 2.409321567E-02 5.261587192E-02
 9.155766574E-01 4.673234673E-02 -7.949092564E-03
 1.128220298E-02 -7.302355630E-02 2.485875896E-01
 -1.158972138E-02 -4.265077840E-02 5.496437655E-01
 1.067895566E+00 1.468737004E-02 1.855018619E-01
 1.110985041E+00 -4.594276560E-02 1.696817142E-01
 9.737945847E-01 -1.323651225E-02 3.958022487E-01
 9.358233558E-01 -1.106793504E-02 4.010930723E-01
 1.119439556E+00 -1.357677568E-01 1.562809502E-01
 1.023544111E+00 -1.435814345E-01 2.233492316E-01
 1.083595687E+00 -2.468084478E-01 1.433462979E-01
 9.653527993E-01 -2.241086599E-01 1.802565985E-01
 8.297989839E-01 -2.629325028E-02 2.755538640E-01
 9.767068063E-01 -3.520828515E-01 1.121996872E-01
 9.361191916E-01 -1.174502063E-01 2.591467418E-01
 8.666696278E-01 -1.900390934E-01 1.746871909E-01
 8.583960096E-01 -1.115429537E-01 2.297458164E-01
 7.206481197E-01 -4.021446269E-02 9.823988368E-02
 7.448346932E-01 -3.626868600E-02 1.401909632E-01
 7.826862085E-01 -1.494373997E-01 1.343311783E-01
 7.893278473E-01 -2.551307011E-01 9.312611380E-02
 7.031019292E-01 -2.044704351E-01 2.426635764E-02
 7.062885319E-01 -1.245518056E-01 4.455070174E-02
 6.278971717E-01 -5.686837232E-02 -7.635518073E-02
 6.008600950E-01 -6.276845469E-02 -1.413974266E-01
 6.285779734E-01 -1.555513922E-01 -8.315497828E-02
 6.205067336E-01 -2.243019089E-01 -1.065004424E-01
 5.456543666E-01 -1.800281577E-01 -2.499685458E-01
 5.387095233E-01 -6.673910478E-02 -2.999210370E-01
 5.279867451E-01 -2.688215821E-01 -2.589419096E-01
 4.507190658E-01 -2.065336950E-01 -4.311586580E-01
 4.455570361E-01 -7.902354662E-02 -6.441511182E-01
 4.327840192E-01 -2.943107406E-01 -3.879622624E-01
 3.418637963E-01 -2.394430888E-01 -4.438916941E-01
 1.214042618E+00 -2.542292099E-01 1.008422337E-01
 3.868702662E-01 -1.628985112E-01 -5.833915342E-01
 2.923607672E-01 -1.767430166E-01 -4.891059660E-01
 7.613485227E-01 -9.479404729E-02 1.335213458E-01
 9.018612489E-01 -6.767525893E-02 3.063671922E-01
 5.187985450E-01 -4.128548489E-01 -1.977872729E-01
 4.895079799E-01 -1.466893917E-01 -4.228035526E-01
 1.045737093E+00 -3.309763552E-02 2.437327374E-01
 9.500761410E-01 -6.302900114E-02 3.298496409E-01
 6.510202848E-01 -9.742676039E-02 -3.841469992E-02
 6.038583204E-01 -1.089333516E-01 -1.317732760E-01
 5.330623656E-01 -1.264731936E-01 -2.920396139E-01
 8.559207378E-01 -5.930425160E-02 2.773865559E-01
 8.686276111E-01 -1.525001152E-02 3.399824604E-01
 3.315454347E-01 -1.327256761E-01 -6.290101437E-01
 6.731109479E-01 -3.205628367E-01 -5.488014766E-02
 8.172729282E-01 -3.787942112E-01 7.074114008E-02
 3.184372607E-01 -3.605102311E-01 -2.429294480E-01
 6.889104352E-01 -8.202824051E-02 3.280765470E-02
 6.920914908E-01 -4.337632542E-02 5.002140688E-02
 2.484278810E-01 -2.560116988E-01 -3.159438851E-01
 8.101330425E-01 -7.754496376E-02 2.057433129E-01
 7.975747586E-01 -3.038042454E-02 2.239486443E-01
 4.995852332E-01 -1.142624473E-01 -3.897289601E-01
 5.071736907E-01 -7.484861944E-02 -3.998861822E-01
 4.630059647E-01 -1.139323772E-01 -5.305052895E-01
 7.058635935E-01 -4.249998560E-02 7.465377195E-02
 7.197749321E-01 -5.695502425E-02 9.135263808E-02
 9.240914832E-01 -4.381167415E-02 3.466224520E-01
 9.106393590E-01 -1.367190022E-02 3.854003461E-01
 8.798685231E-01 -4.283253615E-02 3.183909200E-01
 1.360883249E+00 -1.608706166E-01 6.381877811E-02
 8.261806852E-01 -4.829260762E-02 2.504128453E-01
 7.773459440E-01 -6.360711066E-02 1.736141719E-01
 7.458449214E-01 -6.716459067E-02 1.264857192E-01
 1.150799524E-01 9.504367322E-02 -2.386976603E-01
 1.432663422E-01 5.898875138E-02 -3.601671820E-01
 8.004821245E-01 -5.174320286E-02 2.157606882E-01
 7.363648061E-01 -4.873368853E-02 1.196527519E-01
 7.201581118E-01 -8.038587703E-02 8.486339527E-02
 7.598563715E-01 -4.696399563E-02 1.561390081E-01
 1.564922556E+00 -5.201051559E-02 3.090428673E-02
 8.922022345E-03 7.094786900E-02 2.369299326E-01
 3.573941619E-02 3.347354253E-02 -5.328409626E-02
 4.193808951E-01 -8.015142790E-02 -7.328854859E-01
 4.114144194E-01 -9.537062707E-02 -7.240593055E-01
 3.796916959E-01 -8.254508905E-02 -7.817823919E-01
 4.343618909E-01 -9.351112408E-02 -6.587135323E-01
 4.197812810E-01 -1.220169447E-01 -6.434131573E-01
 4.629720589E-01 -8.937286081E-02 -5.723866514E-01
 3.953393959E-01 -8.228598520E-02 -7.781615370E-01
 3.858944743E-01 -9.482263914E-02 -7.471139087E-01
 3.684533880E-01 -9.408007282E-02 -7.457527227E-01
 8.549019982E-01 -1.899913885E-02 3.167404633E-01
 8.639799194E-01 -3.255169951E-02 3.144411046E-01
 8.456632703E-01 -3.422872664E-02 2.894814690E-01
 8.151425295E-01 -3.428263732E-02 2.456032534E-01
 8.804688714E-01 -2.337127676E-02 3.437106523E-01
 7.324639690E-01 -3.555921003E-02 1.192486111E-01
 6.530703710E-01 -5.214667398E-02 -2.463219841E-02
 6.643161100E-01 -6.812554933E-02 -6.661008251E-03
 6.428391222E-01 -6.798796308E-02 -4.698019586E-02
 6.181134783E-01 -7.680282541E-02 -9.977669472E-02
 6.819860924E-01 -5.977215630E-02 2.732616489E-02
 1.029286470E+00 4.740602674E-03 2.491812717E-01
 1.032613301E+00 4.053099630E-02 2.038888036E-01
 8.178456905E-01 -2.210044814E-02 2.599056817E-01
 3.692362214E-01 -8.082397101E-02 -7.850882505E-01
 3.454938382E-01 -1.030274815E-01 -7.095338037E-01
 3.129235177E-01 -8.145537680E-02 -7.129162829E-01
 3.300669118E-01 -9.089318076E-02 -7.221683458E-01
 3.125360190E-01 -1.015169465E-01 -6.687036330E-01
 3.006311801E-01 -8.430362384E-02 -6.828927459E-01
 8.428113654E-01 -1.973020861E-02 3.010415182E-01
 4.581243204E-01 -7.523975302E-02 -6.014402020E-01
 6.401384945E-01 -5.181660394E-02 -4.906787645E-02
 4.322089465E-01 -7.781404115E-02 -6.946300791E-01
 9.012019736E-01 -3.025046938E-02 3.540554495E-01
 9.017832353E-01 3.341445006E-02 -4.462804988E-02
 -2.990524534E-02 -1.580941676E-02 7.737189620E-01
 4.697039141E-01 -7.565888255E-02 -5.442587871E-01
 4.941691623E-01 -7.260640673E-02 -4.529241521E-01
 9.240088322E-01 2.904168085E-02 1.794928280E-02
 1.585874343E+00 2.498710191E-01 5.019117598E-03
 1.466051286E+00 5.125836362E-01 -1.195720404E-02
 3.339838313E-01 -7.949155726E-02 -7.544990890E-01
 3.251740301E-01 -7.883545016E-02 -7.402772019E-01
 2.560043713E+00 2.060986849E-01 1.695338875E-03
 6.139322926E-01 -5.742720043E-02 -1.068388936E-01
 6.797127582E-01 -4.538680533E-02 2.809930771E-02
 3.764226135E-01 -1.184015027E-01 -6.929053819E-01
 8.085644503E-01 -2.364108970E-02 2.462681294E-01
 8.966875764E-01 4.914839422E-02 -6.430520323E-02
 9.012422388E-01 7.452289190E-02 -5.675683220E-02
 8.743165559E-01 6.534993337E-02 -1.093150128E-01
 9.003349176E-01 -1.254467654E-02 3.776394403E-01
 4.542101274E-02 7.624474134E-02 -3.896062950E-03
 7.096659491E-02 4.759752660E-02 -1.791163211E-01
 3.073419090E-02 4.925158779E-02 4.210351612E-02
 4.151915802E-02 -7.674214837E-02 4.589108536E-02
 8.516264728E-02 -1.134037098E-01 -1.389141477E-01
 9.086955179E-02 -6.054272200E-02 -2.565806900E-01
 3.572255124E-01 -8.393152231E-02 -7.685165806E-01
 5.249458482E-01 -9.568418434E-02 -3.324482373E-01
 5.596332753E-01 -1.023927216E-01 -2.298025094E-01
 5.741572603E-01 -1.346757633E-01 -1.892768663E-01
 5.848169832E-01 6.696236251E-01 -2.367377734E-01
 9.624117779E-01 -5.160105138E-01 7.810857803E-02
 7.816589840E-01 -4.225772590E-02 1.933554883E-01
 7.574636649E-01 -3.192754142E-02 1.618150807E-01
 3.576487502E-03 3.935381038E-02 3.805632537E-01
 9.522247471E-03 1.755371499E-02 2.718668110E-01
 1.557754174E-02 2.140878313E-02 1.634999411E-01
 8.273737516E-03 2.495211549E-02 2.779634223E-01
 6.676383584E-02 -2.609938046E-01 -9.443639475E-03
 9.032810462E-02 -1.639599146E-01 -1.040810559E-01
 1.505849808E-01 -1.495067745E-01 -2.935067529E-01
 1.241047832E-01 -1.130828655E-01 -2.641838935E-01
 1.594753844E-01 -7.305494941E-02 -4.149984630E-01
 1.727267772E-01 -1.128562578E-01 -3.806922624E-01
 2.029559448E-01 -1.441938256E-01 -3.973151325E-01
 2.536972961E-01 -1.296294263E-01 -5.057635337E-01
 2.629414165E-01 -8.089159355E-02 -6.112001368E-01
 2.067389984E-01 -1.101278642E-01 -4.563025557E-01
 2.314766405E-01 -1.856928071E-01 -3.875328473E-01
 2.319502968E-01 -1.099533865E-01 -4.919908474E-01
 1.971966749E-01 -8.874495082E-02 -4.726473888E-01
 8.464289462E-01 6.635847934E-02 -1.702745272E-01
 8.183255521E-01 8.789801940E-02 -2.200312776E-01
 7.889073873E-01 8.155320347E-02 -2.726039523E-01
 4.419769115E-01 -1.504141840E-01 -5.542452834E-01
 8.230329325E-01 6.475016570E-02 -2.187266131E-01
 8.269325695E-01 4.718351878E-02 -2.144947396E-01
 5.963243041E-01 -6.686494311E-01 -9.192793533E-02
 5.852764869E-01 -7.909374268E-02 -1.758247131E-01
 5.555673729E-01 -7.646424795E-02 -2.447362032E-01
 1.223058594E+00 4.021751962E-02 9.110386405E-02
 1.750373779E+00 -2.072861872E-01 2.116191510E-02
 7.650435907E-01 8.270830691E-02 -3.143481145E-01
 1.516973117E-01 9.603407366E-02 -3.244826610E-01
 1.852133664E-01 1.159539211E-01 -3.640343323E-01
 2.035724709E-01 7.187266559E-02 -4.491860958E-01
 9.703891971E-02 7.474770835E-02 -2.097003381E-01
 1.392160236E-01 7.342452617E-02 -3.249850822E-01
 1.572911813E-01 7.676842802E-02 -3.631004102E-01
 7.235584984E-02 6.794060819E-02 -1.362338152E-01
 2.376941320E-01 1.407163940E-01 -4.152336926E-01
 2.195170081E-01 1.061855032E-01 -4.256684413E-01
 2.555810528E-01 1.069252517E-01 -4.708904967E-01
 2.951886737E-01 1.249409565E-01 -4.989966766E-01
 2.508957823E-01 7.616008221E-02 -5.060325929E-01
 3.359700537E-01 1.147859051E-01 -5.607118592E-01
 3.771254025E-01 1.181734216E-01 -5.955960556E-01
 3.755272690E-01 8.545958578E-02 -6.315193513E-01
 3.618519863E-01 8.050835016E-02 -6.260896592E-01
 3.561594165E-01 9.672637814E-02 -5.973410927E-01
 3.938727357E-01 9.550719605E-02 -6.415754576E-01
 4.128139643E-01 1.185760736E-01 -6.329923334E-01
 4.329094181E-01 1.030286941E-01 -6.735184631E-01
 3.306448314E-01 9.281836893E-02 -5.799721454E-01
 3.890078925E-01 8.076491699E-02 -6.548680641E-01
 4.003004209E-01 8.176255974E-02 -6.676344877E-01
 1.753258073E-01 8.306474840E-02 -3.829271467E-01
 1.976809673E-01 9.057611176E-02 -4.111544650E-01
 2.375101151E-01 8.821083856E-02 -4.751754512E-01
 3.084028223E-01 1.007780582E-01 -5.487699919E-01
 2.972781003E-01 8.469564860E-02 -5.571174811E-01
 9.225190310E-01 -2.394958198E-02 3.763355897E-01
 9.425804524E-01 -3.093613300E-02 3.752193951E-01
 9.681775597E-01 -3.965668935E-02 3.650095000E-01
 9.975954834E-01 -6.539768674E-02 2.960110003E-01
 9.912277375E-01 -2.271115176E-02 4.132542203E-01
 8.771384978E-01 4.606851872E-02 -1.068193600E-01
 7.214364507E-02 -7.916830678E-02 -1.143144238E-01
 5.269660890E-02 -5.923504178E-02 -7.456653038E-02
 3.263162788E-02 -5.623937247E-02 7.082675284E-02
 3.211575189E-02 -3.661453237E-02 3.362306551E-02
 1.717155755E-02 -4.561263009E-02 2.645009031E-01
 8.307872894E-03 -3.036336971E-02 4.546701880E-01
 2.277649578E-03 -1.340049527E-02 7.854367822E-01
 -1.339912031E-02 -1.397127971E-02 9.051829116E-01
 -2.405080268E-02 6.098714429E-03 7.788916034E-01
 8.992076813E-03 -1.936969683E-02 4.676267136E-01
 -3.541737822E-03 -5.161795119E-03 1.082458916E+00
 -1.040417381E-02 2.455194770E-03 1.139594182E+00
 -1.169241644E-03 8.879407052E-03 8.883803143E-01
 -3.063353540E-03 2.022003608E-03 1.225897601E+00
 -1.378493406E-03 -2.300717219E-02 6.519218373E-01
 1.542977968E-02 -2.399557897E-02 2.838828727E-01
 -2.007197843E-02 2.594494195E-02 7.064520578E-01
 -4.055948491E-03 2.200264509E-02 6.838086179E-01
 3.070907075E-03 1.371314247E-02 3.847391652E-01
 3.726306530E-03 1.951945523E-02 4.296017552E-01
 8.508564708E-01 4.387164155E-01 -1.763508986E-01
 7.390909182E-01 1.018455469E-01 -3.552313904E-01
 7.327002030E-01 6.041125130E-02 -3.817836289E-01
 7.083417236E-01 9.115955251E-02 -4.076348712E-01
 6.867256661E-01 8.859093445E-02 -4.555130205E-01
 6.975626103E-01 7.096207988E-02 -4.408351874E-01
 6.624431367E-01 8.245912017E-02 -5.069299825E-01
 6.426782615E-01 8.345704707E-02 -5.492789529E-01
 6.197755681E-01 9.173266004E-02 -5.962444110E-01
 5.964809585E-01 9.082999837E-02 -6.622932199E-01
 5.760418378E-01 1.004250360E-01 -6.957998310E-01
 5.473148840E-01 1.000109252E-01 -7.293984780E-01
 5.209946319E-01 1.093656441E-01 -7.234667593E-01
 5.400714111E-01 1.352084755E-01 -6.804725681E-01
 5.122497350E-01 8.893220875E-02 -7.554160941E-01
 4.943786593E-01 1.051506826E-01 -7.188782255E-01
 4.740542670E-01 9.999292023E-02 -7.140299752E-01
 5.007928876E-01 1.475745934E-01 -6.624428420E-01