TITLE     = "Visualization of the solution"
VARIABLES = "x"
"y"
"Pressure_Coefficient"
ZONE T="Zone"
 STRANDID=0, SOLUTIONTIME=0
 Nodes=701, Elements=1187, ZONETYPE=FEQuadrilateral
 DATAPACKING=POINT
 DT=(DOUBLE DOUBLE DOUBLE )
 1.000049710E+00 5.265675136E-04 2.966495470E-01
 9.891804457E-01 2.544061979E-03 2.188483443E-01
 9.779848456E-01 4.676827695E-03 1.599771857E-01
 9.638388157E-01 7.302895654E-03 1.033620038E-01
 9.502390623E-01 9.818310849E-03 4.916675305E-02
 9.367423058E-01 1.232811436E-02 4.508072235E-05
 9.256470799E-01 1.433073264E-02 -3.992049361E-02
 9.133437872E-01 1.650094427E-02 -7.833819231E-02
 9.015811086E-01 1.850522682E-02 -1.123904929E-01
 8.893469572E-01 2.052379027E-02 -1.455931516E-01
 8.769397736E-01 2.249651588E-02 -1.689228679E-01
 8.645461798E-01 2.435771935E-02 -1.873174852E-01
 8.514593840E-01 2.625764906E-02 -2.051605159E-01
 8.399387002E-01 2.788716741E-02 -2.125617235E-01
 8.275515437E-01 2.954473533E-02 -2.245716782E-01
 8.141525984E-01 3.134525567E-02 -2.458058911E-01
 8.010456562E-01 3.306093812E-02 -2.616547216E-01
 7.882397175E-01 3.466436267E-02 -2.700283110E-01
 7.754130960E-01 3.623974696E-02 -2.846437139E-01
 7.629830837E-01 3.776556998E-02 -3.069835377E-01
 7.494957447E-01 3.938255459E-02 -3.256481105E-01
 7.350861430E-01 4.102485999E-02 -3.392842749E-01
 7.240074873E-01 4.225580394E-02 -3.529004228E-01
 7.126753926E-01 4.349531233E-02 -3.711844615E-01
 7.008268237E-01 4.476577789E-02 -3.935470140E-01
 6.869589686E-01 4.620839655E-02 -4.144734292E-01
 6.735258698E-01 4.753265902E-02 -4.333998823E-01
 6.635529995E-01 4.849398509E-02 -4.482458469E-01
 6.516504884E-01 4.957968742E-02 -4.637194096E-01
 6.399333477E-01 5.061823130E-02 -4.821641987E-01
 6.279911399E-01 5.162905157E-02 -5.034564163E-01
 6.168707609E-01 5.253377929E-02 -5.235602111E-01
 6.055811644E-01 5.338738486E-02 -5.392853373E-01
 5.927315950E-01 5.430779606E-02 -5.570771862E-01
 5.810267925E-01 5.509644747E-02 -5.706804139E-01
 5.676159859E-01 5.591075867E-02 -5.876722839E-01
 5.553818345E-01 5.661112815E-02 -6.014382561E-01
 5.432440042E-01 5.720715225E-02 -6.113349484E-01
 5.326642394E-01 5.769713596E-02 -6.199691653E-01
 5.210966468E-01 5.815915391E-02 -6.252399940E-01
 5.084376931E-01 5.860321969E-02 -6.266295285E-01
 4.972751737E-01 5.892177299E-02 -6.190837701E-01
 4.842001498E-01 5.921705812E-02 -6.137821847E-01
 4.710732996E-01 5.945702270E-02 -6.093658944E-01
 4.569495320E-01 5.961917341E-02 -6.068454660E-01
 4.436476231E-01 5.971205235E-02 -6.026297389E-01
 4.308537543E-01 5.971471220E-02 -5.905804855E-01
 4.179771543E-01 5.963835865E-02 -5.782753849E-01
 4.057529569E-01 5.951012671E-02 -5.688959241E-01
 3.938801885E-01 5.933013186E-02 -5.609474009E-01
 3.816456199E-01 5.908621475E-02 -5.511261573E-01
 3.705140948E-01 5.880365893E-02 -5.360117730E-01
 3.576469719E-01 5.840958282E-02 -5.242001410E-01
 3.455942869E-01 5.798765644E-02 -5.162748711E-01
 3.331067264E-01 5.750150606E-02 -5.067532232E-01
 3.220746219E-01 5.699671060E-02 -4.930833231E-01
 3.097754121E-01 5.639262870E-02 -4.804369916E-01
 2.963766754E-01 5.566833168E-02 -4.683544211E-01
 2.822929919E-01 5.482437089E-02 -4.578121312E-01
 2.693771720E-01 5.398403108E-02 -4.466344252E-01
 2.571939528E-01 5.311902612E-02 -4.316528760E-01
 2.443272918E-01 5.213341489E-02 -4.160389367E-01
 2.315049171E-01 5.108610541E-02 -4.050133851E-01
 2.190246433E-01 5.000311509E-02 -3.953438525E-01
 2.073045820E-01 4.892136529E-02 -3.825616019E-01
 1.957749724E-01 4.777900130E-02 -3.669114438E-01
 1.832096279E-01 4.646886885E-02 -3.525613954E-01
 1.711223125E-01 4.513087869E-02 -3.412509663E-01
 1.595945805E-01 4.379435629E-02 -3.287290209E-01
 1.474305242E-01 4.228162766E-02 -3.147985865E-01
 1.366550177E-01 4.087311774E-02 -2.991304693E-01
 1.250033379E-01 3.925792128E-02 -2.814685470E-01
 1.133300513E-01 3.754297644E-02 -2.623894260E-01
 1.024585888E-01 3.584099934E-02 -2.462360445E-01
 9.236485511E-02 3.416635096E-02 -2.260985793E-01
 8.099901676E-02 3.214797005E-02 -2.035103232E-01
 6.899300218E-02 2.984836139E-02 -1.858876352E-01
 5.919160694E-02 2.780814841E-02 -1.579782206E-01
 4.933430627E-02 2.556731179E-02 -1.282470881E-01
 4.075783491E-02 2.343878895E-02 -9.513237453E-02
 3.356264532E-02 2.147138119E-02 -6.102527105E-02
 2.735323645E-02 1.959904097E-02 -1.725692901E-02
 2.196886577E-02 1.780713722E-02 3.545807150E-02
 1.816721447E-02 1.641041972E-02 6.729638225E-02
 1.463027857E-02 1.498807687E-02 4.886870807E-02
 1.199488807E-02 1.382096577E-02 5.849682595E-02
 9.624851868E-03 1.267606672E-02 6.541180058E-02
 7.902733050E-03 1.175983623E-02 1.789710538E-01
 6.370869931E-03 1.088104676E-02 3.518335040E-01
 4.946775734E-03 9.980018251E-03 4.605237131E-01
 3.048803657E-03 8.625075221E-03 6.120865689E-01
 1.385974465E-03 7.204202935E-03 6.555633481E-01
 -1.598915878E-05 5.691858940E-03 9.609293815E-01
 -1.355267130E-03 3.619198687E-03 1.109824828E+00
 -1.936512068E-03 1.994951162E-03 8.832298912E-01
 -2.114345552E-03 7.148697623E-04 1.125507422E+00
 -2.032609656E-03 -7.005878724E-04 8.970937942E-01
 -1.623570686E-03 -2.211606130E-03 1.215531689E+00
 -7.404371281E-04 -3.978033084E-03 6.474762578E-01
 6.376518868E-04 -5.806740839E-03 6.410769051E-01
 2.583592897E-03 -7.722762879E-03 4.154569049E-01
 4.311896395E-03 -9.101633914E-03 3.241783160E-01
 6.340353750E-03 -1.049448363E-02 2.824256625E-01
 7.882545702E-03 -1.144115068E-02 1.878232458E-01
 9.878819808E-03 -1.255496591E-02 1.637606278E-01
 1.218815055E-02 -1.372290403E-02 1.048771576E-01
 1.538634673E-02 -1.518080570E-02 7.597530528E-02
 1.833928563E-02 -1.640320756E-02 2.917575711E-02
 2.217067033E-02 -1.784306392E-02 -5.563985462E-03
 2.754416689E-02 -1.965500414E-02 -4.565882173E-02
 3.330080956E-02 -2.140162326E-02 -8.391384636E-02
 4.075915739E-02 -2.342769317E-02 -1.080202645E-01
 4.834811762E-02 -2.527853101E-02 -1.438243446E-01
 5.751042068E-02 -2.731722780E-02 -1.681722264E-01
 6.628300995E-02 -2.909604460E-02 -1.968671299E-01
 7.643109560E-02 -3.099897504E-02 -2.134864636E-01
 8.659324795E-02 -3.276483342E-02 -2.301437428E-01
 9.686627984E-02 -3.443121910E-02 -2.467172414E-01
 1.077611223E-01 -3.607944399E-02 -2.622779679E-01
 1.192230657E-01 -3.770775720E-02 -2.721746259E-01
 1.307130903E-01 -3.924552351E-02 -2.830219818E-01
 1.415335834E-01 -4.061714560E-02 -2.959233594E-01
 1.526661217E-01 -4.194521159E-02 -3.084263338E-01
 1.648755968E-01 -4.332371056E-02 -3.217801681E-01
 1.765324175E-01 -4.456057400E-02 -3.351979910E-01
 1.885349751E-01 -4.576468840E-02 -3.490092037E-01
 1.993160248E-01 -4.678617790E-02 -3.657026632E-01
 2.107346654E-01 -4.780098423E-02 -3.820571487E-01
 2.232427001E-01 -4.883866757E-02 -3.990624681E-01
 2.362254113E-01 -4.983019456E-02 -4.173088223E-01
 2.488121241E-01 -5.070753396E-02 -4.356412152E-01
 2.617304027E-01 -5.152690038E-02 -4.535974930E-01
 2.730212808E-01 -5.216709524E-02 -4.732921956E-01
 2.860949039E-01 -5.281556398E-02 -4.892932397E-01
 2.991091907E-01 -5.337185040E-02 -5.088777343E-01
 3.121015728E-01 -5.381958559E-02 -5.282718772E-01
 3.239637315E-01 -5.413515493E-02 -5.450356379E-01
 3.364242911E-01 -5.436268076E-02 -5.574470866E-01
 3.474673033E-01 -5.448716506E-02 -5.714543213E-01
 3.588127792E-01 -5.451381579E-02 -5.832690014E-01
 3.697033226E-01 -5.444025621E-02 -5.895546393E-01
 3.803913593E-01 -5.428870395E-02 -5.909440209E-01
 3.916102052E-01 -5.400779471E-02 -5.851606842E-01
 4.044292271E-01 -5.357570574E-02 -5.697483049E-01
 4.168362617E-01 -5.305176228E-02 -5.593640776E-01
 4.297162592E-01 -5.235115439E-02 -5.447133262E-01
 4.422822893E-01 -5.153119564E-02 -5.169893854E-01
 4.546314776E-01 -5.061537400E-02 -4.811518281E-01
 4.666441381E-01 -4.961064085E-02 -4.440901888E-01
 4.789611399E-01 -4.846232384E-02 -4.047531469E-01
 4.903122187E-01 -4.734238982E-02 -3.683443075E-01
 5.027803183E-01 -4.600443691E-02 -3.310651923E-01
 5.165324211E-01 -4.445060343E-02 -2.881913725E-01
 5.301793814E-01 -4.281137884E-02 -2.474242974E-01
 5.438584685E-01 -4.108343273E-02 -2.061939371E-01
 5.569522977E-01 -3.938752785E-02 -1.680717696E-01
 5.698930025E-01 -3.769668564E-02 -1.395037738E-01
 5.829494596E-01 -3.592801467E-02 -1.113714847E-01
 5.945034027E-01 -3.433915973E-02 -8.046640918E-02
 6.066242456E-01 -3.266862407E-02 -5.208832264E-02
 6.207120419E-01 -3.074079379E-02 -2.790605452E-02
 6.348558664E-01 -2.876020782E-02 -5.738174987E-04
 6.494125724E-01 -2.676416561E-02 2.571662014E-02
 6.625048518E-01 -2.494643256E-02 4.737724413E-02
 6.757062674E-01 -2.311998233E-02 7.184936029E-02
 6.880760789E-01 -2.142435126E-02 9.417620979E-02
 7.008296847E-01 -1.973122358E-02 1.098636470E-01
 7.148615122E-01 -1.784175076E-02 1.297979072E-01
 7.279127836E-01 -1.615082659E-02 1.499433323E-01
 7.393425703E-01 -1.463964954E-02 1.691619534E-01
 7.521167397E-01 -1.306248456E-02 1.856482656E-01
 7.638875842E-01 -1.158354804E-02 2.020535392E-01
 7.769556046E-01 -1.006230339E-02 2.166359672E-01
 7.880703807E-01 -8.736710064E-03 2.322795585E-01
 8.007160425E-01 -7.336764596E-03 2.493469758E-01
 8.115974665E-01 -6.146504544E-03 2.636014808E-01
 8.231191635E-01 -4.950292408E-03 2.802728952E-01
 8.359299302E-01 -3.724164329E-03 2.935672383E-01
 8.483181596E-01 -2.624572255E-03 3.053853719E-01
 8.602151871E-01 -1.640011789E-03 3.192798135E-01
 8.725903630E-01 -7.494356250E-04 3.297356820E-01
 8.849881887E-01 2.801095252E-05 3.391020053E-01
 8.986151814E-01 7.214600919E-04 3.438561215E-01
 9.088634849E-01 1.136461855E-03 3.512384271E-01
 9.188985825E-01 1.450806973E-03 3.530256173E-01
 9.284716845E-01 1.652792562E-03 3.541619166E-01
 9.367398620E-01 1.763283974E-03 3.528463821E-01
 9.490077496E-01 1.808132627E-03 3.519935828E-01
 9.618748426E-01 1.714317012E-03 3.457097060E-01
 9.766322374E-01 1.434946666E-03 3.455520329E-01
 9.890242219E-01 1.033928362E-03 3.518068475E-01
 -5.000000000E-01 -1.000000000E+00 4.594910505E-02
 3.500000000E+00 -1.000000000E+00 1.149066918E-02
 3.500000000E+00 1.000000000E+00 -1.907724482E-03
 -5.000000000E-01 1.000000000E+00 4.175655595E-02
 -5.000000000E-01 5.000000000E-01 8.923884611E-02
 -5.000000000E-01 2.752797990E-12 1.298675952E-01
 -5.000000000E-01 -5.000000000E-01 8.957708319E-02
 -9.421907698E-13 -1.000000000E+00 2.412736911E-02
 5.000000000E-01 -1.000000000E+00 -1.871707023E-02
 1.000000000E+00 -1.000000000E+00 2.908843174E-03
 1.500000000E+00 -1.000000000E+00 3.185583213E-02
 2.000000000E+00 -1.000000000E+00 2.879458900E-02
 2.500000000E+00 -1.000000000E+00 1.929647844E-02
 3.000000000E+00 -1.000000000E+00 1.363207119E-02
 3.500000000E+00 -5.000000000E-01 1.218366743E-02
 3.500000000E+00 -2.752797990E-12 1.190883981E-02
 3.500000000E+00 5.000000000E-01 4.987288946E-03
 3.000000000E+00 1.000000000E+00 -7.442370070E-03
 2.500000000E+00 1.000000000E+00 -1.573457015E-02
 2.000000000E+00 1.000000000E+00 -3.168387674E-02
 1.500000000E+00 1.000000000E+00 -7.000876192E-02
 1.000000000E+00 1.000000000E+00 -1.182533614E-01
 5.000000000E-01 1.000000000E+00 -8.264012011E-02
 1.733724275E-12 1.000000000E+00 1.216421004E-02
 6.845445452E-01 -3.538413377E-02 8.201051111E-02
 7.821328384E-01 -2.173774960E-02 2.172662382E-01
 9.048044662E-01 -9.111439038E-03 3.342113420E-01
 7.089342010E-01 5.648863002E-02 -3.728807536E-01
 2.800303462E-01 -6.523339768E-02 -4.649154927E-01
 2.761615055E-01 6.773174935E-02 -4.396093761E-01
 9.053782902E-01 2.918089434E-02 -9.801033021E-02
 8.090673707E-01 4.341973025E-02 -2.452712187E-01
 5.617104274E-01 -5.297736975E-02 -1.554987706E-01
 6.136845599E-01 6.926283692E-02 -5.122793116E-01
 3.998699924E-01 -6.657114983E-02 -5.488247935E-01
 4.250913858E-01 7.277350222E-02 -5.706551431E-01
 5.152948478E-01 7.087537972E-02 -6.097824338E-01
 1.837704847E+00 -5.878190182E-01 2.746851308E-02
 1.789479206E+00 6.698509152E-01 -2.183784956E-02
 3.031173858E+00 2.156847919E-01 4.956014299E-03
 7.500000000E-01 -5.669872981E-01 -7.807848362E-03
 4.739103542E-01 -6.134507907E-02 -4.040498555E-01
 7.500000000E-01 5.669872981E-01 -1.760659833E-01
 2.734852281E+00 -5.326873272E-01 1.195831332E-02
 1.188969614E+00 6.108719773E-01 -5.869471761E-02
 9.869062946E-01 3.437749652E-01 -5.916377241E-02
 1.248302503E+00 -6.162134235E-01 5.087678668E-02
 1.518006695E+00 -2.672302673E-01 3.455065365E-02
 3.779350322E-01 6.139814325E-01 -1.647450746E-01
 1.074410914E-01 4.724822427E-02 -2.369942207E-01
 1.650617937E-01 5.579940961E-02 -3.216097434E-01
 2.353715969E-01 -6.857023773E-01 -3.672597723E-02
 6.994944574E-02 -4.099876487E-02 -1.658523130E-01
 1.226678491E-01 -4.697963024E-02 -2.626309893E-01
 1.824110069E-01 -5.429739997E-02 -3.306018597E-01
 2.249165755E+00 -5.866897055E-01 1.700083671E-02
 2.037005556E+00 -2.185221783E-01 1.143105779E-02
 2.422278488E+00 -1.873393159E-01 7.568942387E-03
 2.184635189E+00 1.582592779E-01 1.134694422E-03
 1.791120151E+00 1.019302636E-01 5.065124625E-03
 -2.711301175E-01 -2.547160635E-01 1.451204326E-01
 -1.168479641E-01 -5.658150549E-01 4.833081481E-02
 -2.727931564E-01 2.416981091E-01 1.418135650E-01
 -8.195855761E-02 6.281551894E-01 2.471846835E-02
 5.076788312E-02 3.679766254E-01 -1.914925775E-02
 5.329682510E-02 3.493274917E-02 -1.179162546E-01
 2.240680052E+00 5.578374041E-01 -8.894929260E-03
 2.746277288E+00 5.966251340E-01 -3.301472623E-03
 -2.510551414E-01 -1.057367045E-03 1.953584510E-01
 -1.423200878E-01 -1.290835359E-01 2.130687328E-01
 2.552491103E-02 -3.465586713E-01 2.980542071E-02
 3.087238881E-01 -2.928271315E-01 -2.272569941E-01
 3.406648589E-01 -6.310058453E-02 -5.474505771E-01
 -1.164340720E-01 1.373167325E-01 2.108424735E-01
 -9.985322255E-02 9.453304623E-03 3.129089735E-01
 -5.918351409E-02 -6.473916533E-02 3.252525454E-01
 3.546979036E-02 -2.815802515E-02 -5.925736820E-02
 1.908873738E-02 -2.206516271E-02 7.356205118E-02
 -5.074777727E-02 -1.500015226E-01 1.816187330E-01
 7.559643674E-03 -9.496409548E-02 1.752296172E-01
 2.616203231E-02 -1.973313948E-01 4.344684559E-02
 7.013317677E-02 -1.117337892E-01 -6.623398206E-02
 1.151764511E-01 -1.598037025E-01 -1.227401743E-01
 2.275061295E-01 -6.227880001E-02 -3.899835914E-01
 -1.326248795E-02 -5.199489842E-02 3.910384809E-01
 8.016603635E-03 -1.354673416E-02 2.098341729E-01
 -5.513188203E-02 -1.281929892E-02 5.145104381E-01
 1.209255175E-01 -1.002819946E-01 -2.004470973E-01
 1.781419559E-01 -1.254339411E-01 -2.524661910E-01
 1.874061047E-01 -1.939050704E-01 -2.109125017E-01
 2.392453752E-01 -1.525156609E-01 -3.123312699E-01
 1.217867656E-01 -2.649988473E-01 -8.824206012E-02
 9.092896275E-02 -7.568087733E-02 -1.785601387E-01
 9.051058558E-02 -4.238807536E-02 -2.151593706E-01
 2.263875493E-01 -1.044990355E-01 -3.432046601E-01
 2.776061883E-01 -1.085046381E-01 -4.043476298E-01
 3.022639293E-01 -1.598603079E-01 -3.643190018E-01
 3.040318875E-01 -6.784506199E-02 -4.953483107E-01
 3.310022264E-01 -1.149125827E-01 -4.526252378E-01
 3.571615677E-01 -1.621419357E-01 -3.920447367E-01
 3.799732957E-01 -1.109142429E-01 -4.761644272E-01
 4.183231246E-01 -1.583451078E-01 -3.776338073E-01
 4.348734245E-01 -6.634626741E-02 -5.053722118E-01
 3.748921542E-01 -6.617492044E-02 -5.676146736E-01
 3.858435976E-01 -2.231545571E-01 -3.118630373E-01
 4.652513468E-01 -2.165803107E-01 -2.684337039E-01
 4.296745182E-01 -3.075881242E-01 -2.214310926E-01
 5.400348870E-01 -2.796831001E-01 -1.408330340E-01
 5.832098114E-01 -1.815935545E-01 -9.521555391E-02
 6.256858826E-01 -4.379907321E-02 -2.058356069E-02
 6.085342828E-01 -4.251644901E-02 -5.196959768E-02
 6.556572761E-01 -2.538743459E-01 -1.304970811E-02
 6.943780650E-01 -1.739176003E-01 4.371016467E-02
 8.428431680E-01 -1.760453403E-02 2.860008592E-01
 7.615139257E-01 -2.298824869E-01 8.761080773E-02
 7.350117228E-01 -2.530392326E-02 1.566883625E-01
 7.607476618E-01 -2.377296110E-02 1.895277090E-01
 7.953916262E-01 -1.414696670E-01 1.560613681E-01
 9.681821079E-01 -1.053384443E-02 3.341177401E-01
 8.596756188E-01 -2.040494350E-01 1.540782683E-01
 9.429063154E-01 -7.106964477E-03 3.409250790E-01
 8.993931198E-01 -1.327421882E-01 2.117253358E-01
 9.559632007E-01 -1.887173033E-01 1.789095736E-01
 9.353692116E-01 -3.104852616E-01 1.139908953E-01
 1.060345384E+00 -2.572236209E-01 1.202200523E-01
 1.089880106E+00 -1.255337194E-01 1.450537825E-01
 9.874748827E-01 -1.021250133E-01 2.212474334E-01
 5.069992342E-01 -4.258562681E-01 -1.144441008E-01
 4.795939592E-01 -1.414482633E-01 -3.107320198E-01
 5.267736400E-01 -5.548663338E-02 -2.488811677E-01
 8.273052486E-01 -8.240900432E-02 2.184804829E-01
 7.416712299E-01 -9.980544475E-02 1.272031254E-01
 1.198759357E+00 -2.148942759E-01 8.786987792E-02
 1.211776760E+00 -7.916352766E-02 8.397031191E-02
 1.121970758E+00 -1.664158624E-02 1.113175441E-01
 1.207280295E+00 3.883249994E-02 7.017285918E-02
 1.111619563E+00 9.309028898E-02 9.176964610E-02
 9.612202905E-01 2.557524287E-02 7.691955817E-02
 1.243400506E+00 1.971618223E-01 3.755528603E-02
 1.348397571E+00 1.588266141E-02 4.299077949E-02
 9.272355689E-01 -6.927726689E-02 2.666210477E-01
 6.254078571E-01 -1.210104093E-01 -3.675885923E-02
 4.327154351E-01 -1.097903971E-01 -4.368967983E-01
 1.043377338E+00 -5.015109529E-02 1.939299574E-01
 1.047285169E+00 -4.537244377E-01 8.801647442E-02
 9.979186469E-01 -5.249505512E-02 2.575079018E-01
 9.622688944E-01 -5.145513355E-02 2.894766207E-01
 4.683947376E-01 -1.031892843E-01 -3.744638755E-01
 1.059480536E+00 1.902207816E-02 1.513850354E-01
 1.029276554E+00 8.156204490E-02 1.115015425E-01
 9.808403138E-01 -8.100045187E-03 3.299072385E-01
 1.472388377E+00 1.705023731E-01 1.403341034E-02
 9.347612583E-01 -3.398549701E-02 3.099316863E-01
 8.916338472E-01 -5.394700875E-02 2.779679518E-01
 8.794621579E-01 -1.109106261E-02 3.210687402E-01
 9.230627574E-01 -7.540678752E-03 3.404919540E-01
 1.367838166E+00 4.042674025E-01 -7.170851993E-03
 9.803790091E-01 -2.603709622E-02 2.904738658E-01
 9.573133299E-01 -2.527271695E-02 3.159768696E-01
 1.585642815E-01 -8.684616369E-02 -2.656282246E-01
 1.451819872E-01 -5.142916474E-02 -2.886225155E-01
 3.109362943E+00 -2.612711843E-01 1.052300150E-02
 8.916223256E-01 -1.202322751E-02 3.288246715E-01
 9.007413361E-01 -2.143894908E-02 3.195956724E-01
 5.639630928E-02 -7.069906784E-02 -5.259519589E-02
 5.315957722E-02 -3.561207428E-02 -1.182374584E-01
 2.193018612E-02 -6.245166923E-02 1.487937969E-01
 9.545150641E-01 -9.546460935E-03 3.343065963E-01
 1.940389584E-01 -8.885564757E-02 -3.087446928E-01
 1.975112684E-01 -6.106168846E-02 -3.469726375E-01
 9.149678610E-01 -1.873207165E-02 3.262408902E-01
 3.527935049E-01 -9.545981993E-02 -5.016731020E-01
 -2.681513380E-02 -2.581370107E-02 4.276958607E-01
 2.189004373E-03 -1.154648771E-02 4.459924555E-01
 1.022129730E+00 1.948356403E-01 1.637379121E-02
 9.337462878E-01 1.386414597E-01 -5.114282354E-02
 8.596052383E-01 3.826751752E-02 -1.852788871E-01
 8.400352209E-01 3.820986557E-02 -2.068706675E-01
 2.511294226E-01 -8.337848710E-02 -3.998022499E-01
 2.568426476E-01 -6.491834683E-02 -4.308565747E-01
 3.309962327E-01 -6.297448046E-02 -5.373401489E-01
 1.712787696E-01 -5.269080706E-02 -3.184001118E-01
 1.091922138E-01 -4.701196714E-02 -2.441990532E-01
 1.164334153E-01 -6.145924094E-02 -2.305945775E-01
 1.389441719E-01 -6.701275464E-02 -2.560305021E-01
 8.857447588E-01 -2.933761808E-02 3.020876837E-01
 8.625042361E-01 -2.380335857E-02 2.951232050E-01
 8.586142390E-01 -5.174009720E-02 2.668795528E-01
 8.430509048E-01 -3.427215016E-02 2.713127445E-01
 8.173951648E-01 -1.676891632E-02 2.621251263E-01
 8.059685076E-01 -5.423018715E-02 2.220835893E-01
 8.288929096E-01 -1.438293184E-02 2.766581146E-01
 8.263662601E-01 -2.791003169E-02 2.630300336E-01
 8.067490915E-01 -2.957493934E-02 2.393758910E-01
 7.876147576E-01 -4.091137149E-02 2.108222100E-01
 7.814826459E-01 -7.039036977E-02 1.833085461E-01
 7.400323247E-01 -6.170252816E-02 1.415257360E-01
 7.086696068E-01 -3.125756164E-02 1.166030828E-01
 7.054585103E-01 -7.114277118E-02 9.654218099E-02
 7.476290042E-01 -3.664576901E-01 5.289413721E-02
 4.717333269E-01 -6.181390396E-01 -7.339564891E-02
 2.684898074E-01 -6.292997783E-02 -4.511925387E-01
 1.007405480E+00 -2.448161572E-02 2.829131570E-01
 1.027829875E+00 -9.164748888E-03 2.013163498E-01
 7.238816268E-01 -2.972309268E-02 1.386536805E-01
 7.191251612E-01 -4.756467933E-02 1.234483286E-01
 6.986454426E-01 -4.510682864E-02 9.659529577E-02
 6.781851482E-01 -5.290230827E-02 6.465156991E-02
 6.599195666E-01 -4.008454696E-02 4.060399065E-02
 6.561092680E-01 -6.119349463E-02 2.708999506E-02
 6.741359250E-01 -8.306387493E-02 4.980028591E-02
 6.436593137E-01 -4.342816334E-02 1.165955025E-02
 3.366987530E-01 -7.864124950E-02 -5.161034264E-01
 3.111270529E-01 -8.905343526E-02 -4.718497470E-01
 -4.326614740E-03 -3.148399978E-02 4.792512105E-01
 1.269748762E-02 -4.242955914E-02 2.076458394E-01
 2.423683029E-01 -6.473847558E-02 -4.092485199E-01
 9.320750017E-01 -5.667859116E-03 3.440257052E-01
 9.310435990E-01 -1.602739235E-02 3.310589035E-01
 8.562051968E-01 -1.143683434E-02 3.048748935E-01
 9.141425654E-01 -7.055458010E-03 3.411569948E-01
 6.721720758E-01 -3.528748078E-02 6.195252654E-02
 1.580612888E-01 -5.885968577E-02 -2.951659757E-01
 8.063895107E-01 -1.555384075E-02 2.490030580E-01
 7.952787702E-01 -2.064189597E-02 2.323780792E-01
 3.520634695E-01 -6.567377206E-02 -5.546737588E-01
 9.915397470E-01 -1.141165225E-02 3.453216966E-01
 1.759688598E-01 -6.791892210E-02 -3.095534813E-01
 2.149593511E-01 -7.649992539E-02 -3.581131202E-01
 3.644156074E-01 -7.942685797E-02 -5.337390028E-01
 3.860312136E-01 -7.920293849E-02 -5.364886680E-01
 4.076816576E-01 -8.697970196E-02 -5.042142083E-01
 4.177956630E-01 -7.097950111E-02 -5.226066827E-01
 4.309826041E-01 -8.391427552E-02 -4.822642261E-01
 4.492394883E-01 -6.162614237E-02 -4.774313528E-01
 2.147908229E-01 -5.929601313E-02 -3.750569440E-01
 2.709042236E-01 -7.740735559E-02 -4.344644177E-01
 2.905878204E-01 -7.921673010E-02 -4.596603780E-01
 6.961530716E-01 -3.058081978E-02 9.979511757E-02
 8.661954282E-01 -9.744140586E-03 3.149368010E-01
 3.865589849E-01 -6.404910148E-02 -5.695882692E-01
 9.709994227E-01 9.427075781E-02 3.307219571E-02
 9.133650663E-01 8.207694945E-02 -7.337206853E-02
 8.663148514E-01 1.312071737E-01 -1.413550125E-01
 7.571562314E-01 5.192390178E-02 -3.076960612E-01
 7.805750400E-01 4.592313099E-02 -2.762043631E-01
 9.111320588E-01 2.182671535E-01 -9.100543284E-02
 8.150834108E-01 2.044930588E-01 -1.925216719E-01
 7.940217258E-01 1.323726644E-01 -2.322024057E-01
 7.257124374E-01 1.753598243E-01 -3.019615218E-01
 6.601348395E-01 5.817832253E-02 -4.455845088E-01
 6.826973221E-01 5.874647280E-02 -4.138951696E-01
 7.405527703E-01 2.587381119E-01 -2.603183332E-01
 6.398328697E-01 2.319327819E-01 -3.678115259E-01
 5.621029304E-01 6.681205230E-02 -5.808712670E-01
 6.467245422E-01 1.521110429E-01 -4.056821177E-01
 5.435557865E-01 2.071169481E-01 -4.510564491E-01
 3.507161989E-01 7.402557520E-02 -5.032784443E-01
 3.767142583E-01 7.338757132E-02 -5.294886842E-01
 5.572812933E-01 3.162346846E-01 -3.585574140E-01
 4.616648796E-01 2.549936361E-01 -4.067351039E-01
 4.700813644E-01 1.577821656E-01 -4.994518066E-01
 3.796575476E-01 1.796368140E-01 -4.225240196E-01
 4.653180257E-01 7.251490410E-02 -5.934436289E-01
 3.652888259E-01 2.714464359E-01 -3.421149980E-01
 2.810113950E-01 2.164912241E-01 -3.206614543E-01
 2.102990722E-01 6.302838108E-02 -3.703767220E-01
 2.352592144E-01 6.756244211E-02 -3.927444826E-01
 1.873984447E-01 5.911980462E-02 -3.442383012E-01
 2.499892020E-01 3.410088107E-01 -2.016238292E-01
 5.323972065E-01 1.407120860E-01 -5.223764770E-01
 3.196558516E-01 1.442374000E-01 -3.982923858E-01
 3.170304796E-01 6.743293797E-02 -4.783318969E-01
 2.380035396E-01 1.524829127E-01 -3.201362484E-01
 6.965975499E-01 1.207384592E-01 -3.620289481E-01
 2.037424234E-01 2.065957574E-01 -2.471062620E-01
 1.450650464E-01 1.431154758E-01 -2.097925265E-01
 7.437559190E-01 9.900286060E-02 -3.047639555E-01
 7.312003670E-01 5.454387898E-02 -3.391238527E-01
 4.168651225E-01 1.337673150E-01 -5.011661328E-01
 1.989822829E-01 1.129083307E-01 -3.065583510E-01
 6.496497542E-01 1.045066494E-01 -4.317293799E-01
 6.335844444E-01 6.003576045E-02 -4.877350642E-01
 6.109555602E-01 1.164134786E-01 -4.786987772E-01
 5.869699292E-01 6.742830735E-02 -5.513414667E-01
 4.990282502E-01 1.142689672E-01 -5.548101830E-01
 4.909235701E-01 7.257585664E-02 -6.010046867E-01
 2.777944073E-01 1.158071678E-01 -3.960003846E-01
 8.255300277E-01 9.431402944E-02 -2.073848171E-01
 8.649166162E-01 7.732840686E-02 -1.564622844E-01
 8.810450112E-01 3.315370499E-02 -1.532583169E-01
 4.353883170E-01 3.840167403E-01 -3.084675960E-01
 1.450906839E-01 5.451834833E-01 -6.127687338E-02
 5.308876745E-01 1.022328311E-01 -5.658749854E-01
 5.392934698E-01 6.861124272E-02 -6.012268882E-01
 6.837314914E-01 3.668051415E-01 -2.697113501E-01
 7.811540980E-01 8.887812283E-02 -2.624911992E-01
 6.228238878E-01 9.302536844E-02 -4.838216816E-01
 8.399253557E-01 3.421848299E-01 -1.632984873E-01
 7.090733290E-01 8.848596230E-02 -3.612853390E-01
 6.784879415E-01 8.854391543E-02 -4.002564209E-01
 4.496032286E-01 7.268254697E-02 -5.884048780E-01
 4.565572494E-01 9.081924198E-02 -5.686524367E-01
 4.784243955E-01 8.666418963E-02 -5.802787345E-01
 4.371816262E-01 8.592558438E-02 -5.638054843E-01
 4.154969952E-01 9.072428130E-02 -5.429178976E-01
 4.009314047E-01 7.356819763E-02 -5.510198570E-01
 3.911397032E-01 9.259718645E-02 -5.203277482E-01
 3.647447618E-01 9.178215653E-02 -4.955882082E-01
 3.367717143E-01 9.278581840E-02 -4.713212332E-01
 3.798395668E-01 1.239302162E-01 -4.805417858E-01
 4.690166383E-01 1.114032219E-01 -5.499993839E-01
 3.015818427E-01 6.830887657E-02 -4.615422785E-01
 3.154311882E-01 8.297429413E-02 -4.600588982E-01
 2.881350407E-01 8.267694805E-02 -4.352214510E-01
 2.665433277E-01 8.141024529E-02 -4.144210531E-01
 3.316875024E-01 7.403781478E-02 -4.885183501E-01
 4.779878882E-01 7.008580624E-02 -5.992164001E-01
 5.688278005E-01 5.036780181E-01 -2.471528646E-01
 6.466913234E-01 6.024630084E-02 -4.667251567E-01
 6.559375562E-01 7.611944302E-02 -4.403868424E-01
 3.637730700E-01 6.864572061E-02 -5.191583177E-01
 5.511302316E-01 6.618615892E-02 -5.947801046E-01
 5.529781441E-01 8.169325161E-02 -5.764317459E-01
 5.733386061E-01 7.821624966E-02 -5.566738115E-01
 5.973984146E-01 8.389080047E-02 -5.242909325E-01
 5.657964192E-01 1.042509532E-01 -5.342363552E-01
 1.175523351E-01 2.354149247E-01 -9.827777452E-02
 6.847683286E-02 1.513944694E-01 -2.635421017E-02
 1.003376074E-01 1.060701436E-01 -1.535389914E-01
 4.865883240E-02 9.348400495E-02 2.913549292E-03
 2.635987485E-02 2.396837225E-02 1.668859176E-02
 3.467933470E-02 2.930471260E-02 -3.780829757E-02
 -7.222066806E-03 1.252293608E-01 1.820530504E-01
 2.642971598E-03 7.722974239E-02 2.158025269E-01
 9.372352191E-03 1.525565674E-02 1.314492562E-01
 8.258555883E-02 7.595013163E-02 -1.327200267E-01
 7.395310714E-02 4.187271794E-02 -1.679665291E-01
 8.535211721E-02 4.465898299E-02 -1.881853840E-01
 1.118911011E-01 7.811461086E-02 -2.035970707E-01
 1.365703684E-01 5.058768239E-02 -2.867257797E-01
 1.212419632E-01 5.816469155E-02 -2.464229199E-01
 1.522924233E-01 5.284921594E-02 -3.049567839E-01
 1.585060795E-01 6.784080223E-02 -2.984373355E-01
 1.745325276E-01 6.910720027E-02 -3.188986857E-01
 1.933538306E-01 7.676449731E-02 -3.341461657E-01
 2.172217196E-01 7.802832681E-02 -3.625943682E-01
 1.637077576E-01 9.084992225E-02 -2.781331128E-01
 2.410623422E-01 9.211779521E-02 -3.726598424E-01
 2.526664506E-01 7.038960588E-02 -4.110879914E-01
 1.367989442E-01 7.009952018E-02 -2.637922303E-01
 3.231428439E-02 6.432398362E-02 4.250518404E-02
 5.620567868E-02 6.383146929E-02 -7.590080747E-02
 2.226619133E-01 6.194167410E-02 -3.853619655E-01
 6.232274102E-01 6.187102859E-02 -5.023037848E-01
 1.052250439E-02 4.659875364E-02 2.485022838E-01
 -2.796003632E-02 4.003480407E-02 4.944047023E-01
 2.618884136E-01 -2.141968621E-01 -2.739777904E-01
 3.639774666E-01 -6.404592449E-02 -5.678705820E-01
 1.988261804E-01 5.912260992E-02 -3.601827006E-01
 2.563536967E+00 2.040695529E-01 2.682093724E-04
 4.130499794E-01 7.124289330E-02 -5.621842661E-01
 3.888622349E-01 7.159386040E-02 -5.443463226E-01
 -2.476832446E-04 2.195414298E-01 7.916173810E-02
 3.918961385E-02 4.389976729E-02 -2.323540298E-02
 2.328198458E-01 -7.800424365E-02 -3.809981164E-01
 1.325790162E-01 -5.112390995E-02 -2.717436822E-01
 7.717424664E-01 -2.958272061E-02 1.998525693E-01
 7.597293260E-01 -4.177006074E-02 1.796193767E-01
 1.556486667E+00 -5.999561189E-02 2.453724375E-02
 6.952990669E-01 5.830605508E-02 -3.950330409E-01
 7.374885605E-01 -3.838894195E-02 1.522310498E-01
 1.191274401E+00 -3.755999370E-01 7.715547018E-02
 8.745187818E-01 -8.678764381E-02 2.411806411E-01
 1.328968268E-01 9.793531247E-02 -2.291462427E-01
 6.718578845E-01 6.822798808E-02 -4.229060295E-01
 6.890555112E-01 7.270680357E-02 -3.961276491E-01
 7.215345462E-01 7.067241434E-02 -3.460086882E-01
 7.467988329E-01 6.895021554E-02 -3.122036571E-01
 9.913987565E-01 -7.048293418E-01 2.217264077E-02
 5.277573834E-01 8.205126071E-02 -5.933251885E-01
 5.064851165E-01 8.545897451E-02 -5.889547928E-01
 2.888628742E-01 6.528402731E-02 -4.519357225E-01
 1.155215488E+00 3.866290521E-01 -2.060991808E-02
 7.474060969E-01 -2.615633686E-02 1.715655773E-01
 7.047793309E-01 6.933197306E-02 -3.747057681E-01
 2.920931869E-01 -6.450910675E-02 -4.832174477E-01
 8.060143073E-01 6.503377493E-02 -2.399157256E-01
 7.756976541E-01 6.099054553E-02 -2.807968293E-01
 4.352918303E-02 3.218711397E-02 -8.281380670E-02
 9.561300851E-02 5.872440147E-02 -1.909719721E-01
 5.998112808E-01 6.431730687E-02 -5.370300348E-01
 5.742108488E-01 6.469276309E-02 -5.689453895E-01
 7.441708906E-01 5.186720881E-02 -3.258588341E-01
 -6.862629275E-03 3.121797564E-02 3.931760842E-01
 1.022040795E-03 9.313540311E-03 5.772987888E-01
 3.198198717E-01 -6.774482796E-02 -5.163339463E-01
 -4.815095404E-02 8.145776256E-02 3.348485541E-01
 1.752905328E+00 -2.363499978E-01 2.120239163E-02
 3.163932622E-01 1.094470941E-01 -4.415363272E-01
 5.266798009E-01 6.646980724E-02 -6.104470134E-01
 9.868361253E-01 5.417413538E-01 -9.161356720E-02