TITLE     = "Visualization of the solution"
VARIABLES = "x"
"y"
"Pressure_Coefficient"
ZONE T="Zone"
 STRANDID=0, SOLUTIONTIME=0
 Nodes=666, Elements=1117, ZONETYPE=FEQuadrilateral
 DATAPACKING=POINT
 DT=(DOUBLE DOUBLE DOUBLE )
 9.997309446E-01 5.144490278E-04 3.283089799E-01
 9.882966876E-01 2.898328006E-03 3.070549200E-01
 9.759122133E-01 5.438028369E-03 2.102783042E-01
 9.593397379E-01 8.928896859E-03 1.402462067E-01
 9.444205761E-01 1.205459051E-02 8.047729815E-02
 9.301496744E-01 1.506926306E-02 3.623662044E-02
 9.182255268E-01 1.747689396E-02 4.939664567E-03
 9.069877267E-01 1.976229809E-02 -3.396193766E-02
 8.953006864E-01 2.209079452E-02 -6.645329409E-02
 8.837718964E-01 2.433348447E-02 -9.463292288E-02
 8.718194962E-01 2.661751211E-02 -1.218329504E-01
 8.594006300E-01 2.893616818E-02 -1.485881232E-01
 8.472239971E-01 3.115328215E-02 -1.753484410E-01
 8.366558552E-01 3.304480761E-02 -2.016207738E-01
 8.250555396E-01 3.506330028E-02 -2.244877885E-01
 8.126341701E-01 3.717039526E-02 -2.408656955E-01
 7.997852564E-01 3.925750405E-02 -2.634766146E-01
 7.870872617E-01 4.133867100E-02 -2.925760856E-01
 7.744901776E-01 4.331749305E-02 -3.137447853E-01
 7.627780437E-01 4.510680586E-02 -3.368289447E-01
 7.495187521E-01 4.710305855E-02 -3.621971680E-01
 7.358713150E-01 4.908433184E-02 -3.893567849E-01
 7.250887752E-01 5.063276365E-02 -4.088451355E-01
 7.137615681E-01 5.217054486E-02 -4.353393138E-01
 7.021702528E-01 5.376944691E-02 -4.660643996E-01
 6.890228391E-01 5.545831472E-02 -4.916640504E-01
 6.762827039E-01 5.704887584E-02 -5.163354116E-01
 6.656593084E-01 5.830542371E-02 -5.363938540E-01
 6.540020108E-01 5.964612588E-02 -5.609864701E-01
 6.419633031E-01 6.096724048E-02 -5.948528324E-01
 6.301507950E-01 6.222184002E-02 -6.303718632E-01
 6.182379127E-01 6.340062618E-02 -6.601049253E-01
 6.077801585E-01 6.438549608E-02 -6.821378420E-01
 5.954585671E-01 6.544988602E-02 -7.091480346E-01
 5.841088295E-01 6.639395654E-02 -7.390399794E-01
 5.708555579E-01 6.740166992E-02 -7.627322763E-01
 5.585373640E-01 6.825606525E-02 -7.759182155E-01
 5.463473797E-01 6.900930405E-02 -7.825013384E-01
 5.354548097E-01 6.962656230E-02 -7.851100537E-01
 5.239254236E-01 7.020908594E-02 -7.811476074E-01
 5.118894577E-01 7.073187828E-02 -7.764305609E-01
 5.007797480E-01 7.115501165E-02 -7.696553281E-01
 4.877435863E-01 7.157368213E-02 -7.607543085E-01
 4.744551480E-01 7.191596180E-02 -7.444037634E-01
 4.609492123E-01 7.214614749E-02 -7.315558869E-01
 4.480013847E-01 7.232353091E-02 -7.233098392E-01
 4.356902242E-01 7.240224630E-02 -7.093783872E-01
 4.234446883E-01 7.241070271E-02 -6.925864720E-01
 4.110535681E-01 7.233249396E-02 -6.777873632E-01
 3.989391327E-01 7.221264392E-02 -6.651809651E-01
 3.869209886E-01 7.201109827E-02 -6.520270577E-01
 3.752530217E-01 7.176082581E-02 -6.405189209E-01
 3.623015881E-01 7.141643763E-02 -6.273852363E-01
 3.494264185E-01 7.098585367E-02 -6.125279085E-01
 3.361719847E-01 7.046131045E-02 -6.025120068E-01
 3.250479400E-01 6.996809691E-02 -5.936630374E-01
 3.122049272E-01 6.933093816E-02 -5.831323883E-01
 2.994748950E-01 6.861113012E-02 -5.687467357E-01
 2.855449915E-01 6.772981584E-02 -5.563905786E-01
 2.735617459E-01 6.690008193E-02 -5.421043764E-01
 2.616873980E-01 6.599283963E-02 -5.276423413E-01
 2.492719293E-01 6.498193741E-02 -5.124722711E-01
 2.370197922E-01 6.388610601E-02 -4.961673173E-01
 2.245998830E-01 6.269533187E-02 -4.830956841E-01
 2.124939263E-01 6.145298108E-02 -4.663862597E-01
 2.002136111E-01 6.007526815E-02 -4.473117622E-01
 1.877073497E-01 5.858600885E-02 -4.312513726E-01
 1.756885946E-01 5.705387145E-02 -4.136783762E-01
 1.641798615E-01 5.548422411E-02 -3.957341912E-01
 1.520958096E-01 5.373209342E-02 -3.791345402E-01
 1.411290318E-01 5.202214420E-02 -3.593068249E-01
 1.291776150E-01 5.004310608E-02 -3.427769594E-01
 1.178607792E-01 4.803686962E-02 -3.223547939E-01
 1.072220951E-01 4.601767287E-02 -3.026352830E-01
 9.713417292E-02 4.397975281E-02 -2.785868716E-01
 8.612130582E-02 4.158886522E-02 -2.496398862E-01
 7.468207926E-02 3.891037405E-02 -2.111425306E-01
 6.457317621E-02 3.633047640E-02 -1.671130294E-01
 5.469629169E-02 3.359832615E-02 -1.275912211E-01
 4.609951749E-02 3.101172484E-02 -9.673156231E-02
 3.869377822E-02 2.857197635E-02 -5.896991128E-02
 3.201486543E-02 2.617593855E-02 -2.350653037E-02
 2.630937845E-02 2.394735627E-02 1.740620438E-02
 2.210237831E-02 2.215521038E-02 5.618641274E-02
 1.809590682E-02 2.030947991E-02 1.018908272E-01
 1.475566067E-02 1.862525381E-02 1.055921563E-01
 1.166971866E-02 1.692546904E-02 1.245372758E-01
 9.432159364E-03 1.557436213E-02 1.715005840E-01
 7.487645373E-03 1.429815777E-02 2.864606285E-01
 5.750987213E-03 1.303792279E-02 3.032686535E-01
 3.522763494E-03 1.120333560E-02 3.451749072E-01
 1.643927535E-03 9.339896031E-03 6.429732925E-01
 1.485228131E-04 7.450217381E-03 5.724514988E-01
 -1.290329499E-03 4.695453215E-03 1.016057448E+00
 -1.777192578E-03 2.683131490E-03 9.135755358E-01
 -1.825089101E-03 1.042511314E-03 9.136493879E-01
 -1.557299984E-03 -6.122933119E-04 7.349349836E-01
 -1.011048676E-03 -2.196784131E-03 9.532838586E-01
 3.714423656E-05 -4.136019852E-03 5.897121033E-01
 1.515389653E-03 -6.097056437E-03 4.715422294E-01
 3.449863754E-03 -8.092417382E-03 3.522780216E-01
 5.268260837E-03 -9.658560157E-03 2.998467522E-01
 7.301741280E-03 -1.118199248E-02 1.775330445E-01
 9.043096565E-03 -1.235445123E-02 1.592503544E-01
 1.118104346E-02 -1.366758905E-02 1.313167292E-01
 1.354391780E-02 -1.499160752E-02 7.725147831E-02
 1.684283838E-02 -1.666962169E-02 9.073072732E-03
 1.974900626E-02 -1.802173629E-02 -4.429698821E-02
 2.350796759E-02 -1.961925067E-02 -7.670838509E-02
 2.873594128E-02 -2.164168097E-02 -9.076627631E-02
 3.440342098E-02 -2.362269908E-02 -1.168451207E-01
 4.111444578E-02 -2.574330196E-02 -1.299569898E-01
 4.862535745E-02 -2.789275162E-02 -1.593973842E-01
 5.760149658E-02 -3.023095056E-02 -1.830485070E-01
 6.630208343E-02 -3.229633719E-02 -2.110592555E-01
 7.638197392E-02 -3.450638428E-02 -2.267967586E-01
 8.631889522E-02 -3.650558740E-02 -2.478217309E-01
 9.653813392E-02 -3.842781484E-02 -2.672154026E-01
 1.077292114E-01 -4.038614407E-02 -2.832305464E-01
 1.189867705E-01 -4.222458974E-02 -3.059684646E-01
 1.309114397E-01 -4.404228181E-02 -3.287395929E-01
 1.416941583E-01 -4.557975754E-02 -3.494513647E-01
 1.530821621E-01 -4.711764306E-02 -3.680452215E-01
 1.652581245E-01 -4.864863679E-02 -3.884783236E-01
 1.768167466E-01 -5.001328513E-02 -4.079074171E-01
 1.887145638E-01 -5.132817850E-02 -4.284615543E-01
 1.997078806E-01 -5.245695263E-02 -4.477619292E-01
 2.109914273E-01 -5.354948342E-02 -4.674300352E-01
 2.231558412E-01 -5.463523045E-02 -4.868837871E-01
 2.355203480E-01 -5.564256012E-02 -5.072972674E-01
 2.477067411E-01 -5.653908849E-02 -5.243908603E-01
 2.597633600E-01 -5.733387917E-02 -5.427610663E-01
 2.710561454E-01 -5.800106376E-02 -5.622624196E-01
 2.833262980E-01 -5.862136185E-02 -5.812042998E-01
 2.954220176E-01 -5.913410336E-02 -5.979201309E-01
 3.081309497E-01 -5.955687910E-02 -6.138831045E-01
 3.201745749E-01 -5.985911936E-02 -6.300655081E-01
 3.329842687E-01 -6.006659567E-02 -6.481557716E-01
 3.439576626E-01 -6.013178080E-02 -6.616157026E-01
 3.554758430E-01 -6.010106578E-02 -6.658935679E-01
 3.663241267E-01 -5.998505279E-02 -6.704755445E-01
 3.772740066E-01 -5.974918604E-02 -6.693011758E-01
 3.892154694E-01 -5.939349905E-02 -6.590795684E-01
 4.026870131E-01 -5.884600058E-02 -6.378355778E-01
 4.152816236E-01 -5.819389969E-02 -6.081870371E-01
 4.279051423E-01 -5.741950125E-02 -5.718604509E-01
 4.402110279E-01 -5.652305484E-02 -5.319942914E-01
 4.518583119E-01 -5.558647960E-02 -4.931433478E-01
 4.637241066E-01 -5.453994870E-02 -4.594600303E-01
 4.759773016E-01 -5.334204063E-02 -4.239428906E-01
 4.877517223E-01 -5.210049078E-02 -3.832643756E-01
 5.005664229E-01 -5.067163333E-02 -3.428712621E-01
 5.143339038E-01 -4.907155409E-02 -3.058128292E-01
 5.273767710E-01 -4.744974896E-02 -2.679482629E-01
 5.403665900E-01 -4.578264803E-02 -2.289209862E-01
 5.527470112E-01 -4.415490851E-02 -1.956625107E-01
 5.665408373E-01 -4.228052124E-02 -1.600303519E-01
 5.791329741E-01 -4.052237421E-02 -1.254507080E-01
 5.917388201E-01 -3.879702836E-02 -9.919603127E-02
 6.047789454E-01 -3.692427278E-02 -7.088287983E-02
 6.195930243E-01 -3.483768925E-02 -4.057436237E-02
 6.339368224E-01 -3.278828412E-02 -1.473799461E-02
 6.490138173E-01 -3.060721792E-02 1.465365831E-02
 6.617457271E-01 -2.879763581E-02 3.984241721E-02
 6.749413610E-01 -2.690705098E-02 6.040344639E-02
 6.873446703E-01 -2.513974532E-02 8.232230921E-02
 6.996763945E-01 -2.341310680E-02 1.022109497E-01
 7.143229246E-01 -2.138346061E-02 1.206823438E-01
 7.275895476E-01 -1.956098154E-02 1.393880399E-01
 7.395113707E-01 -1.790057868E-02 1.608003320E-01
 7.534540296E-01 -1.604368910E-02 1.818914833E-01
 7.658938169E-01 -1.443453878E-02 1.967462634E-01
 7.797517180E-01 -1.266445592E-02 2.139293924E-01
 7.919068336E-01 -1.116764639E-02 2.308579388E-01
 8.050237298E-01 -9.589998052E-03 2.436277016E-01
 8.155993819E-01 -8.301529102E-03 2.661177195E-01
 8.271927834E-01 -7.018113509E-03 2.819140469E-01
 8.400763869E-01 -5.634857807E-03 2.942210162E-01
 8.526162505E-01 -4.390350077E-03 3.103186807E-01
 8.649773598E-01 -3.261225997E-03 3.227792389E-01
 8.760207295E-01 -2.334988676E-03 3.333043688E-01
 8.872215748E-01 -1.479848521E-03 3.438285997E-01
 8.998851180E-01 -6.497619906E-04 3.536857121E-01
 9.099700451E-01 -9.060568118E-05 3.620289956E-01
 9.206097126E-01 3.859262797E-04 3.658642666E-01
 9.305563569E-01 7.208444295E-04 3.671411761E-01
 9.396107197E-01 9.465847979E-04 3.666080288E-01
 9.507918954E-01 1.120845322E-03 3.684814575E-01
 9.629708529E-01 1.176660298E-03 3.666682563E-01
 9.764773250E-01 1.081732102E-03 3.716464683E-01
 9.886326790E-01 8.560698479E-04 3.678748318E-01
 -5.000000000E-01 -1.000000000E+00 5.511961861E-02
 3.500000000E+00 -1.000000000E+00 1.336963991E-02
 3.500000000E+00 1.000000000E+00 -1.191371543E-03
 -5.000000000E-01 1.000000000E+00 5.333981090E-02
 -5.000000000E-01 5.000000000E-01 1.100801055E-01
 -5.000000000E-01 2.752797990E-12 1.638045520E-01
 -5.000000000E-01 -5.000000000E-01 1.086841456E-01
 -9.421907698E-13 -1.000000000E+00 3.081020890E-02
 5.000000000E-01 -1.000000000E+00 -2.054970609E-02
 1.000000000E+00 -1.000000000E+00 -1.740342836E-03
 1.500000000E+00 -1.000000000E+00 3.415708410E-02
 2.000000000E+00 -1.000000000E+00 3.109819569E-02
 2.500000000E+00 -1.000000000E+00 2.097548363E-02
 3.000000000E+00 -1.000000000E+00 1.493499864E-02
 3.500000000E+00 -5.000000000E-01 1.302230460E-02
 3.500000000E+00 -2.752797990E-12 1.061778595E-02
 3.500000000E+00 5.000000000E-01 4.756413970E-03
 3.000000000E+00 1.000000000E+00 -8.065900749E-03
 2.500000000E+00 1.000000000E+00 -1.799849872E-02
 2.000000000E+00 1.000000000E+00 -3.676382493E-02
 1.500000000E+00 1.000000000E+00 -8.207426819E-02
 1.000000000E+00 1.000000000E+00 -1.478839239E-01
 5.000000000E-01 1.000000000E+00 -9.695155777E-02
 1.733724275E-12 1.000000000E+00 1.699963106E-02
 6.828720071E-01 -4.027610368E-02 6.910546873E-02
 7.887539464E-01 -2.206294456E-02 2.215501160E-01
 9.061072949E-01 -7.999201171E-03 3.489647871E-01
 5.877742171E-01 -5.030487983E-02 -1.112420906E-01
 4.936546366E-01 -6.258957815E-02 -3.567388993E-01
 6.840120417E-01 6.876973631E-02 -4.925370248E-01
 2.755498349E-01 -7.074704709E-02 -5.477193051E-01
 9.142332961E-01 3.228794346E-02 -1.111387506E-02
 2.942153955E-01 8.194066656E-02 -5.475320985E-01
 7.843764097E-01 6.029702174E-02 -2.872888133E-01
 1.838381208E-01 -6.458297674E-02 -4.045374482E-01
 1.932091561E-01 7.194378436E-02 -4.208692704E-01
 3.724230347E-01 -7.232966386E-02 -6.464164467E-01
 5.913882209E-01 7.872775015E-02 -7.077807918E-01
 4.155096348E-01 8.870095986E-02 -6.632083871E-01
 1.788695558E+00 -5.286464297E-01 3.034634909E-02
 1.773423643E+00 5.287581520E-01 -1.530863140E-02
 3.031170185E+00 2.156865576E-01 4.507727649E-03
 7.510833286E-01 -6.420735413E-01 -6.442594661E-03
 3.312975826E-01 -6.139244793E-01 -8.557477867E-02
 7.350808706E-01 6.568139197E-01 -2.223507494E-01
 4.933265762E-01 8.356298973E-02 -7.469226404E-01
 2.877791057E-01 6.666138620E-01 -1.053122234E-01
 2.734860945E+00 -5.326785596E-01 1.250980061E-02
 1.214083213E+00 6.889822453E-01 -7.499849313E-02
 9.848888223E-01 3.006141078E-01 -4.304796720E-02
 8.425536984E-01 4.194803844E-02 -1.842667492E-01
 1.260480027E+00 -6.300199115E-01 5.204017127E-02
 1.537406268E+00 -2.912813921E-01 3.895694656E-02
 2.241005130E+00 -5.768158690E-01 1.813970810E-02
 2.025802110E+00 -1.911944563E-01 1.274180380E-02
 2.420252152E+00 -1.842753258E-01 8.259728874E-03
 2.184663604E+00 1.583286220E-01 7.169621360E-05
 1.813303156E+00 1.150708247E-01 3.515923418E-03
 -2.708151826E-01 -2.370436575E-01 1.767162442E-01
 1.037947951E-01 -5.140905146E-02 -2.570748959E-01
 -1.037844597E-01 -6.066997042E-01 4.711412731E-02
 1.091222511E-01 -3.531982134E-01 -4.673090574E-02
 -2.611928902E-01 1.889213231E-01 1.822335663E-01
 1.109782208E-01 5.606230880E-02 -2.869061606E-01
 -6.689815545E-02 6.047088974E-01 2.853853700E-02
 9.857283066E-02 3.755604360E-01 -4.444323727E-02
 2.191299647E+00 6.008779625E-01 -1.232635503E-02
 2.738045456E+00 6.037993225E-01 -4.623447170E-03
 -2.444541977E-01 -1.038040022E-02 2.353911456E-01
 -1.195313518E-01 -1.431864103E-01 2.370917895E-01
 5.062726221E-02 -3.659852453E-02 -1.191136849E-01
 -7.260902692E-02 -3.062704092E-01 1.086403182E-01
 1.243730011E-03 -1.707284462E-01 1.247717033E-01
 1.656241231E-01 -2.160630652E-01 -1.915865585E-01
 2.276140642E-01 -7.038206840E-02 -4.713766774E-01
 -3.492318136E-02 -9.831691513E-02 3.174201808E-01
 2.306369146E-02 -2.495495951E-02 -1.582415804E-02
 -1.087473217E-01 -2.080470876E-02 3.894685554E-01
 3.985465462E-02 -1.110749218E-01 6.463982518E-02
 3.109367772E+00 -2.612634365E-01 1.054111225E-02
 -2.281317134E-02 -7.917185131E-03 7.977250910E-01
 8.031561321E-03 -7.207324188E-02 1.362509101E-01
 -1.971305620E-03 -2.651611492E-02 3.359352491E-01
 1.041636981E-02 -1.892970337E-02 2.146192001E-01
 2.553605325E+00 2.129671863E-01 -4.455549929E-04
 4.984626989E-02 -7.516675934E-02 -2.527755207E-02
 6.917650152E-02 -4.182779668E-02 -1.982177180E-01
 8.933503161E-02 -9.718154434E-02 -1.458598586E-01
 1.420671091E-01 -5.724477681E-02 -3.334552301E-01
 1.227340918E-01 -5.619266825E-02 -2.947327005E-01
 1.107205514E-01 -7.465930896E-02 -2.384947087E-01
 8.262782003E-02 -6.702676320E-02 -1.711181488E-01
 1.274423435E-01 -9.730403947E-02 -2.574424489E-01
 1.316935356E-01 -7.340496076E-02 -2.885577224E-01
 1.558439017E-01 -7.851499282E-02 -3.297217489E-01
 1.659587890E-01 -1.138796831E-01 -3.139012405E-01
 1.103815640E-01 -1.441518604E-01 -1.471921271E-01
 2.432732091E-01 -1.687805721E-01 -3.636478154E-01
 3.272424963E-01 -7.336010957E-02 -6.138541172E-01
 2.381631443E-01 -2.672554461E-01 -2.460270638E-01
 3.305786180E-01 -1.984147017E-01 -4.031120665E-01
 4.343331812E-01 -6.988613595E-02 -5.286125562E-01
 4.106963130E-01 -7.073784635E-02 -5.938900700E-01
 4.598590739E-01 -6.350633913E-02 -4.566359935E-01
 3.387087523E-01 -3.006132560E-01 -2.771922359E-01
 4.312128714E-01 -2.352646788E-01 -3.217504679E-01
 4.483104871E-01 -3.386847982E-01 -2.325555157E-01
 5.513438355E-01 -2.778303999E-01 -1.528532572E-01
 5.253024881E-01 -1.716089453E-01 -2.232464189E-01
 5.479664644E-01 -5.569053750E-02 -2.032801236E-01
 5.210550953E-01 -6.548338503E-02 -2.777789433E-01
 6.197710987E-01 -1.995086274E-01 -5.005285764E-02
 6.276236250E-01 -4.798407868E-02 -2.641153850E-02
 4.431353887E-01 -1.515225111E-01 -3.882255620E-01
 5.944114723E-01 -1.306477980E-01 -9.541605878E-02
 6.697109753E-01 -1.286557803E-01 2.122233525E-02
 7.345436259E-01 -3.541474525E-02 1.456650562E-01
 7.129067815E-01 -2.087450781E-01 5.683108251E-02
 8.469609055E-01 -1.851511874E-02 2.910221150E-01
 8.231896166E-01 -2.251580821E-02 2.636338643E-01
 8.710686305E-01 -1.081359465E-02 3.207288777E-01
 7.415633911E-01 -1.342857350E-01 1.104157026E-01
 7.943934756E-01 -1.977622204E-01 1.318465848E-01
 9.705927539E-01 -1.084464001E-02 3.515122581E-01
 9.453378802E-01 -7.729272240E-03 3.586242331E-01
 7.061011549E-01 -8.576532843E-02 8.676908026E-02
 7.077743986E-01 -3.597246544E-02 1.066090947E-01
 7.537674025E-01 -8.118401155E-02 1.487250557E-01
 8.015595376E-01 -1.135939938E-01 1.771967217E-01
 8.667259592E-01 -1.552225698E-01 1.900088681E-01
 8.727732424E-01 -2.388259574E-01 1.476139877E-01
 9.646496261E-01 -2.048330941E-01 1.801475496E-01
 9.557730422E-01 -3.275248324E-01 1.256943018E-01
 1.082531164E+00 -2.533892756E-01 1.314532169E-01
 1.107668900E+00 -1.274629156E-01 1.530475793E-01
 7.595254090E-01 -2.495330937E-02 1.839971070E-01
 8.766055836E-01 -9.232361716E-02 2.447974801E-01
 8.053955885E-01 -3.126897748E-01 8.310555866E-02
 1.199865362E+00 -1.849826440E-01 1.076422891E-01
 1.219773090E+00 -6.618034320E-02 9.341936010E-02
 9.848455361E-01 -1.075736197E-01 2.353071697E-01
 8.245315573E-01 -6.785032167E-02 2.268506262E-01
 2.958202699E-01 -1.350776002E-01 -4.686501251E-01
 3.674324537E-01 -1.410178524E-01 -5.049109217E-01
 4.940713392E-01 -1.212627460E-01 -3.137252913E-01
 6.641581081E-01 -8.569750979E-02 2.667550962E-02
 6.559900019E-01 -4.377001563E-02 2.375528780E-02
 1.100834105E+00 -1.852006800E-02 1.439230974E-01
 1.198783284E+00 7.629926813E-02 8.458293997E-02
 1.364975931E+00 2.209959724E-02 4.428706392E-02
 1.323339543E+00 2.251045049E-01 3.216566000E-02
 1.091613824E+00 8.366620074E-02 1.276054690E-01
 9.702128632E-01 1.949227641E-02 1.548085260E-01
 2.149446264E-01 -1.164514389E-01 -3.881076210E-01
 2.612571795E-01 -1.089370982E-01 -4.651015034E-01
 2.526291952E-01 -7.110175289E-02 -5.108523309E-01
 3.336952019E-01 -1.131070089E-01 -5.438772444E-01
 3.502375477E-01 -7.289659440E-02 -6.375720558E-01
 4.587822977E-01 -1.066155189E-01 -4.061625121E-01
 2.985266599E-01 -1.003384233E-01 -5.279327283E-01
 3.005692129E-01 -7.613212689E-02 -5.747343229E-01
 7.301120898E-01 -6.163826815E-02 1.260715150E-01
 1.268414425E+00 -3.438240303E-01 7.219926978E-02
 3.957265283E-01 -7.190414909E-02 -6.238146782E-01
 4.053772071E-01 -8.875968330E-02 -5.760942718E-01
 3.859134155E-01 -8.339286737E-02 -6.161761966E-01
 3.624646656E-01 -8.802968608E-02 -6.041904994E-01
 3.917111377E-01 -1.097279447E-01 -5.617608325E-01
 4.236404915E-01 -8.278827135E-02 -5.397447461E-01
 5.716832973E-01 -4.365481635E-01 -9.589899345E-02
 7.478878121E-01 -2.752257133E-02 1.691949578E-01
 7.586677047E-01 -4.361914958E-02 1.706810231E-01
 7.880934173E-01 -6.189030355E-02 1.982768176E-01
 8.104536713E-01 -3.970878426E-02 2.347419349E-01
 8.355491005E-01 -3.673448842E-02 2.647075955E-01
 8.766777859E-01 -4.892796245E-02 2.862780322E-01
 9.104201252E-01 -6.959744065E-02 2.817328317E-01
 9.089261419E-01 -3.934814013E-02 3.135985165E-01
 9.384900779E-01 -4.461361767E-02 3.120089164E-01
 9.256336394E-01 -2.152305418E-02 3.414269696E-01
 8.908755706E-01 -2.562668040E-02 3.190032039E-01
 9.255517728E-01 -7.197849038E-03 3.561839945E-01
 8.002115493E-01 -2.733864459E-02 2.281708946E-01
 9.252501815E-01 -1.228922231E-01 2.399035354E-01
 9.560472360E-01 -1.029404229E-02 3.532207979E-01
 9.602916703E-01 -2.623375348E-02 3.393275039E-01
 9.813068949E-01 -2.547942907E-02 3.136958161E-01
 9.686208992E-01 -5.640448846E-02 2.933272142E-01
 1.000747110E+00 -5.339268228E-02 2.778655292E-01
 4.822974375E-01 -9.131535576E-02 -3.584551394E-01
 5.148673995E-01 -9.221423834E-02 -2.832798564E-01
 4.830826173E-01 -7.230922081E-02 -3.812475393E-01
 6.411624157E-01 -4.344820283E-02 -1.500699819E-03
 6.428980290E-01 -6.255966136E-02 -2.459579948E-03
 6.158420619E-01 -6.635388218E-02 -5.490104995E-02
 6.730018095E-01 -5.928716306E-02 4.865394909E-02
 7.003819108E-01 -5.342539119E-02 9.117742422E-02
 6.280564109E-01 -9.411953531E-02 -3.357869750E-02
 1.847035679E-01 -8.537698985E-02 -3.814611143E-01
 2.038056670E-01 -6.600102980E-02 -4.360177858E-01
 6.139592121E-01 -4.847032969E-02 -5.273714071E-02
 8.345937586E-01 -1.808367734E-02 2.785610540E-01
 9.156801200E-01 -8.565368158E-03 3.518220754E-01
 8.606637146E-01 -1.493657279E-02 3.074978769E-01
 8.575080437E-01 -3.416869406E-02 2.866020837E-01
 9.435132565E-01 -1.956688890E-02 3.392276392E-01
 7.204539944E-01 -3.206204929E-02 1.247244784E-01
 1.099571473E+00 -4.373015676E-01 8.727815045E-02
 4.223713503E-01 -6.780513092E-02 -5.692688610E-01
 9.350339376E-01 -9.058272522E-03 3.566576780E-01
 5.358897885E-01 -5.738940604E-02 -2.392611410E-01
 5.399185779E-01 -7.349375043E-02 -2.226638855E-01
 5.633002910E-01 -7.146611177E-02 -1.625420023E-01
 5.451414494E-01 -1.056684262E-01 -1.986886443E-01
 1.571972568E-01 -5.825542101E-02 -3.622568836E-01
 6.608292984E-01 -3.079523487E-01 -1.370137236E-02
 8.096941568E-01 -2.024992883E-02 2.477803271E-01
 8.818830606E-01 -1.220168567E-02 3.290742781E-01
 9.068391784E-01 -1.877690286E-02 3.361456681E-01
 2.109613746E-01 -8.663829239E-02 -4.257856357E-01
 2.388443827E-01 -8.671605674E-02 -4.675805760E-01
 2.624040322E-01 -8.148240941E-02 -5.113015240E-01
 8.954686329E-01 -1.112234677E-02 3.393280043E-01
 1.001967169E+00 -7.101891196E-01 4.793542894E-02
 1.131330046E+00 2.102515121E-01 5.306358187E-02
 8.722995545E-01 -2.335602863E-02 3.085083170E-01
 5.064765716E-01 -6.100333224E-02 -3.205308216E-01
 3.200621755E-02 -5.238320528E-02 2.496642163E-02
 3.605738961E-02 -3.006783828E-02 -7.903202396E-02
 1.651517804E-02 -3.885601074E-02 1.022433626E-01
 2.754453370E-02 -3.827883950E-02 6.323662792E-03
 7.741577244E-01 -2.467428320E-02 2.013644268E-01
 5.336123050E-01 -6.390118936E-01 -8.721037856E-02
 3.382402611E-01 -8.485071982E-02 -6.058361852E-01
 3.184169418E-01 -8.756086459E-02 -5.785595046E-01
 -1.055423269E-01 3.638265342E-01 1.082555760E-01
 3.387015412E-02 2.359302656E-01 4.652298495E-02
 2.975940389E-02 3.479712550E-02 -5.579844187E-03
 6.587823828E-02 5.060601549E-02 -1.289930383E-01
 1.678244699E-01 2.325104875E-01 -1.955004538E-01
 3.544458842E-01 8.355207319E-02 -6.046524776E-01
 3.290280931E-01 8.197786740E-02 -5.818700163E-01
 3.804422610E-01 8.693494150E-02 -6.271989028E-01
 2.432667086E-01 7.772933870E-02 -4.879905621E-01
 2.668983218E-01 7.955377315E-02 -5.180285351E-01
 2.182787630E-01 7.502135959E-02 -4.566347731E-01
 2.637839140E-01 3.148371683E-01 -2.827740906E-01
 3.202215142E-01 2.185303483E-01 -4.209485575E-01
 3.989439516E-01 2.822935196E-01 -4.394575377E-01
 4.023904069E-01 1.841497203E-01 -5.352316133E-01
 4.825456677E-01 2.418715475E-01 -5.369182154E-01
 5.438119433E-01 7.830893336E-02 -7.713467754E-01
 5.663431697E-01 8.053363905E-02 -7.531178867E-01
 4.559255727E-01 8.251145269E-02 -7.160766168E-01
 4.951142930E-01 3.278598505E-01 -4.582546839E-01
 5.812334428E-01 2.700543838E-01 -4.961442501E-01
 5.932193399E-01 1.833066673E-01 -5.870732260E-01
 6.363306680E-01 7.386841270E-02 -6.021668408E-01
 6.141772243E-01 7.612653473E-02 -6.547349069E-01
 6.670965924E-01 2.118436668E-01 -4.432918970E-01
 7.315960711E-01 6.365883144E-02 -3.913714092E-01
 7.081339150E-01 6.653319254E-02 -4.423144518E-01
 4.745597858E-01 1.597305369E-01 -6.287354219E-01
 2.321895136E-01 1.592847435E-01 -3.730511131E-01
 6.449883930E-01 1.466822991E-01 -5.241973217E-01
 7.232643861E-01 1.491407723E-01 -3.691093926E-01
 7.570799936E-01 2.280355568E-01 -2.883718653E-01
 8.088991137E-01 1.513477891E-01 -2.247497953E-01
 3.386711166E-01 1.576005215E-01 -5.037995446E-01
 1.002716757E-01 1.524002063E-01 -1.234992600E-01
 1.565364087E-01 6.850877424E-02 -3.611791698E-01
 1.312470803E-01 6.273069978E-02 -3.240697963E-01
 1.215224748E-01 7.943023063E-02 -2.731101082E-01
 1.765620656E-02 1.379856124E-01 1.086325382E-01
 7.669931121E-01 1.104658228E-01 -3.080490071E-01
 7.563948000E-01 6.057829837E-02 -3.423979020E-01
 8.230964284E-01 9.530982248E-02 -1.970214949E-01
 8.794893990E-01 3.994557699E-02 -1.002329248E-01
 8.807555203E-01 1.351533478E-01 -1.001709837E-01
 8.194908703E-01 4.783955688E-02 -2.250942368E-01
 8.580086055E-01 2.252966910E-01 -1.474710949E-01
 9.381685900E-01 1.859471180E-01 -3.520092177E-02
 9.570393640E-01 1.127335378E-01 2.532457381E-02
 5.928451333E-01 1.284343166E-01 -6.486871513E-01
 8.727872749E-01 8.576561654E-02 -1.165526157E-01
 4.265130165E-01 1.357289029E-01 -6.174675383E-01
 6.908587999E-01 1.105439603E-01 -4.491160708E-01
 7.988314645E-01 3.677357889E-01 -2.233430872E-01
 5.378082498E-01 1.446770181E-01 -6.721941274E-01
 9.178698942E-01 7.912658808E-02 -2.249280306E-02
 6.608713258E-02 9.742074337E-02 -8.641115928E-02
 9.470639618E-02 7.562786487E-02 -2.122137067E-01
 1.051142702E-01 1.014442785E-01 -2.026165116E-01
 1.432189471E-01 1.060212317E-01 -2.760279533E-01
 6.287085593E-01 1.069424317E-01 -5.926465871E-01
 6.577785751E-01 9.905537020E-02 -5.246949460E-01
 6.596659660E-01 7.517778278E-02 -5.380461551E-01
 5.592417287E-01 1.149935445E-01 -7.139454382E-01
 5.278481268E-01 1.045477438E-01 -7.306177291E-01
 5.171306635E-01 8.369729171E-02 -7.586111708E-01
 2.280517829E-02 8.170879186E-02 1.808955789E-01
 1.218752006E-02 2.166879802E-02 1.396820500E-01
 -3.558452573E-02 5.610295146E-02 4.613458173E-01
 -8.563327412E-02 1.775503796E-01 2.212697838E-01
 9.015937723E-02 5.578225245E-02 -2.267282540E-01
 7.366307627E-02 6.663707211E-02 -1.551540627E-01
 7.908077366E-01 8.719062305E-02 -2.687229192E-01
 9.638982641E-01 6.519401232E-02 7.884967210E-02
 9.453294532E-01 2.452461498E-02 8.570984753E-02
 9.312926877E-01 4.657322382E-02 3.383833561E-02
 9.025102096E-01 5.034452067E-02 -5.314991982E-02
 4.620095885E-01 1.210884904E-01 -6.711488195E-01
 6.058736934E-01 4.224417116E-01 -3.616891765E-01
 6.473724563E-01 7.130362835E-02 -5.711932404E-01
 6.759922413E-01 8.432178697E-02 -4.945847500E-01
 6.958455512E-01 7.962755126E-02 -4.591946740E-01
 7.180989970E-01 8.177702898E-02 -4.124818007E-01
 7.459029941E-01 8.039890639E-02 -3.557948926E-01
 5.050733451E-01 8.113416451E-02 -7.578761312E-01
 5.030100355E-01 9.526332739E-02 -7.356137864E-01
 4.811986675E-01 9.812361210E-02 -7.156009896E-01
 4.344146558E-01 1.035917885E-01 -6.655558226E-01
 4.977390757E-01 1.205717881E-01 -6.960879551E-01
 4.068859441E-01 1.113798270E-01 -6.259218463E-01
 3.972550748E-01 9.309225400E-02 -6.368159203E-01
 3.780438816E-01 1.085355479E-01 -6.008688413E-01
 7.812973282E-02 5.040176653E-02 -1.925723361E-01
 6.723224523E-01 6.872472112E-02 -5.150555213E-01
 5.212002666E-02 4.646872191E-02 -7.251231290E-02
 4.691152127E-01 8.496135880E-02 -7.235903511E-01
 8.920052198E-01 3.349829304E-02 -7.303882173E-02
 4.440788607E-01 8.591236189E-02 -7.006201662E-01
 5.336369744E-01 8.360578025E-02 -7.642353831E-01
 7.193358653E-01 6.295447229E-02 -4.166103269E-01
 7.290236578E-01 1.064652981E-01 -3.758423105E-01
 3.669460575E-01 8.259327722E-02 -6.193423501E-01
 8.516638914E-01 6.862213358E-02 -1.597741928E-01
 4.306276128E-01 8.460361186E-02 -6.861122658E-01
 6.259386777E-01 8.627424646E-02 -6.166978985E-01
 6.055299143E-01 9.238063855E-02 -6.603310672E-01
 5.781560151E-01 9.544625208E-02 -7.130260268E-01
 5.517807085E-01 9.078471055E-02 -7.474686421E-01
 5.344427582E-02 6.552796773E-02 -5.581209572E-02
 3.453538478E-02 5.348425705E-02 9.886260713E-04
 9.263882629E-03 3.718904425E-02 3.688715293E-01
 7.691059587E-01 7.568806994E-02 -3.114416451E-01
 8.081825589E-01 6.416132385E-02 -2.425986230E-01
 3.936910990E-01 8.129218466E-02 -6.483555873E-01
 5.781482731E-01 7.773155578E-02 -7.377489272E-01
 3.874990972E-01 1.392886558E-01 -5.725631421E-01
 3.469801477E-01 1.191091268E-01 -5.543133610E-01
 3.028090256E-01 1.283603043E-01 -5.064726425E-01
 2.659722826E-01 1.219619235E-01 -4.688564104E-01
 3.206029873E-01 1.030960952E-01 -5.493530663E-01
 3.117129707E-01 8.726935718E-02 -5.608076042E-01
 2.955611719E-01 1.025643248E-01 -5.244285060E-01
 2.760326745E-01 9.368221295E-02 -5.134474274E-01
 5.026537193E-01 6.295986302E-01 -2.448215496E-01
 2.532238805E-01 9.532476317E-02 -4.810988061E-01
 2.240669354E-01 1.139942737E-01 -4.130710183E-01
 1.757221325E-01 1.452498146E-01 -3.039031815E-01
 1.856026262E-01 1.065510669E-01 -3.626032633E-01
 2.835784709E-01 1.680646548E-01 -4.416726527E-01
 1.175347028E+00 4.088473847E-01 -7.603944777E-03
 1.436268183E+00 4.722345504E-01 -1.282438527E-02
 4.008318302E-01 4.466956236E-01 -3.109409938E-01
 7.438567865E-01 6.016468532E-02 -3.684379242E-01
 6.958369199E-01 6.483164835E-02 -4.714908638E-01
 3.841104909E-01 -6.935387308E-02 -6.468678549E-01
 1.437895623E-01 7.769976357E-02 -3.225057412E-01
 1.637192118E-01 8.582137707E-02 -3.514961017E-01
 2.062403355E-01 8.760449353E-02 -4.215349667E-01
 1.042256951E+00 -8.289789403E-02 2.091738080E-01
 6.956098763E-01 -3.564536249E-02 9.033272603E-02
 1.744114051E+00 -1.800819254E-01 1.946558233E-02
 6.163485330E-02 -5.413158548E-02 -1.181675065E-01
 3.146271102E-01 -7.064433248E-02 -6.018645187E-01
 4.247824838E-01 -1.103150310E-01 -4.908015457E-01
 1.544881174E+00 2.136591677E-01 1.310103008E-02
 9.469617163E-01 -8.739536787E-02 2.711536972E-01
 1.358068610E+00 -1.575802392E-01 6.453623528E-02
 2.872234614E-01 -6.972376652E-02 -5.673171377E-01
 2.809217301E-01 -8.456014523E-02 -5.343825761E-01
 9.847052331E-01 5.704989077E-01 -1.132687081E-01
 4.432781782E-01 -8.597697322E-02 -4.770333743E-01
 6.697101813E-01 -3.980759383E-02 4.813489029E-02
 3.384069017E-01 -7.035367954E-02 -6.324965608E-01
 5.534270016E-01 7.805708081E-02 -7.677096841E-01
 6.275252827E-02 -2.380823989E-01 7.281791374E-03
 -1.471224419E-01 7.827790903E-02 2.817355593E-01
 8.731874681E-01 5.800929841E-02 -1.124313719E-01
 8.594865654E-01 4.536864425E-02 -1.483848615E-01
 8.338133871E-01 5.824057340E-02 -1.963409427E-01
 4.811678381E-01 8.202752091E-02 -7.383545283E-01
 6.028668170E-01 7.541406111E-02 -6.813549108E-01
 3.133974596E+00 6.339745962E-01 -1.300384143E-03
 6.014583985E-01 -5.122782849E-02 -8.135244231E-02
 5.870951086E-01 -6.434436773E-02 -1.111362069E-01
 5.889744657E-01 -8.876668687E-02 -1.062029566E-01
 5.728778643E-01 -5.591092387E-02 -1.391214662E-01
 5.609933069E-01 -5.314797304E-02 -1.711260453E-01