TITLE     = "Visualization of the solution"
VARIABLES = "x"
"y"
"Pressure_Coefficient"
ZONE T="Zone"
 STRANDID=0, SOLUTIONTIME=0
 Nodes=700, Elements=1185, ZONETYPE=FEQuadrilateral
 DATAPACKING=POINT
 DT=(DOUBLE DOUBLE DOUBLE )
 9.997589588E-01 5.180374137E-04 2.920297586E-01
 9.861554503E-01 2.896244870E-03 2.252625219E-01
 9.737754464E-01 5.126416218E-03 1.442786032E-01
 9.586545229E-01 7.728507277E-03 8.766186687E-02
 9.447285533E-01 1.017110888E-02 4.699343673E-02
 9.313559532E-01 1.245322824E-02 4.759849814E-03
 9.202201366E-01 1.440542098E-02 -3.825729985E-02
 9.074236155E-01 1.655159146E-02 -7.502645309E-02
 8.955776095E-01 1.847991347E-02 -1.004411198E-01
 8.828079104E-01 2.044651844E-02 -1.265286338E-01
 8.704416752E-01 2.235266753E-02 -1.499286619E-01
 8.581728935E-01 2.412081324E-02 -1.712479977E-01
 8.458572030E-01 2.589288913E-02 -1.875820810E-01
 8.339008689E-01 2.749263681E-02 -1.955374495E-01
 8.220738769E-01 2.907814458E-02 -2.082328065E-01
 8.091778159E-01 3.075803444E-02 -2.234165650E-01
 7.962789536E-01 3.242395446E-02 -2.422668261E-01
 7.844582796E-01 3.390999138E-02 -2.557485975E-01
 7.720431685E-01 3.542054072E-02 -2.688934939E-01
 7.599319220E-01 3.687986359E-02 -2.803782988E-01
 7.469371557E-01 3.838966042E-02 -2.991899472E-01
 7.334398031E-01 3.997687995E-02 -3.193443707E-01
 7.224956751E-01 4.119103774E-02 -3.344467777E-01
 7.113898993E-01 4.242381081E-02 -3.522330120E-01
 6.996847987E-01 4.367255047E-02 -3.691525457E-01
 6.860719323E-01 4.508899152E-02 -3.886714698E-01
 6.729950309E-01 4.639701545E-02 -4.082568404E-01
 6.628862023E-01 4.737838730E-02 -4.295632115E-01
 6.513558030E-01 4.847151041E-02 -4.479809241E-01
 6.402367949E-01 4.945893586E-02 -4.638884538E-01
 6.284621358E-01 5.047438666E-02 -4.797231446E-01
 6.172804236E-01 5.137079209E-02 -5.029095942E-01
 6.065924764E-01 5.223122612E-02 -5.228606738E-01
 5.941240788E-01 5.312209576E-02 -5.371425776E-01
 5.823516250E-01 5.392644927E-02 -5.546937551E-01
 5.690526962E-01 5.476810411E-02 -5.710631166E-01
 5.564012527E-01 5.548691377E-02 -5.865420799E-01
 5.441453457E-01 5.613025278E-02 -5.983691109E-01
 5.330418348E-01 5.663941056E-02 -6.033757370E-01
 5.213752985E-01 5.711813271E-02 -6.066098574E-01
 5.084881783E-01 5.756932124E-02 -6.104836560E-01
 4.975080192E-01 5.790128931E-02 -6.102925627E-01
 4.844223261E-01 5.821716040E-02 -6.047117645E-01
 4.714155793E-01 5.844813213E-02 -5.968845460E-01
 4.570216238E-01 5.862689018E-02 -5.882866688E-01
 4.432537258E-01 5.869671330E-02 -5.812217727E-01
 4.301803410E-01 5.870668218E-02 -5.741530729E-01
 4.173058271E-01 5.863355845E-02 -5.654895393E-01
 4.049472511E-01 5.850554258E-02 -5.543222147E-01
 3.923164308E-01 5.829230696E-02 -5.447642473E-01
 3.801606596E-01 5.803651735E-02 -5.379339538E-01
 3.690735698E-01 5.774507299E-02 -5.265745891E-01
 3.561397791E-01 5.733542517E-02 -5.172282111E-01
 3.441341817E-01 5.691139400E-02 -5.076235235E-01
 3.317953646E-01 5.640526488E-02 -4.965542113E-01
 3.212752044E-01 5.591316894E-02 -4.841826774E-01
 3.091567755E-01 5.531232432E-02 -4.725044374E-01
 2.960358262E-01 5.458343774E-02 -4.584176453E-01
 2.821150720E-01 5.372408405E-02 -4.466987995E-01
 2.694110870E-01 5.288872123E-02 -4.368964275E-01
 2.572940290E-01 5.202971026E-02 -4.235412269E-01
 2.445129156E-01 5.104267970E-02 -4.091215204E-01
 2.315070033E-01 4.997720569E-02 -3.980131464E-01
 2.191023082E-01 4.889615998E-02 -3.863910901E-01
 2.072519958E-01 4.779145122E-02 -3.748565636E-01
 1.957577616E-01 4.666153342E-02 -3.631099473E-01
 1.830162853E-01 4.533362389E-02 -3.489646643E-01
 1.708468199E-01 4.398050904E-02 -3.322071650E-01
 1.589430124E-01 4.258938879E-02 -3.181921258E-01
 1.467668265E-01 4.109032825E-02 -3.060472999E-01
 1.357617974E-01 3.965380788E-02 -2.916173836E-01
 1.242819577E-01 3.807454929E-02 -2.797334016E-01
 1.126364544E-01 3.637671843E-02 -2.674223810E-01
 1.019369885E-01 3.471762314E-02 -2.543506310E-01
 9.205544740E-02 3.309385106E-02 -2.379622189E-01
 8.088892698E-02 3.114343248E-02 -2.161095813E-01
 6.918404996E-02 2.893584222E-02 -1.961946488E-01
 5.960240960E-02 2.698211372E-02 -1.732604581E-01
 5.007823184E-02 2.487980761E-02 -1.626775369E-01
 4.140019789E-02 2.277613059E-02 -1.334522872E-01
 3.404052556E-02 2.081397176E-02 -9.594544080E-02
 2.763218246E-02 1.893435791E-02 -4.301573921E-02
 2.224926464E-02 1.717992872E-02 -1.734945708E-02
 1.839261688E-02 1.579741016E-02 7.070637783E-03
 1.479067653E-02 1.437693089E-02 3.203601696E-02
 1.221188344E-02 1.325454097E-02 5.075463782E-02
 9.931625798E-03 1.216487121E-02 6.645813466E-02
 8.267662488E-03 1.129766181E-02 1.053440894E-01
 6.744425744E-03 1.043818798E-02 1.356849026E-01
 5.329235923E-03 9.555709548E-03 1.567837664E-01
 3.470921889E-03 8.245479316E-03 3.092329728E-01
 1.870430424E-03 6.897212937E-03 3.700825087E-01
 4.958878271E-04 5.450241268E-03 4.167594376E-01
 -8.096243837E-04 3.528662957E-03 7.508861253E-01
 -1.443927991E-03 2.000929089E-03 7.001287413E-01
 -1.706517418E-03 7.616410730E-04 1.088878107E+00
 -1.738646301E-03 -7.391225663E-04 8.746713996E-01
 -1.403983100E-03 -2.495063934E-03 9.420685424E-01
 -5.716731539E-04 -4.471252672E-03 7.294474807E-01
 8.337658364E-04 -6.596948020E-03 7.308880302E-01
 2.882776549E-03 -8.852841333E-03 6.317124733E-01
 4.724933300E-03 -1.049228385E-02 4.502595507E-01
 6.895364728E-03 -1.214835048E-02 3.982439719E-01
 8.498359472E-03 -1.324150618E-02 3.271987127E-01
 1.050583087E-02 -1.449673623E-02 2.444637677E-01
 1.288408320E-02 -1.584894210E-02 2.399513908E-01
 1.607267931E-02 -1.748933829E-02 1.991638249E-01
 1.917752065E-02 -1.894273423E-02 1.205644201E-01
 2.311811969E-02 -2.062501945E-02 5.691889913E-02
 2.851719782E-02 -2.270234004E-02 5.598924457E-03
 3.418570012E-02 -2.466001175E-02 -4.156130779E-02
 4.145444557E-02 -2.691734582E-02 -8.782044318E-02
 4.897342622E-02 -2.902501263E-02 -1.303782213E-01
 5.768067017E-02 -3.124124929E-02 -1.629838172E-01
 6.642325968E-02 -3.326794505E-02 -1.900169532E-01
 7.661976665E-02 -3.543978557E-02 -2.176126502E-01
 8.645414561E-02 -3.737037256E-02 -2.446783255E-01
 9.698927402E-02 -3.928346559E-02 -2.697559830E-01
 1.077374071E-01 -4.110167176E-02 -2.928826013E-01
 1.194034293E-01 -4.293909669E-02 -3.149148536E-01
 1.308080405E-01 -4.460995272E-02 -3.329533386E-01
 1.414562762E-01 -4.607632011E-02 -3.479420169E-01
 1.524427533E-01 -4.750775173E-02 -3.639264856E-01
 1.641734540E-01 -4.893280566E-02 -3.784738002E-01
 1.758923084E-01 -5.027016252E-02 -3.926474286E-01
 1.877894998E-01 -5.153873190E-02 -4.105045294E-01
 1.982651651E-01 -5.258282274E-02 -4.255827618E-01
 2.095140517E-01 -5.363330990E-02 -4.400228495E-01
 2.218569517E-01 -5.469599739E-02 -4.541021143E-01
 2.344311625E-01 -5.569294840E-02 -4.729097183E-01
 2.466898859E-01 -5.657489225E-02 -4.938310843E-01
 2.594062388E-01 -5.739574134E-02 -5.154315813E-01
 2.707065046E-01 -5.804295838E-02 -5.377386456E-01
 2.836692333E-01 -5.867914483E-02 -5.574458710E-01
 2.963240147E-01 -5.920002982E-02 -5.794026056E-01
 3.091753423E-01 -5.962469429E-02 -6.021322942E-01
 3.209010661E-01 -5.991110578E-02 -6.251275898E-01
 3.334654868E-01 -6.010528654E-02 -6.427258062E-01
 3.440575004E-01 -6.016606465E-02 -6.583400260E-01
 3.554039896E-01 -6.014271826E-02 -6.678818394E-01
 3.666268587E-01 -6.003743410E-02 -6.747369363E-01
 3.773667216E-01 -5.982285738E-02 -6.789031870E-01
 3.890223801E-01 -5.950775370E-02 -6.795323172E-01
 4.014513195E-01 -5.901652575E-02 -6.714593056E-01
 4.137800038E-01 -5.841849372E-02 -6.510592276E-01
 4.269046187E-01 -5.762111023E-02 -6.195823473E-01
 4.395743906E-01 -5.674279481E-02 -5.830449220E-01
 4.524024427E-01 -5.569246039E-02 -5.396735575E-01
 4.648315310E-01 -5.459732935E-02 -4.931193168E-01
 4.773280621E-01 -5.336447805E-02 -4.520801429E-01
 4.890508652E-01 -5.209719017E-02 -4.049177569E-01
 5.013186336E-01 -5.070586503E-02 -3.600019441E-01
 5.147212148E-01 -4.908028618E-02 -3.154954071E-01
 5.283610821E-01 -4.736440629E-02 -2.738530678E-01
 5.415151119E-01 -4.561537504E-02 -2.341973959E-01
 5.552467704E-01 -4.376132041E-02 -1.971404114E-01
 5.678795576E-01 -4.198228940E-02 -1.621399569E-01
 5.811443329E-01 -4.011015221E-02 -1.288314334E-01
 5.934153199E-01 -3.834642842E-02 -1.002399369E-01
 6.057643294E-01 -3.656473011E-02 -7.298205601E-02
 6.188219190E-01 -3.464221954E-02 -4.496698523E-02
 6.328834295E-01 -3.256729990E-02 -1.318489336E-02
 6.467012167E-01 -3.058208153E-02 1.002181707E-02
 6.600942612E-01 -2.861356549E-02 3.094435266E-02
 6.735993624E-01 -2.662318759E-02 5.996501551E-02
 6.861727238E-01 -2.482641302E-02 8.186773031E-02
 6.986572742E-01 -2.304652520E-02 9.786488799E-02
 7.131091356E-01 -2.098423988E-02 1.205748116E-01
 7.260406017E-01 -1.919434965E-02 1.421994682E-01
 7.378195524E-01 -1.759357005E-02 1.570125951E-01
 7.500295043E-01 -1.593116485E-02 1.738904545E-01
 7.626262307E-01 -1.424756460E-02 1.963354025E-01
 7.754634619E-01 -1.259580348E-02 2.132020075E-01
 7.873333097E-01 -1.111991890E-02 2.267781083E-01
 7.997971773E-01 -9.590518661E-03 2.436059061E-01
 8.109295964E-01 -8.304600604E-03 2.586749266E-01
 8.220168352E-01 -7.017225027E-03 2.747120484E-01
 8.345180154E-01 -5.701046903E-03 2.907044766E-01
 8.467060924E-01 -4.467824008E-03 3.036259319E-01
 8.587014079E-01 -3.359121503E-03 3.184480064E-01
 8.705466986E-01 -2.355200704E-03 3.294303310E-01
 8.827617764E-01 -1.448508236E-03 3.397213928E-01
 8.959822655E-01 -5.920117255E-04 3.483919023E-01
 9.060772061E-01 -4.425380394E-05 3.572355050E-01
 9.168041945E-01 4.097585625E-04 3.591396030E-01
 9.263206124E-01 7.386594079E-04 3.578210415E-01
 9.356876612E-01 9.738802910E-04 3.624453258E-01
 9.484554529E-01 1.164298854E-03 3.567855868E-01
 9.622827172E-01 1.211188501E-03 3.576871748E-01
 9.769471288E-01 1.086527016E-03 3.601668977E-01
 9.894989133E-01 8.336323663E-04 3.437311824E-01
 -5.000000000E-01 -1.000000000E+00 4.584873861E-02
 3.500000000E+00 -1.000000000E+00 1.128404116E-02
 3.500000000E+00 1.000000000E+00 1.973566048E-04
 -5.000000000E-01 1.000000000E+00 4.524485758E-02
 -5.000000000E-01 5.000000000E-01 8.762790947E-02
 -5.000000000E-01 2.752797990E-12 1.380334597E-01
 -5.000000000E-01 -5.000000000E-01 9.310908018E-02
 -9.421907698E-13 -1.000000000E+00 2.299976601E-02
 5.000000000E-01 -1.000000000E+00 -2.706051937E-02
 1.000000000E+00 -1.000000000E+00 -6.057778276E-03
 1.500000000E+00 -1.000000000E+00 2.702223147E-02
 2.000000000E+00 -1.000000000E+00 2.604358188E-02
 2.500000000E+00 -1.000000000E+00 1.770762898E-02
 3.000000000E+00 -1.000000000E+00 1.282286582E-02
 3.500000000E+00 -5.000000000E-01 1.178117189E-02
 3.500000000E+00 -2.752797990E-12 1.141506523E-02
 3.500000000E+00 5.000000000E-01 6.238441764E-03
 3.000000000E+00 1.000000000E+00 -5.603327781E-03
 2.500000000E+00 1.000000000E+00 -1.336627830E-02
 2.000000000E+00 1.000000000E+00 -2.802008675E-02
 1.500000000E+00 1.000000000E+00 -6.680612755E-02
 1.000000000E+00 1.000000000E+00 -1.141434248E-01
 5.000000000E-01 1.000000000E+00 -7.462180836E-02
 1.733724275E-12 1.000000000E+00 1.057757197E-02
 6.816596236E-01 -3.826065034E-02 6.592774849E-02
 7.845556723E-01 -2.479124679E-02 2.144209704E-01
 9.002973164E-01 -1.084823750E-02 3.372329255E-01
 7.075473504E-01 5.419408676E-02 -3.515658556E-01
 2.742352153E-01 6.506599317E-02 -4.283674748E-01
 2.777992080E-01 -7.247579716E-02 -5.278489703E-01
 9.142962919E-01 2.492043800E-02 -5.269856082E-02
 8.032674675E-01 4.379799173E-02 -2.271641754E-01
 5.755461512E-01 -5.415546969E-02 -1.397846830E-01
 6.020621525E-01 6.363702376E-02 -5.169570451E-01
 4.224936582E-01 6.843216363E-02 -5.576179385E-01
 4.106698441E-01 -7.081002716E-02 -6.307323332E-01
 1.788706438E+00 -5.287315062E-01 2.419303353E-02
 1.789353511E+00 6.450375035E-01 -1.950522467E-02
 3.031183561E+00 2.156802903E-01 5.399271818E-03
 7.500000000E-01 -5.669872981E-01 -1.781086954E-03
 4.836757784E-01 -6.305004647E-02 -4.137499882E-01
 3.551720954E-01 -7.143702991E-01 -6.011142303E-02
 1.126050849E-01 -5.641774743E-02 -2.777540740E-01
 1.810704969E-01 -6.467523181E-02 -3.816034738E-01
 7.357207730E-01 5.596315537E-01 -1.870449386E-01
 5.032093704E-01 6.686540940E-02 -5.990141851E-01
 2.734828310E+00 -5.327113109E-01 1.117793431E-02
 1.195143740E+00 5.887459653E-01 -4.551606178E-02
 9.945121432E-01 3.516908586E-01 -5.098434907E-02
 1.280485090E+00 -6.083094480E-01 4.990404261E-02
 1.504753315E+00 -2.684250071E-01 3.338202957E-02
 3.219559940E-01 6.364048143E-01 -1.060689325E-01
 1.018481733E-01 4.229118601E-02 -2.409580848E-01
 1.597380327E-01 5.392271250E-02 -3.090512902E-01
 3.496653653E-01 6.742019728E-02 -5.021798692E-01
 2.240978340E+00 -5.768746345E-01 1.515507656E-02
 2.025772576E+00 -1.913703940E-01 1.031854754E-02
 2.420109698E+00 -1.843686186E-01 6.945549712E-03
 2.184554186E+00 1.580680995E-01 1.035309613E-03
 1.781191299E+00 7.378936316E-02 7.095382151E-03
 -2.739426902E-01 2.317873589E-01 1.500888607E-01
 -1.017723725E-01 6.240147955E-01 3.029589706E-02
 2.211757676E-02 3.365574412E-01 2.119328659E-02
 5.156260511E-02 3.712128184E-02 -1.418135844E-01
 -2.710562104E-01 -2.367042587E-01 1.541859464E-01
 -1.460728405E-01 -6.009581408E-01 4.597092018E-02
 1.083785688E-01 -3.963574497E-01 -3.419821727E-02
 2.240662761E+00 5.542602327E-01 -7.983340804E-03
 2.746278760E+00 5.960270305E-01 -2.100315780E-03
 -2.350553244E-01 -4.712741108E-03 2.024736523E-01
 -1.274277561E-01 1.262262212E-01 2.121307580E-01
 -1.189829996E-01 -1.417724813E-01 2.172819680E-01
 6.236658192E-02 -4.093511174E-02 -1.431551506E-01
 -7.963513083E-02 -3.266762374E-01 9.201124240E-02
 1.050159689E-02 -1.811734009E-01 1.103886282E-01
 3.055695603E-02 -3.089298759E-02 2.645426548E-02
 1.629423544E-01 -2.158188946E-01 -1.918856373E-01
 3.413918836E-01 -6.997668626E-02 -6.322612578E-01
 3.725929687E-01 -6.950245479E-02 -6.545186694E-01
 3.122841774E-01 -7.342485503E-02 -5.827434176E-01
 2.263406335E-01 -6.999659551E-02 -4.412976714E-01
 -3.688335945E-02 -9.783386483E-02 3.184079631E-01
 -1.092482042E-01 -2.403195387E-02 3.364945735E-01
 -7.027409691E-02 5.521892046E-02 3.519726536E-01
 2.501232711E-02 2.258014824E-02 -4.723440559E-03
 2.627048086E-02 -1.056497094E-01 1.116402787E-01
 3.109349517E+00 -2.612921887E-01 1.021741674E-02
 -4.382381039E-02 -3.655001055E-02 4.773973324E-01
 1.325736283E-02 -1.904255135E-02 2.554944977E-01
 -5.071733263E-02 1.134060375E-02 5.088067853E-01
 -2.134179999E-02 5.290943006E-02 3.725769863E-01
 -3.880383526E-02 1.026765924E-01 2.585179881E-01
 2.665354278E-02 1.032869609E-01 7.750206293E-02
 -5.632615899E-03 1.893592695E-01 1.076822319E-01
 8.706313455E-02 1.686151448E-01 -7.276626463E-02
 2.244945386E-01 6.118515868E-02 -3.795320049E-01
 1.743428929E-01 2.893024907E-01 -1.510865441E-01
 1.993261024E-01 5.906549451E-02 -3.549220881E-01
 2.087935662E-01 1.839917447E-01 -2.543467366E-01
 2.891371077E-01 2.588560067E-01 -2.962604272E-01
 3.214899735E-01 1.718223840E-01 -3.735434490E-01
 3.793872480E-01 2.047832676E-01 -3.836489431E-01
 3.180186000E-01 6.941602725E-02 -4.680259246E-01
 3.806920036E-01 1.412528642E-01 -4.486751944E-01
 4.487103428E-01 1.838655388E-01 -4.502685168E-01
 5.499739204E-01 6.753943302E-02 -5.787783801E-01
 5.282113355E-01 6.859827364E-02 -5.903088490E-01
 4.675755817E-01 7.424657437E-02 -5.775267763E-01
 4.550158057E-01 2.706264792E-01 -3.752993153E-01
 5.432048619E-01 2.215222837E-01 -4.297077704E-01
 3.863204404E-01 6.862434868E-02 -5.309544555E-01
 5.489151576E-01 3.611706078E-01 -3.211555965E-01
 6.408864378E-01 2.652079395E-01 -3.288694395E-01
 6.580554152E-01 5.867201415E-02 -4.298297854E-01
 6.543367794E-01 1.708594068E-01 -3.664296096E-01
 7.278622741E-01 2.051922602E-01 -2.704252030E-01
 7.555158964E-01 5.130322142E-02 -2.840622804E-01
 7.656396942E-01 3.103864149E-01 -2.098033968E-01
 7.112577960E-01 1.289112224E-01 -3.153483218E-01
 7.734330465E-01 1.452310620E-01 -2.330393559E-01
 8.651519922E-01 3.727514077E-02 -1.515551610E-01
 8.897773675E-01 3.438717504E-02 -1.067574550E-01
 8.413266010E-01 3.949535236E-02 -1.835923560E-01
 5.577700710E-01 1.472298236E-01 -4.903150963E-01
 2.420048086E-01 1.323406316E-01 -3.373556702E-01
 1.483432087E-01 1.319514814E-01 -2.197750617E-01
 6.519323774E-01 1.122274672E-01 -4.031863745E-01
 4.377894421E-01 1.281718773E-01 -4.995551582E-01
 7.535286827E-01 9.733990670E-02 -2.727066593E-01
 7.966527208E-01 8.960196708E-02 -2.207559073E-01
 8.387310294E-01 1.329574116E-01 -1.609165508E-01
 7.804545488E-01 4.707283039E-02 -2.555214169E-01
 8.163493189E-01 2.140423932E-01 -1.742051970E-01
 8.977349433E-01 1.846203555E-01 -8.614350457E-02
 9.696520946E-01 1.908776139E-02 1.133598780E-01
 9.218049043E-01 1.142955792E-01 -4.624406099E-02
 9.795079447E-01 1.646901612E-01 1.957379998E-03
 8.780140110E-01 8.628487388E-02 -1.145665477E-01
 3.366232212E-01 1.188201881E-01 -4.401730535E-01
 8.344463146E-01 7.795817507E-02 -1.767028737E-01
 6.864032659E-01 8.802177922E-02 -3.678614544E-01
 6.800517422E-01 5.692947336E-02 -3.932646109E-01
 7.194243055E-01 8.623231879E-02 -3.212001174E-01
 7.297392329E-01 5.292607173E-02 -3.205926384E-01
 4.969201182E-01 1.426842931E-01 -5.094659654E-01
 1.399338526E-01 4.587044555E-01 -5.155647979E-02
 6.800818835E-01 4.205067812E-01 -2.381542177E-01
 5.348388206E-01 1.060113051E-01 -5.435930203E-01
 5.726076092E-01 1.081569599E-01 -5.156802479E-01
 5.763945576E-01 6.479639712E-02 -5.506472118E-01
 4.039571938E-01 1.072602799E-01 -5.002764581E-01
 4.980570940E-01 1.023108066E-01 -5.556137412E-01
 4.675842981E-01 9.950272485E-02 -5.462834684E-01
 -6.757062016E-03 -6.147185607E-02 3.521300428E-01
 3.143235841E-02 -6.992716645E-02 8.368857436E-02
 4.566922748E-02 -3.635722217E-02 -7.755802055E-02
 7.748200454E-02 -8.932372289E-02 -1.193140134E-01
 7.873397673E-02 -4.750001566E-02 -1.960397403E-01
 8.935723759E-02 -1.600642242E-01 -1.076679631E-01
 1.452758614E-01 -5.907558345E-02 -3.330000115E-01
 1.226691874E-01 -1.104786701E-01 -2.291395870E-01
 2.261206487E-02 6.450708229E-02 1.168201772E-01
 3.504370031E-02 2.892448558E-02 -6.628382167E-02
 5.898365484E-02 7.583375570E-02 -8.131914218E-02
 8.440966391E-02 4.645502792E-02 -1.946671786E-01
 4.250048873E-01 4.089041606E-01 -2.681446192E-01
 5.518151195E-01 5.566773264E-01 -2.299556417E-01
 6.940092450E-01 5.614837426E-02 -3.715039126E-01
 5.883503011E-01 6.611793594E-02 -5.337636342E-01
 5.982492304E-01 7.683905659E-02 -5.109540177E-01
 6.232721264E-01 6.243691883E-02 -4.816623066E-01
 8.179509807E-01 4.232265217E-02 -2.083087488E-01
 8.129156684E-01 6.096978007E-02 -2.106207545E-01
 8.315805528E-01 5.235811647E-02 -1.899065224E-01
 8.544356394E-01 5.478711144E-02 -1.597268127E-01
 8.778983914E-01 4.952737607E-02 -1.244071381E-01
 9.013086748E-01 5.243446269E-02 -7.807107302E-02
 9.475440411E-01 6.877588382E-02 1.853962779E-02
 9.411202837E-01 2.074334292E-02 2.897315799E-02
 9.268447866E-01 4.988225729E-02 -2.375132903E-02
 9.542229424E-01 2.130721827E-02 6.430615738E-02
 9.643943897E-01 4.011673736E-02 8.183164156E-02
 9.845158300E-01 3.278521355E-02 1.369229303E-01
 9.866506820E-01 7.005567091E-02 8.702742893E-02
 1.019160722E+00 5.282526771E-02 1.476134048E-01
 1.002326817E+00 2.008072168E-02 2.169325549E-01
 9.832851276E-01 1.599527154E-02 1.536568213E-01
 4.514105784E-01 7.592317025E-02 -5.657797871E-01
 4.363025943E-01 9.446865036E-02 -5.353052901E-01
 4.921522942E-01 7.022250714E-02 -5.935734232E-01
 4.803628840E-01 6.909737985E-02 -5.893782786E-01
 9.035325929E-01 3.129635172E-02 -7.682410436E-02
 6.133424752E-01 7.396056486E-02 -4.908871018E-01
 6.081562828E-01 9.600473313E-02 -4.808266642E-01
 6.333810754E-01 7.881936853E-02 -4.519073203E-01
 6.584178697E-01 8.438432128E-02 -4.126935088E-01
 7.931516652E-01 5.839629364E-02 -2.357561365E-01
 7.699566222E-01 6.583542327E-02 -2.611352421E-01
 7.024582249E-01 6.959193091E-02 -3.524492437E-01
 7.413604589E-01 6.688561317E-02 -2.983807590E-01
 4.692434013E-02 -5.039345212E-02 -4.174107991E-02
 3.409114925E-02 -4.516102405E-02 1.539330105E-02
 1.556954773E-02 -3.843427097E-02 2.477622310E-01
 -1.105031948E-02 -3.294232116E-02 5.411552339E-01
 5.166706383E-03 -1.404387321E-02 4.908197114E-01
 6.487522719E-02 -6.065149512E-02 -1.087185746E-01
 2.056121266E-02 -2.520664065E-02 1.396455499E-01
 -2.103900277E-02 -8.294161743E-03 7.686177459E-01
 9.167631934E-02 -6.141890333E-02 -2.111089791E-01
 1.373178390E-02 -2.580658095E-02 2.436839292E-01
 4.768574971E-03 -2.294497642E-02 3.933015953E-01
 6.366865137E-01 6.184312914E-02 -4.595102882E-01
 7.194400692E-01 6.428799653E-02 -3.298741211E-01
 3.997203812E-01 7.158135890E-02 -5.372253466E-01
 4.334806989E-01 7.358956413E-02 -5.590867241E-01
 9.160204643E-01 7.540628375E-02 -5.115790733E-02
 4.119623964E-01 6.878411953E-02 -5.498026765E-01
 7.915221829E-01 4.312021232E-02 -2.436453275E-01
 7.673712815E-01 4.688065932E-02 -2.687633721E-01
 1.146921371E-01 -7.778149447E-02 -2.527584605E-01
 1.275828855E-01 -6.312460724E-02 -2.990845202E-01
 1.394965060E-01 -8.120362151E-02 -2.968198369E-01
 1.617733527E-01 -1.051312516E-01 -2.982688081E-01
 1.614696219E-01 -6.997332888E-02 -3.432925308E-01
 1.803514558E-01 -8.659046204E-02 -3.560483643E-01
 1.957943588E-01 -1.167223934E-01 -3.305933389E-01
 2.007946089E-01 -6.350398637E-02 -4.090444076E-01
 8.529888658E-01 3.631426139E-02 -1.716141167E-01
 5.645849139E-01 6.800533899E-02 -5.627654028E-01
 5.567163980E-01 8.550257230E-02 -5.527413533E-01
 6.493541748E-01 6.985549987E-02 -4.344832340E-01
 8.772154674E-01 3.279777557E-02 -1.318620955E-01
 4.162651147E-01 8.442454615E-02 -5.348466575E-01
 2.563149933E+00 2.038199198E-01 9.863387950E-04
 6.060787252E-01 1.360599378E-01 -4.505730742E-01
 6.125589814E-01 6.082151594E-02 -5.036926716E-01
 7.181224454E-01 5.100460072E-02 -3.374252486E-01
 8.293665761E-01 3.814938048E-02 -1.964273239E-01
 -1.182317423E-01 2.671308480E-01 1.230757836E-01
 6.699192388E-01 6.890555193E-02 -4.041861005E-01
 5.382478269E-01 7.997092648E-02 -5.721457022E-01
 5.205269027E-01 8.553395680E-02 -5.728755133E-01
 9.093128258E-02 -4.699818075E-02 -2.373986151E-01
 1.005905919E-01 -4.932075155E-02 -2.589906028E-01
 1.552943393E-01 -1.456147023E-01 -2.471779933E-01
 9.752801898E-01 1.082754790E-01 3.045014892E-02
 1.020664786E+00 1.126531446E-01 7.968182841E-02
 2.101713718E-01 -8.599986437E-02 -3.950807857E-01
 2.430187085E-01 -1.136953991E-01 -4.078537705E-01
 2.519169455E-01 -7.167612590E-02 -4.820855403E-01
 2.163484056E-01 -1.582088536E-01 -3.132872833E-01
 2.783628640E-01 -1.518241270E-01 -4.078604672E-01
 2.533275892E-01 -2.169507147E-01 -2.971003975E-01
 3.370404480E-01 -2.003342778E-01 -4.033715047E-01
 3.199157766E-01 -2.762894063E-01 -3.100696054E-01
 4.111857786E-01 -2.631774028E-01 -3.265817257E-01
 4.378296065E-01 -1.703603201E-01 -4.064936926E-01
 5.090606526E-01 -2.312034943E-01 -2.310356540E-01
 4.454255089E-01 -7.095823253E-02 -5.377043251E-01
 5.330787189E-01 -1.559954002E-01 -2.158629945E-01
 6.273612594E-01 -4.265141660E-02 -2.882701815E-02
 5.957355564E-01 -1.997918916E-01 -9.391698814E-02
 5.362395292E-01 -6.254518121E-02 -2.437554656E-01
 5.062080578E-01 -3.564454377E-01 -1.946860399E-01
 6.179074951E-01 -1.292212822E-01 -5.921098496E-02
 6.773558554E-01 -1.805025528E-01 1.484848863E-02
 7.344705714E-01 -2.986558711E-02 1.466395216E-01
 7.572759742E-01 -2.631360062E-02 1.783683712E-01
 6.734759238E-01 -2.768358878E-01 -3.373177718E-03
 7.605871907E-01 -2.183826444E-01 8.588561343E-02
 8.430019930E-01 -1.672527276E-02 2.881615690E-01
 7.662782620E-01 -1.259789875E-01 1.340465040E-01
 8.409064806E-01 -1.641807191E-01 1.638776578E-01
 9.682737117E-01 -8.649207435E-03 3.430560347E-01
 9.415277760E-01 -1.207762609E-02 3.392689196E-01
 9.226794835E-01 -8.348304635E-03 3.465180694E-01
 8.644765723E-01 -2.710461020E-01 1.184606152E-01
 9.576822284E-01 -1.951659552E-01 1.734540672E-01
 9.862101656E-01 -3.200360793E-01 1.161004506E-01
 1.098879824E+00 -2.480223603E-01 1.170838985E-01
 1.066337935E+00 -1.142817663E-01 1.695901833E-01
 1.200175361E+00 -1.511935062E-01 9.082519579E-02
 1.161191825E+00 -2.524970051E-02 9.667596460E-02
 1.312524751E+00 -4.301186050E-02 5.269024001E-02
 1.229980905E+00 1.249859112E-01 5.277725862E-02
 8.409193630E-01 -9.306280086E-02 2.182498434E-01
 6.787795012E-01 -1.058267820E-01 3.953120261E-02
 7.946460314E-01 -7.599527801E-02 1.892211803E-01
 9.636125631E-01 -1.077874910E-01 2.348479481E-01
 3.751856021E-01 -1.496902086E-01 -5.010848959E-01
 4.798909782E-01 -1.295054387E-01 -3.619502043E-01
 3.258302473E-01 -1.215093928E-01 -5.103802612E-01
 1.281874390E+00 -3.281514614E-01 6.042667079E-02
 5.631755258E-01 -1.084517022E-01 -1.647927908E-01
 1.017769059E+00 -6.567733603E-02 2.347185124E-01
 1.073389022E+00 -1.688494545E-02 1.509214138E-01
 1.085736385E+00 6.725544437E-02 1.096144538E-01
 1.034413687E+00 1.675361637E-02 1.843029598E-01
 1.467578333E+00 1.166883563E-01 2.160681706E-02
 1.357590929E+00 3.376494412E-01 7.789484272E-03
 1.023951434E+00 -1.943360651E-02 2.544535536E-01
 9.935540977E-01 -2.921530026E-02 3.266759362E-01
 9.830239777E-01 -8.918931820E-03 3.544376350E-01
 6.371865636E-01 -8.168130846E-02 -2.135393232E-02
 6.563806558E-01 -4.229664638E-02 2.225532475E-02
 7.672373783E-01 -3.545881958E-01 4.523780812E-02
 2.873275029E-01 -1.103202620E-01 -4.837484321E-01
 8.977991301E-01 -1.236860707E-01 2.246534445E-01
 8.878747633E-01 -6.671272823E-02 2.683824831E-01
 8.777584056E-01 -1.255717458E-02 3.229126865E-01
 9.425030787E-01 -6.822596023E-02 2.756565464E-01
 8.525766424E-01 -5.025892407E-02 2.611116756E-01
 3.614407896E-01 -1.064630657E-01 -5.770905836E-01
 4.017088442E-01 -1.111547500E-01 -5.514116653E-01
 8.288753535E-01 -1.826109563E-02 2.722843151E-01
 8.070095534E-01 -2.074535099E-02 2.448473159E-01
 8.367179975E-01 -3.342355305E-02 2.653693451E-01
 8.539986533E-01 -2.588115966E-02 2.887278067E-01
 8.212997071E-01 -5.472204236E-02 2.350956983E-01
 8.185861945E-01 -3.024472305E-02 2.499104115E-01
 8.000381883E-01 -3.784339791E-02 2.239047496E-01
 7.776238617E-01 -4.499975380E-02 1.934471887E-01
 7.529443994E-01 -6.591600440E-02 1.519841687E-01
 7.957467802E-01 -2.081808665E-02 2.314324916E-01
 1.102497700E+00 -4.351270973E-01 7.769527844E-02
 9.814719608E-01 -6.614112861E-01 3.636023835E-02
 7.268095907E-01 -1.032560402E-01 1.033431377E-01
 7.112511359E-01 -6.543160170E-02 9.698443169E-02
 7.092558481E-01 -3.866957021E-02 1.078824077E-01
 6.775701456E-01 -7.110348721E-02 4.479385923E-02
 3.473790518E-01 -4.133021536E-01 -1.814058181E-01
 7.220758050E-01 -3.063240772E-02 1.303857985E-01
 7.295006862E-01 -4.511782940E-02 1.343569457E-01
 7.470402564E-01 -3.994624240E-02 1.593630630E-01
 6.924817126E-01 -5.038221484E-02 7.812947982E-02
 6.372641474E-01 -4.069994352E-01 -5.511575994E-02
 9.557683899E-01 -1.091396568E-02 3.447233645E-01
 9.687794424E-01 -2.472171716E-02 3.113489501E-01
 9.734748118E-01 -5.606910945E-02 2.733329363E-01
 9.436180197E-01 -3.364036307E-02 3.201965911E-01
 8.645333338E-01 -1.430567973E-02 3.102336706E-01
 6.410673073E-01 -4.363541672E-02 -3.970187426E-03
 6.521067783E-01 -5.795643269E-02 1.269203278E-02
 7.453281815E-01 -2.626156415E-02 1.620518150E-01
 8.533882961E-01 -1.294781153E-02 3.027656963E-01
 8.174835066E-01 -1.691459906E-02 2.604769613E-01
 5.339172477E-01 -5.385805289E-01 -1.056846785E-01
 1.171869550E+00 2.847295681E-01 1.506614856E-02
 1.493193158E+00 5.817997000E-01 -2.064609454E-02
 2.655152852E-01 -8.684452203E-02 -4.820942951E-01
 2.391009780E-01 -8.497404699E-02 -4.419552558E-01
 2.952503412E-01 -8.485148682E-02 -5.356384635E-01
 3.136116060E-01 -9.115742552E-02 -5.507001713E-01
 8.740130276E-01 -3.038837181E-02 3.005005081E-01
 8.999233643E-01 -3.819709222E-02 3.083449804E-01
 9.187631342E-01 -2.692679644E-02 3.210827370E-01
 8.912895997E-01 -2.241377597E-02 3.210560699E-01
 9.291457102E-01 -1.704855561E-02 3.378986642E-01
 1.069219501E+00 1.998581430E-01 2.843831457E-02
 8.835236299E-01 2.917565823E-01 -1.168586118E-01
 5.142029193E-01 7.001448881E-02 -5.941292798E-01
 7.417289375E-01 5.013657515E-02 -3.044400008E-01
 6.945463422E-01 -3.553817860E-02 8.674008383E-02
 9.568022593E-02 1.153675575E-01 -1.451693127E-01
 1.294145822E-01 9.324168985E-02 -2.171436448E-01
 1.428565968E-01 5.233435260E-02 -2.883394733E-01
 1.689374077E-01 9.811426316E-02 -2.732962673E-01
 -1.582573987E-02 1.560877015E-02 6.957279226E-01
 -5.370545621E-03 3.294888869E-02 3.983883253E-01
 1.263754966E-02 1.659702238E-02 9.118956089E-02
 4.227217709E-03 1.326238077E-02 2.642585335E-01
 1.444119637E-02 4.167598775E-02 1.974488822E-01
 1.439383383E-02 2.874192463E-02 1.595459669E-01
 1.586920840E-02 2.156265356E-02 8.710788446E-02
 5.770348006E-03 2.130466823E-02 2.523461568E-01
 -4.918737347E-03 1.481065265E-02 5.399289888E-01
 1.736509192E+00 -1.571377890E-01 1.794334942E-02
 9.277906745E-01 2.727681424E-02 -1.433373112E-02
 7.701403945E-01 -2.735587694E-02 1.961253580E-01
 8.370822063E-01 4.143318561E-01 -1.463418369E-01
 2.132151165E-01 -2.958294366E-01 -1.854413241E-01
 6.689088302E-01 5.569999052E-02 -4.131140629E-01
 6.710774391E-01 -5.132705910E-02 4.581211066E-02
 7.806090930E-02 -2.723136341E-01 -3.149991417E-02
 3.259771465E-01 -7.350841873E-02 -6.043037095E-01
 3.371164385E-01 -9.087041344E-02 -5.861524399E-01
 3.563895255E-01 -8.207012038E-02 -6.231689423E-01
 6.471377403E-01 5.766021789E-02 -4.472964572E-01
 2.650688364E-01 -6.928702896E-02 -5.077171997E-01
 2.796541219E-01 4.080735483E-01 -1.940526599E-01
 9.119709670E-01 -1.115084483E-02 3.432669816E-01
 3.133974596E+00 6.339745962E-01 1.766726309E-04
 3.815802723E-01 -9.237012516E-02 -6.109829585E-01
 4.306033036E-01 -9.356346078E-02 -5.447372509E-01
 3.936390550E-01 -7.444109276E-02 -6.420154784E-01
 4.253367967E-01 -7.597207154E-02 -5.892707144E-01
 4.582858816E-01 -9.575428549E-02 -4.620399435E-01
 4.636592714E-01 -7.572962170E-02 -4.708784481E-01
 4.843343421E-01 -8.357220487E-02 -3.847935299E-01
 5.093675299E-01 -6.100382263E-02 -3.263180256E-01
 4.438777364E-01 -1.220974592E-01 -4.805117536E-01
 5.142199461E-01 -1.098857999E-01 -2.744893288E-01