TITLE     = "Visualization of the solution"
VARIABLES = "x"
"y"
"Pressure_Coefficient"
ZONE T="Zone"
 STRANDID=0, SOLUTIONTIME=0
 Nodes=720, Elements=1225, ZONETYPE=FEQuadrilateral
 DATAPACKING=POINT
 DT=(DOUBLE DOUBLE DOUBLE )
 1.000181913E+00 5.179807195E-04 2.325994691E-01
 9.906184673E-01 2.160090255E-03 1.476699241E-01
 9.799532890E-01 3.923163284E-03 1.259137099E-01
 9.679202437E-01 5.964591168E-03 7.200382905E-02
 9.548192620E-01 8.046006784E-03 3.105207792E-02
 9.416486025E-01 1.020642649E-02 -3.056843025E-02
 9.309824705E-01 1.192451641E-02 -7.197632260E-02
 9.184499383E-01 1.389565784E-02 -1.081507953E-01
 9.066559672E-01 1.557827834E-02 -1.452760246E-01
 8.946737051E-01 1.731771231E-02 -1.752981196E-01
 8.818011284E-01 1.896516047E-02 -1.893909628E-01
 8.698379993E-01 2.045301348E-02 -1.997406220E-01
 8.565028310E-01 2.198750153E-02 -2.095914584E-01
 8.450249434E-01 2.329514176E-02 -2.188328743E-01
 8.327718377E-01 2.460834943E-02 -2.270977631E-01
 8.189786077E-01 2.606591769E-02 -2.356623930E-01
 8.055046797E-01 2.741461992E-02 -2.385568044E-01
 7.930126190E-01 2.863084711E-02 -2.461985363E-01
 7.804220319E-01 2.985535935E-02 -2.604143040E-01
 7.674787641E-01 3.108866885E-02 -2.712633837E-01
 7.536680102E-01 3.234141320E-02 -2.817957581E-01
 7.389210463E-01 3.366241232E-02 -2.954941147E-01
 7.276015282E-01 3.464314342E-02 -3.053435573E-01
 7.162322998E-01 3.559751809E-02 -3.158626824E-01
 7.040952444E-01 3.659448400E-02 -3.318534980E-01
 6.894707084E-01 3.776324540E-02 -3.470821008E-01
 6.754195094E-01 3.881798685E-02 -3.570041570E-01
 6.657472253E-01 3.951326013E-02 -3.670484855E-01
 6.538579464E-01 4.034886882E-02 -3.800896790E-01
 6.420947313E-01 4.113981128E-02 -3.949772040E-01
 6.298916936E-01 4.192362726E-02 -4.082541512E-01
 6.185263991E-01 4.259672388E-02 -4.192031092E-01
 6.067392826E-01 4.326132312E-02 -4.296341974E-01
 5.928608179E-01 4.397594184E-02 -4.399251371E-01
 5.805079937E-01 4.455585405E-02 -4.489628562E-01
 5.666038394E-01 4.514661804E-02 -4.579908312E-01
 5.538766980E-01 4.562749714E-02 -4.650337586E-01
 5.417326093E-01 4.602489993E-02 -4.697469180E-01
 5.310590863E-01 4.633328691E-02 -4.709174686E-01
 5.192574263E-01 4.661040381E-02 -4.725668299E-01
 5.061548948E-01 4.687247425E-02 -4.741218706E-01
 4.947880805E-01 4.703488201E-02 -4.690461498E-01
 4.813303053E-01 4.716142640E-02 -4.635256992E-01
 4.680781364E-01 4.722696170E-02 -4.577574762E-01
 4.533281922E-01 4.723078385E-02 -4.498908162E-01
 4.394452274E-01 4.714625329E-02 -4.434402876E-01
 4.264423549E-01 4.702880979E-02 -4.370819620E-01
 4.136606753E-01 4.684589058E-02 -4.260375673E-01
 4.014424980E-01 4.660652578E-02 -4.167937584E-01
 3.901036680E-01 4.636741430E-02 -4.082218450E-01
 3.778832555E-01 4.604924470E-02 -3.988198795E-01
 3.674725592E-01 4.574345425E-02 -3.920691702E-01
 3.550783098E-01 4.535140470E-02 -3.837097506E-01
 3.434568048E-01 4.492182285E-02 -3.741668223E-01
 3.313737810E-01 4.444599152E-02 -3.637600079E-01
 3.204505742E-01 4.396681860E-02 -3.533394545E-01
 3.084333241E-01 4.341914132E-02 -3.453062345E-01
 2.953073382E-01 4.277543351E-02 -3.372628917E-01
 2.814922631E-01 4.204587266E-02 -3.286720013E-01
 2.682591081E-01 4.129111022E-02 -3.190799448E-01
 2.561414242E-01 4.055467620E-02 -3.093212961E-01
 2.434909791E-01 3.974800184E-02 -2.992564476E-01
 2.305323929E-01 3.887371346E-02 -2.902711406E-01
 2.182848155E-01 3.799695149E-02 -2.826698760E-01
 2.069385499E-01 3.714837134E-02 -2.770578288E-01
 1.962315738E-01 3.631328791E-02 -2.683480810E-01
 1.838896573E-01 3.530197218E-02 -2.604385464E-01
 1.720549464E-01 3.428057581E-02 -2.536439127E-01
 1.609818637E-01 3.328698128E-02 -2.476855466E-01
 1.490031183E-01 3.215590119E-02 -2.407994676E-01
 1.383672059E-01 3.109244443E-02 -2.315399851E-01
 1.269641072E-01 2.989772148E-02 -2.245757534E-01
 1.152948365E-01 2.860672958E-02 -2.181978139E-01
 1.047074795E-01 2.736216038E-02 -2.115689005E-01
 9.480780363E-02 2.613899112E-02 -2.033193685E-01
 8.329991251E-02 2.461517602E-02 -1.885949461E-01
 7.096853852E-02 2.284367196E-02 -1.772511519E-01
 6.131970137E-02 2.133279108E-02 -1.634036249E-01
 5.144219473E-02 1.964987442E-02 -1.543454139E-01
 4.299749061E-02 1.805475354E-02 -1.442056098E-01
 3.581739962E-02 1.655788906E-02 -1.305905358E-01
 2.963751368E-02 1.513058133E-02 -1.128510403E-01
 2.426677942E-02 1.374819130E-02 -8.747997226E-02
 2.044435032E-02 1.265656389E-02 -5.172167989E-02
 1.693592966E-02 1.155524887E-02 -3.357159719E-02
 1.441888046E-02 1.068084966E-02 -1.702109835E-03
 1.213237457E-02 9.819415398E-03 2.607478918E-02
 1.047005784E-02 9.137729183E-03 5.127946640E-02
 8.942841552E-03 8.455392905E-03 6.818530311E-02
 7.520690560E-03 7.765309419E-03 9.730726988E-02
 5.580011755E-03 6.711718626E-03 1.021553092E-01
 3.834908130E-03 5.600727629E-03 2.819283109E-01
 2.244853647E-03 4.363502376E-03 5.423234136E-01
 7.151541649E-04 2.756247530E-03 9.149539380E-01
 -1.003727448E-04 1.446169801E-03 1.089275399E+00
 -4.695901007E-04 4.243732837E-04 9.262696129E-01
 -6.116062286E-04 -7.236831589E-04 1.333679971E+00
 -4.378290905E-04 -1.968893223E-03 8.971209892E-01
 1.558814547E-04 -3.340721829E-03 8.412124903E-01
 1.267420012E-03 -4.807070829E-03 6.460608186E-01
 2.966606990E-03 -6.337271072E-03 6.158709416E-01
 4.499866627E-03 -7.407281548E-03 2.886128851E-01
 6.330298726E-03 -8.481442928E-03 2.704927733E-01
 7.728781085E-03 -9.199909866E-03 1.186821927E-01
 9.556164034E-03 -1.004838478E-02 9.867289618E-02
 1.173118316E-02 -1.095116511E-02 3.322522433E-02
 1.473179646E-02 -1.206750702E-02 1.084718076E-02
 1.760078222E-02 -1.302335970E-02 -1.856931676E-02
 2.128812112E-02 -1.413482614E-02 -4.731703313E-02
 2.654656954E-02 -1.555403508E-02 -5.529959523E-02
 3.214114532E-02 -1.690502465E-02 -7.067730333E-02
 3.988403827E-02 -1.857578568E-02 -9.750275047E-02
 4.732746631E-02 -2.002669312E-02 -1.237040658E-01
 5.634846911E-02 -2.163118683E-02 -1.364402858E-01
 6.500919163E-02 -2.305128612E-02 -1.479213132E-01
 7.508842647E-02 -2.458282746E-02 -1.568986040E-01
 8.517182618E-02 -2.601685002E-02 -1.688889979E-01
 9.537013620E-02 -2.737261355E-02 -1.802782801E-01
 1.058627293E-01 -2.869150229E-02 -1.901947151E-01
 1.174803004E-01 -3.006567806E-02 -1.993791305E-01
 1.289026290E-01 -3.135369718E-02 -2.105578249E-01
 1.399135888E-01 -3.252418712E-02 -2.229902716E-01
 1.508538276E-01 -3.362941742E-02 -2.325030956E-01
 1.629639268E-01 -3.479448333E-02 -2.462961131E-01
 1.748821139E-01 -3.588330746E-02 -2.636964455E-01
 1.872563511E-01 -3.694776073E-02 -2.786284847E-01
 1.980981529E-01 -3.782429919E-02 -2.913415143E-01
 2.094641477E-01 -3.869638592E-02 -3.036973384E-01
 2.220938653E-01 -3.960492089E-02 -3.183072465E-01
 2.357101589E-01 -4.050981253E-02 -3.350711846E-01
 2.489038855E-01 -4.131489247E-02 -3.527018001E-01
 2.624856234E-01 -4.206185043E-02 -3.690177846E-01
 2.741734087E-01 -4.264720902E-02 -3.858515655E-01
 2.876118124E-01 -4.321999475E-02 -4.002226151E-01
 3.014144003E-01 -4.373583943E-02 -4.159088502E-01
 3.142993152E-01 -4.411257058E-02 -4.338136445E-01
 3.262585998E-01 -4.437351227E-02 -4.473444392E-01
 3.384951949E-01 -4.456308112E-02 -4.576872627E-01
 3.496598005E-01 -4.466149583E-02 -4.700383793E-01
 3.605984449E-01 -4.465779290E-02 -4.781855436E-01
 3.715320528E-01 -4.458679259E-02 -4.826114378E-01
 3.819368780E-01 -4.442688450E-02 -4.859365051E-01
 3.928997815E-01 -4.418684542E-02 -4.852793623E-01
 4.051751196E-01 -4.378357530E-02 -4.772023177E-01
 4.172946215E-01 -4.328973964E-02 -4.646766968E-01
 4.302040935E-01 -4.263483360E-02 -4.511018710E-01
 4.427699447E-01 -4.185410216E-02 -4.277725488E-01
 4.548452795E-01 -4.101095349E-02 -4.006743102E-01
 4.670125842E-01 -4.005421326E-02 -3.726192364E-01
 4.792988598E-01 -3.898206353E-02 -3.422412717E-01
 4.899355173E-01 -3.797484189E-02 -3.082676841E-01
 5.020540953E-01 -3.675746545E-02 -2.715528301E-01
 5.154428482E-01 -3.530685231E-02 -2.290229294E-01
 5.293380022E-01 -3.376974538E-02 -1.919877575E-01
 5.434188247E-01 -3.213566169E-02 -1.595626306E-01
 5.566840172E-01 -3.055130318E-02 -1.270798257E-01
 5.688102841E-01 -2.905978821E-02 -9.658232344E-02
 5.816465020E-01 -2.746362425E-02 -6.769919792E-02
 5.926087499E-01 -2.609656751E-02 -4.364467414E-02
 6.040604115E-01 -2.465882339E-02 -2.119927934E-02
 6.176418066E-01 -2.297967859E-02 6.425814866E-04
 6.318136454E-01 -2.119362913E-02 2.548785191E-02
 6.454989910E-01 -1.949111186E-02 5.208365078E-02
 6.588183045E-01 -1.787424274E-02 7.063169845E-02
 6.720644832E-01 -1.626489870E-02 8.836162321E-02
 6.842178702E-01 -1.481260359E-02 1.083378587E-01
 6.966680288E-01 -1.335321274E-02 1.253222828E-01
 7.104668617E-01 -1.177383028E-02 1.406882957E-01
 7.228819132E-01 -1.036211289E-02 1.590110844E-01
 7.347062826E-01 -9.075110778E-03 1.749517870E-01
 7.461081743E-01 -7.847665809E-03 1.898512570E-01
 7.580932379E-01 -6.626818329E-03 2.031925516E-01
 7.702609897E-01 -5.422754679E-03 2.158564836E-01
 7.811133862E-01 -4.366893787E-03 2.308093691E-01
 7.935702801E-01 -3.247024259E-03 2.423647384E-01
 8.046053052E-01 -2.279293025E-03 2.545483175E-01
 8.169387579E-01 -1.314046443E-03 2.658279656E-01
 8.295671940E-01 -3.697016509E-04 2.765711109E-01
 8.416908979E-01 4.516188637E-04 2.911904288E-01
 8.538951278E-01 1.162556931E-03 3.003160800E-01
 8.674510121E-01 1.829646179E-03 3.064773599E-01
 8.805062771E-01 2.350725234E-03 3.137246808E-01
 8.950818777E-01 2.748506609E-03 3.157028434E-01
 9.054509401E-01 2.925196663E-03 3.180142583E-01
 9.153829813E-01 3.005142091E-03 3.165615812E-01
 9.247813225E-01 3.004533472E-03 3.135797243E-01
 9.330397844E-01 2.940113423E-03 3.098200981E-01
 9.458990097E-01 2.738275100E-03 3.003725486E-01
 9.591117501E-01 2.398285549E-03 2.918747190E-01
 9.749811888E-01 1.817361335E-03 2.807654137E-01
 9.884418845E-01 1.182037755E-03 2.742882701E-01
 -5.000000000E-01 -1.000000000E+00 3.256065211E-02
 3.500000000E+00 -1.000000000E+00 9.240172944E-03
 3.500000000E+00 1.000000000E+00 -3.280401299E-04
 -5.000000000E-01 1.000000000E+00 3.249376915E-02
 -5.000000000E-01 5.000000000E-01 6.344103240E-02
 -5.000000000E-01 2.752797990E-12 9.847789916E-02
 -5.000000000E-01 -5.000000000E-01 6.759518874E-02
 -9.421907698E-13 -1.000000000E+00 1.587422149E-02
 5.000000000E-01 -1.000000000E+00 -1.210157607E-02
 1.000000000E+00 -1.000000000E+00 8.488342447E-03
 1.500000000E+00 -1.000000000E+00 3.124842401E-02
 2.000000000E+00 -1.000000000E+00 2.636751910E-02
 2.500000000E+00 -1.000000000E+00 1.697664842E-02
 3.000000000E+00 -1.000000000E+00 1.155970153E-02
 3.500000000E+00 -5.000000000E-01 9.043155551E-03
 3.500000000E+00 -2.752797990E-12 8.629004045E-03
 3.500000000E+00 5.000000000E-01 4.702852924E-03
 3.000000000E+00 1.000000000E+00 -5.919665054E-03
 2.500000000E+00 1.000000000E+00 -1.358643065E-02
 2.000000000E+00 1.000000000E+00 -2.747263355E-02
 1.500000000E+00 1.000000000E+00 -6.058673887E-02
 1.000000000E+00 1.000000000E+00 -9.867039576E-02
 5.000000000E-01 1.000000000E+00 -6.437992965E-02
 1.733724275E-12 1.000000000E+00 6.458490889E-03
 6.972723346E-01 -2.406352312E-02 1.214279308E-01
 8.036384688E-01 -1.378572705E-02 2.446982324E-01
 9.123601963E-01 -6.654587112E-03 3.045025333E-01
 5.995837848E-01 -3.791699116E-02 -3.290858573E-02
 5.077542825E-01 -4.893356179E-02 -2.469233004E-01
 7.109999194E-01 4.627525192E-02 -3.178583525E-01
 7.980639401E-01 3.821445918E-02 -2.405545695E-01
 8.895656448E-01 2.851974030E-02 -1.700530788E-01
 2.731745783E-01 5.407580839E-02 -3.142276342E-01
 2.855661410E-01 -5.764462654E-02 -3.808202634E-01
 6.143433021E-01 5.711542949E-02 -4.117930620E-01
 3.774573619E-01 -5.584862048E-02 -4.640167036E-01
 4.198965876E-01 5.776307917E-02 -4.218352252E-01
 5.121465149E-01 6.044530830E-02 -4.595637701E-01
 1.783312074E+00 -5.252188240E-01 2.254431381E-02
 1.777736446E+00 6.447280211E-01 -2.014526540E-02
 3.031196181E+00 2.156742963E-01 3.680208985E-03
 7.507420211E-01 -6.132607770E-01 2.387446353E-03
 7.398364517E-01 6.341194521E-01 -1.456471236E-01
 2.734798421E+00 -5.327415092E-01 9.932629600E-03
 1.201701951E+00 6.337519385E-01 -5.383679687E-02
 9.684641033E-01 3.348236253E-01 -6.847303554E-02
 9.499550520E-01 2.133446872E-02 -8.406095410E-04
 1.248041824E+00 -6.362825311E-01 4.629928097E-02
 1.504936256E+00 -2.785394883E-01 2.901940458E-02
 3.322354725E-01 6.144659703E-01 -8.851287072E-02
 9.791540132E-02 3.887207602E-02 -1.870113856E-01
 1.669737302E-01 4.630814328E-02 -2.424999345E-01
 1.569573147E-01 -5.769151355E-01 -1.788463164E-02
 6.760179420E-02 -3.461528073E-02 -1.246905305E-01
 1.219488941E-01 -3.929026527E-02 -1.944605742E-01
 1.777103027E-01 -5.234988646E-02 -2.531196643E-01
 2.240053089E+00 -5.763297424E-01 1.408338259E-02
 2.024710759E+00 -1.908225092E-01 9.038878559E-03
 2.419979314E+00 -1.844541225E-01 6.015890763E-03
 2.184455836E+00 1.578288753E-01 2.636681693E-04
 1.828314486E+00 8.744861872E-02 3.437428061E-03
 -2.682584998E-01 2.392347702E-01 1.075412588E-01
 -9.810807886E-02 6.169195608E-01 1.887387710E-02
 2.820259121E-02 3.250663537E-01 1.114996694E-02
 4.547060081E-02 2.797335866E-02 -1.094861452E-01
 -2.699355297E-01 -2.521408683E-01 1.118419591E-01
 -1.683777083E-01 -5.690151673E-01 4.476454148E-02
 2.239005673E+00 5.541759535E-01 -9.005297460E-03
 2.746008588E+00 5.960104012E-01 -3.188990501E-03
 -2.503048357E-01 3.057034201E-04 1.455456450E-01
 -1.414767047E-01 1.238919854E-01 1.582326187E-01
 -1.241988877E-01 -1.227382024E-01 1.725997340E-01
 1.313806672E-02 -4.094770206E-01 1.988253278E-02
 2.856842936E-01 -2.983227994E-01 -1.680561070E-01
 4.371519492E-01 -5.626136081E-02 -4.139775685E-01
 -1.150278729E-01 3.453975486E-03 2.290492712E-01
 -5.410671338E-02 6.499149967E-02 2.651804735E-01
 1.849024326E-02 1.530584527E-02 -6.288211376E-03
 -3.627410047E-02 1.759387898E-01 1.127272482E-01
 7.435328071E-03 9.131960087E-02 1.217027320E-01
 4.859742594E-02 1.650223216E-01 -1.108690005E-02
 1.857283244E-01 2.583146756E-01 -1.297437632E-01
 3.499997678E-01 5.563926996E-02 -3.721049036E-01
 3.838281735E-01 5.573000794E-02 -3.963274821E-01
 3.125599014E-01 5.630400685E-02 -3.403795383E-01
 2.236771628E-01 4.865291183E-02 -2.806665570E-01
 1.539666968E-01 1.492701373E-01 -1.536277460E-01
 1.338372242E-01 4.296650429E-02 -2.187414934E-01
 8.483191287E-02 9.930131070E-02 -8.499792438E-02
 1.334735878E-01 9.356608921E-02 -1.855382095E-01
 -1.031704272E-02 5.238897200E-02 2.696398194E-01
 -5.613425217E-02 3.464215880E-03 3.644345179E-01
 2.148285427E-02 5.265949926E-02 8.197768789E-02
 1.542949602E-01 4.293814402E-01 -5.435297986E-02
 3.134596547E-01 3.334704843E-01 -1.961378132E-01
 2.887772289E-01 2.001951714E-01 -2.410542505E-01
 4.245681496E-01 2.403185269E-01 -2.922295798E-01
 4.633356643E-01 4.184599164E-01 -2.245139009E-01
 5.556337702E-01 2.708982942E-01 -2.957195086E-01
 5.558010360E-01 5.886100978E-02 -4.509956556E-01
 4.951111791E-01 1.807662542E-01 -3.562349045E-01
 4.620135214E-01 6.061530062E-02 -4.408749660E-01
 6.097181106E-01 1.954578919E-01 -3.242103606E-01
 6.651179134E-01 4.967093086E-02 -3.628921080E-01
 6.800049002E-01 4.944608739E-02 -3.490170683E-01
 6.700285524E-01 2.735461820E-01 -2.534939001E-01
 7.191881607E-01 1.931945793E-01 -2.520279396E-01
 4.271774581E-01 1.529877537E-01 -3.536507948E-01
 6.845627817E-01 1.300589480E-01 -3.041218366E-01
 5.766094458E-01 1.326254133E-01 -3.776816505E-01
 7.803814963E-01 2.722545046E-01 -1.867348634E-01
 8.472589511E-01 1.817273403E-01 -1.531367657E-01
 8.383232853E-01 3.638136750E-02 -2.154242251E-01
 8.682914492E-01 3.479942712E-02 -1.868325234E-01
 8.012312880E-01 1.212690769E-01 -2.090325164E-01
 7.468188224E-01 4.722154948E-02 -2.825140245E-01
 4.781125981E-01 1.111086090E-01 -4.025425702E-01
 6.026117860E-01 4.222412636E-01 -2.170424101E-01
 4.266485397E-01 9.868177180E-02 -3.921748930E-01
 3.862223607E-01 1.160812586E-01 -3.536383357E-01
 3.109332856E+00 -2.613188299E-01 8.187236515E-03
 3.980389808E-01 8.638631272E-02 -3.827336202E-01
 3.650334813E-01 8.774640400E-02 -3.592610718E-01
 3.403941131E-01 1.139666917E-01 -3.253290926E-01
 3.584246107E-01 1.583558909E-01 -3.071300347E-01
 2.646735291E-01 1.293498076E-01 -2.583624534E-01
 3.019553077E-01 9.612940412E-02 -3.093905994E-01
 2.196978598E-01 1.762036501E-01 -2.089478076E-01
 3.337970326E-01 8.334976472E-02 -3.397284455E-01
 3.633591283E-01 6.695599835E-02 -3.741326571E-01
 -2.413304066E-02 2.008730292E-02 4.975944909E-01
 5.316168453E-04 3.116970973E-02 3.159665829E-01
 1.073122233E-02 1.086852317E-02 7.209204529E-02
 4.921214989E-03 9.888280716E-03 1.948414356E-01
 1.808414014E-02 3.360646184E-02 7.972062170E-02
 3.125647873E-02 2.160562572E-02 -8.405405090E-02
 4.455693719E-01 6.061841061E-02 -4.336887271E-01
 4.535095656E-01 8.022607588E-02 -4.215394282E-01
 4.762623195E-01 7.582072056E-02 -4.359535185E-01
 5.098648248E-01 9.872749811E-02 -4.238968845E-01
 5.467486146E-01 9.631399635E-02 -4.202804579E-01
 5.388766862E-01 5.774756617E-02 -4.581642244E-01
 4.878403657E-01 6.079559823E-02 -4.531508117E-01
 4.324510429E-01 7.451164272E-02 -4.172003048E-01
 4.001177452E-01 6.941231817E-02 -3.984150356E-01
 4.751049297E-01 5.832400150E-02 -4.499755821E-01
 2.885890954E-01 5.560697407E-02 -3.244991707E-01
 2.802242805E-01 7.038539081E-02 -3.098303969E-01
 2.479602261E-01 5.245570996E-02 -2.941631265E-01
 2.449447384E-01 9.147988117E-02 -2.646718408E-01
 3.005651565E-01 6.718274153E-02 -3.242677243E-01
 3.360213805E-01 6.100075121E-02 -3.564061769E-01
 4.328425675E-01 5.829460744E-02 -4.311191256E-01
 2.605038307E-01 6.755543831E-02 -2.967769014E-01
 3.010909631E-01 5.305765946E-02 -3.343630749E-01
 2.612078335E-01 5.118654862E-02 -3.063021561E-01
 3.238254414E-01 5.529856669E-02 -3.501526121E-01
 2.562778922E+00 2.037273723E-01 1.024628743E-04
 -5.475669834E-03 1.793057157E-02 4.823923395E-01
 3.185025954E-01 7.044810562E-02 -3.356096107E-01
 8.463819615E-01 4.307076071E-01 -1.268067633E-01
 4.212459594E-01 -6.814787977E-01 -3.733350277E-02
 4.993375768E-01 7.807062040E-02 -4.406300830E-01
 5.238556237E-01 7.618666855E-02 -4.431702232E-01
 5.000534865E-01 5.864377664E-02 -4.600336077E-01
 5.326740315E-01 6.207441481E-01 -1.607331912E-01
 -1.287959548E-01 2.652741843E-01 9.163328391E-02
 3.827332787E-01 6.821941014E-02 -3.861302764E-01
 1.699180784E+00 -1.601225013E-01 1.629902860E-02
 1.525576390E+00 6.241122088E-02 1.350855173E-02
 1.296670619E+00 -1.724222975E-01 5.310928773E-02
 1.564184261E+00 3.221162816E-01 -4.631380924E-03
 1.295600871E+00 2.103594965E-01 1.659427656E-02
 1.476674127E+00 6.036659383E-01 -2.654330909E-02
 1.302102477E+00 -1.535278930E-03 3.679409400E-02
 1.168509007E+00 -6.958714221E-03 7.200451020E-02
 1.139539815E+00 -1.252248810E-01 9.622447249E-02
 1.086112361E+00 -6.178303414E-02 1.218811454E-01
 9.620362203E-01 -1.174537984E-02 2.765371669E-01
 1.053701159E+00 -1.605750307E-01 1.264015209E-01
 9.412372057E-01 -6.858481272E-03 2.930990374E-01
 1.086105678E+00 3.310245950E-02 9.580163398E-02
 1.123624043E+00 -2.573947094E-01 8.859270800E-02
 9.872546090E-01 -2.709885108E-01 1.163779157E-01
 9.152776403E-01 -1.874061993E-01 1.588959124E-01
 8.484068543E-01 -9.730344034E-03 2.836919952E-01
 8.743647761E-01 -1.180168941E-02 2.933107614E-01
 8.221720788E-01 -1.338062439E-02 2.613100244E-01
 1.002796744E+00 -9.906870643E-02 1.753249577E-01
 8.483502142E-01 -2.754011614E-01 1.104412195E-01
 7.766357285E-01 -1.724876522E-01 1.248652767E-01
 7.372977628E-01 -1.872170571E-02 1.728689057E-01
 7.643473618E-01 -1.798905230E-02 2.018594808E-01
 7.185639100E-01 -2.382775196E-02 1.459135222E-01
 7.175248525E-01 -2.860840365E-01 4.269967752E-02
 6.524048042E-01 -2.109602736E-01 7.928992411E-03
 6.392427604E-01 -3.344490199E-02 3.468381491E-02
 5.851448861E-01 -2.616337054E-01 -5.319950699E-02
 5.314091644E-01 -1.790087625E-01 -1.359892115E-01
 5.540524976E-01 -4.650071090E-02 -1.296434258E-01
 7.110964316E-01 -1.197068485E-01 9.211031318E-02
 5.896985843E-01 -1.208873757E-01 -5.473534164E-02
 8.431495822E-01 -1.011747589E-01 2.011533599E-01
 4.733214645E-01 -2.755237891E-01 -1.587461227E-01
 3.995672000E-01 -2.020141536E-01 -2.562380305E-01
 3.269962422E-01 -5.418859951E-02 -4.321024625E-01
 3.051518613E-01 -5.501216253E-02 -4.070119243E-01
 4.690584313E-01 -1.303004220E-01 -2.671083981E-01
 4.706976184E-01 -5.159561166E-02 -3.473367747E-01
 1.051753374E+00 -1.848334287E-02 1.342726887E-01
 1.177614153E+00 9.032505117E-02 4.883477289E-02
 1.072071088E+00 1.178706176E-01 5.515952044E-02
 1.024685762E+00 6.235193068E-02 9.425587815E-02
 9.867345980E-01 1.180522007E-02 1.532080046E-01
 9.943002749E-01 1.298224156E-01 7.584748301E-03
 1.038145493E+00 1.944844405E-02 1.403761312E-01
 5.888669265E-01 -4.194959461E-01 -5.163910043E-02
 9.727414340E-01 7.241085451E-02 1.501015963E-02
 9.137702157E-01 1.223923241E-01 -9.205779687E-02
 9.406807922E-01 1.946873765E-01 -6.968564200E-02
 9.224495500E-01 6.695977930E-02 -8.078185722E-02
 9.293925046E-01 2.290555189E-02 -6.926017827E-02
 8.783663880E-01 8.622361876E-02 -1.446562379E-01
 1.087979368E+00 -4.249251254E-01 7.306367547E-02
 1.041350729E+00 2.152831145E-01 -3.403196085E-03
 1.140997523E+00 3.503238362E-01 -2.089201356E-02
 1.146850631E+00 1.924425929E-01 2.616718521E-02
 3.812845607E-01 -4.122419757E-01 -1.164883691E-01
 9.166564085E-01 -4.358002678E-01 7.327437761E-02
 1.006664838E+00 -6.256064191E-01 5.051573266E-02
 8.906426694E-01 6.023070866E-02 -1.428309990E-01
 1.290343988E+00 -3.753324305E-01 5.106472031E-02
 8.766334609E-01 2.828400908E-01 -1.184591864E-01
 8.629260063E-01 5.926034273E-02 -1.779925619E-01
 8.377657454E-01 8.067434012E-02 -1.925566624E-01
 8.801698668E-01 4.513093879E-02 -1.627212355E-01
 3.415206545E-03 1.974620476E-02 3.108067287E-01
 1.145957752E-02 2.492431270E-02 1.947038395E-01
 3.289744320E-02 3.344826265E-02 -4.371465652E-02
 4.984785492E-02 4.128907605E-02 -8.785987957E-02
 7.654621774E-02 3.453262906E-02 -1.571798905E-01
 2.150200640E-02 2.323921361E-02 1.220826500E-02
 6.361275745E-02 3.200746815E-02 -1.370747712E-01
 6.615936552E-02 4.398410105E-02 -1.252233033E-01
 8.539003615E-02 5.411854278E-02 -1.537259943E-01
 1.053847650E-01 5.425128921E-02 -1.796733182E-01
 5.252455863E-02 6.377868845E-02 -2.671991987E-02
 1.206027245E-02 1.846740349E-02 1.308886857E-01
 8.759187427E-02 3.565548300E-02 -1.758922166E-01
 1.242084232E-02 1.357493551E-02 9.737929126E-02
 1.109185858E-01 4.165556341E-02 -1.995509667E-01
 1.224676015E-01 5.590209375E-02 -1.902641546E-01
 1.432517402E-01 5.735234738E-02 -2.059341637E-01
 1.747915312E-01 9.903084032E-02 -2.119728669E-01
 1.903962924E-01 4.808461981E-02 -2.568700805E-01
 2.058258110E-01 1.262902120E-01 -2.257422190E-01
 1.082308638E-01 7.597332062E-02 -1.694057929E-01
 5.247240240E-01 5.502817451E-02 -4.613009685E-01
 3.727090651E-01 5.627479516E-02 -3.877195546E-01
 9.966714396E-01 4.601777564E-02 1.093873939E-01
 3.108449579E-01 1.395993931E-01 -2.860444148E-01
 5.433862186E-02 2.845051367E-02 -1.279288827E-01
 9.511361346E-01 5.202998715E-02 -1.365893396E-02
 9.108065308E-01 4.363446553E-02 -1.159236788E-01
 9.717753799E-01 3.538655395E-02 5.295058092E-02
 1.009450526E+00 2.360226312E-02 2.043496881E-01
 8.530331636E-01 3.773968026E-02 -2.017237521E-01
 2.070468157E-01 8.880570901E-02 -2.421627004E-01
 3.133974596E+00 6.339745962E-01 -5.258094484E-04
 3.824651415E-02 2.401217366E-02 -1.055116044E-01
 3.133974596E+00 -6.339745962E-01 8.855288924E-03
 8.445812624E-01 5.223708387E-02 -1.999764913E-01
 8.272370318E-01 5.291287779E-02 -2.146663510E-01
 8.001407962E-01 7.031272146E-02 -2.282819575E-01
 7.761230688E-01 4.290722210E-02 -2.584967254E-01
 7.606505161E-01 8.875648851E-02 -2.547085524E-01
 7.628912533E-01 4.239878068E-02 -2.703446482E-01
 7.703676007E-01 5.843504979E-02 -2.591846129E-01
 7.897103492E-01 5.291590325E-02 -2.431130111E-01
 7.447217827E-01 1.330107170E-01 -2.530779983E-01
 7.181119986E-01 8.909908221E-02 -2.942282822E-01
 6.771255498E-01 8.828436142E-02 -3.335348158E-01
 6.366353625E-01 9.805254055E-02 -3.617648483E-01
 6.363865095E-01 5.433132548E-02 -3.918872272E-01
 6.533029474E-01 7.629237964E-02 -3.613890925E-01
 6.971476059E-01 7.169703057E-02 -3.217981986E-01
 7.386713030E-01 6.847657357E-02 -2.810954501E-01
 7.321863009E-01 5.283374433E-02 -2.935076005E-01
 7.170829715E-01 6.081258236E-02 -3.059927762E-01
 6.492630088E-01 5.194094943E-02 -3.790997045E-01
 6.731096148E-01 6.616129553E-02 -3.453558750E-01
 6.302146683E-01 7.134574011E-02 -3.877051140E-01
 6.058695990E-01 7.574675410E-02 -4.021563289E-01
 5.858253486E-01 5.398509487E-02 -4.364108727E-01
 5.725489389E-01 5.763814728E-02 -4.428846619E-01
 5.830966466E-01 7.003997660E-02 -4.256048560E-01
 6.056095332E-01 1.087123667E-01 -3.825974987E-01
 5.981224995E-01 5.735408667E-02 -4.249703073E-01
 6.307630875E-01 1.409265485E-01 -3.419874409E-01
 6.255940781E-01 5.302451202E-02 -4.036208687E-01
 1.619166996E-01 6.667414470E-02 -2.175161726E-01
 1.865298880E-01 6.922398566E-02 -2.367535890E-01
 2.056409225E-01 5.949584841E-02 -2.612018368E-01
 2.247044256E-01 7.132177053E-02 -2.683905716E-01
 1.506187975E-01 4.426235237E-02 -2.325104413E-01
 1.764518012E-01 5.530261333E-02 -2.429451088E-01
 3.963423565E-01 5.639255288E-02 -4.034598623E-01
 4.079828747E-01 5.840933325E-02 -4.123415926E-01
 8.535267855E-01 1.203537374E-01 -1.615598660E-01
 3.745605686E-01 -2.807430514E-01 -1.960867994E-01
 3.047285084E-01 -1.969249260E-01 -2.463199357E-01
 2.279175624E-01 -5.154587122E-02 -3.156008160E-01
 3.549629372E-01 -1.366116646E-01 -3.306612612E-01
 2.791976384E-01 -1.292817212E-01 -2.988207389E-01
 2.133368912E-01 -2.211376191E-01 -1.681812331E-01
 3.168894973E-01 -9.753183358E-02 -3.639659756E-01
 4.172162488E-01 -1.412299771E-01 -3.194319825E-01
 3.868887491E-01 -9.458258172E-02 -3.949884194E-01
 3.985221552E-01 -5.546883810E-02 -4.586681059E-01
 3.523256248E-01 -9.123877318E-02 -3.958252001E-01
 3.546623351E-01 -5.615894797E-02 -4.533403567E-01
 4.272021884E-01 -9.359376080E-02 -3.684279025E-01
 4.691157320E-01 -9.056592113E-02 -3.111652083E-01
 5.049576321E-01 -1.095802300E-01 -2.123572939E-01
 4.929877176E-01 -7.494794816E-02 -2.662449096E-01
 5.218338818E-01 -8.069162724E-02 -1.931557371E-01
 5.243771981E-01 -5.426105576E-02 -1.961569367E-01
 5.471140599E-01 -6.851501142E-02 -1.387173840E-01
 5.721167994E-01 -5.801023839E-02 -8.951628838E-02
 5.774379146E-01 -4.044970097E-02 -7.678208204E-02
 4.955852949E-01 -5.696295794E-02 -2.739862680E-01
 5.909871550E-01 -4.968387342E-02 -5.084750807E-02
 6.101336298E-01 -5.368531579E-02 -1.722041686E-02
 5.956503135E-01 -7.393079598E-02 -4.682017626E-02
 6.282495649E-01 -7.636927902E-02 5.600387501E-03
 5.658203026E-01 -4.091434833E-02 -1.027455956E-01
 4.126320052E-01 -5.559873951E-02 -4.466722429E-01
 4.063569722E-01 -7.250100430E-02 -4.235183317E-01
 4.258359095E-01 -6.749810679E-02 -4.119888902E-01
 3.878387108E-01 -6.739573788E-02 -4.434746635E-01
 4.246237158E-01 -5.305655607E-02 -4.390313388E-01
 3.662229814E-01 -6.969447163E-02 -4.360681962E-01
 5.699120770E-01 -8.585472197E-02 -8.875719706E-02
 5.449806280E-01 -1.079301884E-01 -1.279170250E-01
 3.416413261E-01 -5.373088430E-02 -4.476706631E-01
 4.470720786E-01 -7.249524901E-02 -3.722112293E-01
 4.532072906E-01 -5.767908595E-02 -3.792350990E-01
 6.486091508E-01 -1.353442640E-01 2.084833213E-02
 4.699194020E-01 -6.937325859E-02 -3.300248861E-01
 6.702123152E-01 -8.363505036E-02 6.144197839E-02
 7.071863468E-01 -6.825039942E-02 1.115468777E-01
 7.525992767E-01 -9.547728352E-02 1.473616931E-01
 6.752130433E-01 -5.610526761E-02 7.963801333E-02
 6.669834874E-01 -3.333090990E-02 7.646922540E-02
 7.423718232E-01 -5.402022826E-02 1.579454948E-01
 7.761918749E-01 -6.282961374E-02 1.830369661E-01
 6.519268164E-01 -3.033922363E-02 5.590159962E-02
 6.503669815E-01 -4.966687724E-02 4.777595415E-02
 7.648854308E-01 -4.161710307E-02 1.920973763E-01
 7.328536822E-01 -3.336788812E-02 1.560278376E-01
 7.910612617E-01 -3.347964635E-02 2.157575545E-01
 8.085859286E-01 -5.577115613E-02 2.144799136E-01
 7.791477948E-01 -2.000878924E-02 2.145928160E-01
 7.115432655E-01 -4.161471745E-02 1.307212019E-01
 6.285810601E-01 -4.797966811E-02 1.309400233E-02
 7.983153850E-01 -1.010077661E-01 1.802562171E-01
 8.709122074E-01 -6.442630351E-02 2.399108563E-01
 8.421504477E-01 -4.154491685E-02 2.497315456E-01
 7.517632131E-01 -2.958241262E-02 1.813237430E-01
 6.134035701E-01 -3.719100272E-02 -8.105915027E-03
 6.261488363E-01 -3.285731152E-02 1.300160121E-02
 3.398186671E-01 -7.011405930E-02 -4.198798908E-01
 3.178077447E-01 -7.015505138E-02 -4.020343971E-01
 3.003123765E-01 -7.162428925E-02 -3.816133363E-01
 2.766614851E-01 -8.292128158E-02 -3.406869541E-01
 2.369007059E-01 -1.053763528E-01 -2.791500784E-01
 2.538368415E-01 -5.381097877E-02 -3.469287940E-01
 2.384626641E-01 -1.559489295E-01 -2.459537745E-01
 1.776823190E-01 -1.278148674E-01 -1.956384862E-01
 1.088742904E-01 -1.906009543E-01 -7.001766514E-02
 1.030197657E-01 -1.172768114E-01 -9.114384815E-02
 3.201442937E-02 -1.413813044E-01 5.334426157E-02
 2.928121888E-02 -2.253204711E-02 -4.291223103E-02
 2.011108172E-01 -8.551107720E-02 -2.557887908E-01
 2.018849225E-01 -5.049940678E-02 -2.846707103E-01
 6.452167097E-02 -8.495051014E-02 -4.943290709E-02
 -3.131491905E-02 -1.025373097E-01 1.971408330E-01
 2.365693081E-02 -6.683557099E-02 9.843619470E-02
 -1.203143267E-02 -4.596763471E-02 3.165559594E-01
 1.517783760E-02 -1.517196492E-02 2.242000953E-02
 -6.029530918E-02 -4.933183997E-02 2.928400379E-01
 -2.999677773E-02 -1.488969755E-02 4.969191027E-01
 1.015207583E-01 -7.332998882E-02 -1.357630252E-01
 9.335498828E-02 -3.757808536E-02 -1.632642661E-01
 1.388914017E-01 -8.051688896E-02 -1.783858717E-01
 1.572333030E-01 -4.347803896E-02 -2.319680144E-01
 1.731061341E-01 -7.701191405E-02 -2.268088172E-01
 1.394811268E-01 -5.554112358E-02 -1.987623542E-01
 1.443532451E-01 -4.327695031E-02 -2.189763233E-01
 2.500471350E-01 -7.072630491E-02 -3.266335478E-01
 1.679800710E-01 -4.566034823E-02 -2.446947386E-01
 1.911780855E-01 -6.382615362E-02 -2.609122201E-01