TITLE     = "Visualization of the solution"
VARIABLES = "x"
"y"
"Pressure_Coefficient"
ZONE T="Zone"
 STRANDID=0, SOLUTIONTIME=0
 Nodes=693, Elements=1171, ZONETYPE=FEQuadrilateral
 DATAPACKING=POINT
 DT=(DOUBLE DOUBLE DOUBLE )
 1.000404835E+00 5.129084457E-04 3.122423112E-01
 9.881462455E-01 2.823490417E-03 2.655973101E-01
 9.753645658E-01 5.206014961E-03 1.750248867E-01
 9.600897431E-01 8.129745722E-03 1.064294032E-01
 9.457998872E-01 1.084566303E-02 5.648687610E-02
 9.311596155E-01 1.352207828E-02 1.205211661E-02
 9.198195934E-01 1.565407775E-02 -2.461513636E-02
 9.073470831E-01 1.791475154E-02 -5.007721170E-02
 8.951034546E-01 2.003425173E-02 -8.272949667E-02
 8.830950260E-01 2.217102982E-02 -1.187096373E-01
 8.705460429E-01 2.429745905E-02 -1.451304919E-01
 8.581860065E-01 2.631226555E-02 -1.639312938E-01
 8.454710245E-01 2.832457237E-02 -1.810176971E-01
 8.341293335E-01 3.008683398E-02 -1.979058407E-01
 8.223832846E-01 3.188915923E-02 -2.154894600E-01
 8.093955517E-01 3.382856026E-02 -2.415092411E-01
 7.967497110E-01 3.571626917E-02 -2.624665852E-01
 7.844640613E-01 3.745614737E-02 -2.729871690E-01
 7.721387744E-01 3.916566446E-02 -2.926719623E-01
 7.604675293E-01 4.080208763E-02 -3.129352310E-01
 7.474323511E-01 4.253544658E-02 -3.315429898E-01
 7.338959575E-01 4.432090372E-02 -3.543363590E-01
 7.233648300E-01 4.567417130E-02 -3.730362154E-01
 7.123733759E-01 4.704741389E-02 -3.928674100E-01
 7.008246183E-01 4.845814407E-02 -4.142233068E-01
 6.872691512E-01 5.005635694E-02 -4.347250203E-01
 6.741556525E-01 5.153979734E-02 -4.633006252E-01
 6.644369960E-01 5.264033005E-02 -4.895790785E-01
 6.528323889E-01 5.386983603E-02 -5.069892986E-01
 6.411889791E-01 5.504418537E-02 -5.282691596E-01
 6.295571327E-01 5.617721751E-02 -5.549835751E-01
 6.184083223E-01 5.722140148E-02 -5.752735525E-01
 6.073379517E-01 5.817371234E-02 -5.954917105E-01
 5.948600173E-01 5.920859054E-02 -6.237748202E-01
 5.833896399E-01 6.009934098E-02 -6.459449873E-01
 5.701393485E-01 6.103348732E-02 -6.634319700E-01
 5.577920675E-01 6.181517988E-02 -6.848539603E-01
 5.458189845E-01 6.253299862E-02 -7.016181634E-01
 5.351394415E-01 6.310186535E-02 -7.012243939E-01
 5.234997272E-01 6.362225860E-02 -7.044257069E-01
 5.110448599E-01 6.416365504E-02 -7.058663420E-01
 4.997555614E-01 6.453834474E-02 -7.003705723E-01
 4.867615998E-01 6.493245810E-02 -6.933930204E-01
 4.732930064E-01 6.522256136E-02 -6.809789108E-01
 4.591355026E-01 6.544972956E-02 -6.729259708E-01
 4.457381368E-01 6.558209658E-02 -6.618600372E-01
 4.327456951E-01 6.561445445E-02 -6.518429146E-01
 4.198479056E-01 6.559639424E-02 -6.444128243E-01
 4.074380696E-01 6.550086290E-02 -6.320451836E-01
 3.950075209E-01 6.532258540E-02 -6.180841409E-01
 3.825345933E-01 6.508328766E-02 -6.063939013E-01
 3.710173666E-01 6.480387598E-02 -5.941987962E-01
 3.579774201E-01 6.441635638E-02 -5.814826102E-01
 3.454944491E-01 6.397263706E-02 -5.685777476E-01
 3.325864077E-01 6.344802678E-02 -5.558706385E-01
 3.215041161E-01 6.293161213E-02 -5.441106155E-01
 3.089336455E-01 6.229979545E-02 -5.294901920E-01
 2.954204679E-01 6.151993945E-02 -5.146369439E-01
 2.812363505E-01 6.063708290E-02 -5.036951601E-01
 2.685086727E-01 5.976025015E-02 -4.913805969E-01
 2.563137114E-01 5.885196477E-02 -4.779617038E-01
 2.435340136E-01 5.781758949E-02 -4.625031313E-01
 2.305864543E-01 5.668294430E-02 -4.486697312E-01
 2.181998640E-01 5.552561581E-02 -4.347427324E-01
 2.062246799E-01 5.432071909E-02 -4.203114895E-01
 1.946967095E-01 5.309083685E-02 -4.077769531E-01
 1.821927875E-01 5.168239027E-02 -3.931902829E-01
 1.701939106E-01 5.022253469E-02 -3.783368597E-01
 1.587402970E-01 4.876733571E-02 -3.622087469E-01
 1.468604356E-01 4.714872316E-02 -3.425943875E-01
 1.362620890E-01 4.561259598E-02 -3.208578390E-01
 1.247015744E-01 4.384683445E-02 -3.003634170E-01
 1.133244485E-01 4.198906571E-02 -2.790521976E-01
 1.027956381E-01 4.015898705E-02 -2.608320202E-01
 9.304609150E-02 3.835832700E-02 -2.360275476E-01
 8.203609288E-02 3.618682176E-02 -2.064441250E-01
 7.040367275E-02 3.370850906E-02 -1.867478784E-01
 6.085561216E-02 3.150568157E-02 -1.605142008E-01
 5.119051784E-02 2.907403000E-02 -1.177860428E-01
 4.263870046E-02 2.672956884E-02 -7.111301634E-02
 3.536912054E-02 2.454410866E-02 -3.534821914E-02
 2.904310822E-02 2.246001922E-02 -3.007516289E-03
 2.359753661E-02 2.049995959E-02 4.231287605E-02
 1.968166977E-02 1.894980855E-02 1.026255048E-01
 1.599373668E-02 1.736302115E-02 1.738754225E-01
 1.318689436E-02 1.604523696E-02 2.317775652E-01
 1.064627804E-02 1.474686805E-02 2.638456511E-01
 8.795819245E-03 1.371800713E-02 3.202295115E-01
 7.144938689E-03 1.272741798E-02 3.256993560E-01
 5.606736988E-03 1.171596441E-02 3.856632741E-01
 3.555621486E-03 1.019765995E-02 5.500920249E-01
 1.768627320E-03 8.626357652E-03 5.943660864E-01
 2.605999180E-04 6.981920451E-03 5.783244133E-01
 -1.200742787E-03 4.719261546E-03 7.014588519E-01
 -1.848693704E-03 2.996014897E-03 9.422543847E-01
 -2.079924569E-03 1.605863217E-03 1.114148983E+00
 -2.031991025E-03 7.109605212E-05 7.720083868E-01
 -1.659405651E-03 -1.530157286E-03 7.931570646E-01
 -8.017480723E-04 -3.410892328E-03 6.382852290E-01
 5.518476246E-04 -5.347739439E-03 5.414122153E-01
 2.489849227E-03 -7.391839754E-03 4.538164891E-01
 4.225338344E-03 -8.866335265E-03 3.541643638E-01
 6.234755740E-03 -1.033280045E-02 2.696142814E-01
 7.807085756E-03 -1.135816518E-02 2.296187363E-01
 9.827952832E-03 -1.255061850E-02 2.144801033E-01
 1.213250868E-02 -1.378447562E-02 1.688987904E-01
 1.534455270E-02 -1.533699781E-02 1.036888511E-01
 1.829654723E-02 -1.662112027E-02 3.498920384E-02
 2.212471701E-02 -1.814271323E-02 1.737315931E-04
 2.749643847E-02 -2.005548961E-02 -2.432517845E-02
 3.324674442E-02 -2.189500630E-02 -7.114101832E-02
 4.048919305E-02 -2.396549471E-02 -1.024301451E-01
 4.817846417E-02 -2.594907768E-02 -1.360650640E-01
 5.718438327E-02 -2.805589326E-02 -1.701622585E-01
 6.596773863E-02 -2.992238849E-02 -2.030689558E-01
 7.613885403E-02 -3.192497045E-02 -2.238285407E-01
 8.627919853E-02 -3.375832736E-02 -2.476974873E-01
 9.664636105E-02 -3.549820930E-02 -2.620849512E-01
 1.077151820E-01 -3.724328056E-02 -2.749921224E-01
 1.191440821E-01 -3.892908245E-02 -2.886468668E-01
 1.307673007E-01 -4.053028300E-02 -3.027678971E-01
 1.416134238E-01 -4.193885997E-02 -3.156845585E-01
 1.526656300E-01 -4.330210388E-02 -3.280816683E-01
 1.647991538E-01 -4.470407963E-02 -3.438473345E-01
 1.765503585E-01 -4.597885907E-02 -3.584400744E-01
 1.885738820E-01 -4.721011594E-02 -3.737299420E-01
 1.993189901E-01 -4.824335128E-02 -3.910623769E-01
 2.106654197E-01 -4.927275702E-02 -4.071872864E-01
 2.231438160E-01 -5.032205954E-02 -4.251800573E-01
 2.361195385E-01 -5.131431669E-02 -4.414913625E-01
 2.486384511E-01 -5.219712853E-02 -4.590143500E-01
 2.613494992E-01 -5.301408097E-02 -4.793855667E-01
 2.725916505E-01 -5.365129560E-02 -5.003403741E-01
 2.854408324E-01 -5.429114029E-02 -5.169832068E-01
 2.983546853E-01 -5.484327674E-02 -5.379942181E-01
 3.111774623E-01 -5.526985228E-02 -5.560518865E-01
 3.229629993E-01 -5.557660758E-02 -5.718336303E-01
 3.354878724E-01 -5.580211803E-02 -5.848608500E-01
 3.464369476E-01 -5.590119958E-02 -5.979186523E-01
 3.577239811E-01 -5.590408295E-02 -6.052030713E-01
 3.687542081E-01 -5.582284927E-02 -6.095045525E-01
 3.794563115E-01 -5.565196276E-02 -6.114797288E-01
 3.908935487E-01 -5.537194014E-02 -6.095700924E-01
 4.037560225E-01 -5.491174012E-02 -5.994074946E-01
 4.160804749E-01 -5.434574932E-02 -5.791578506E-01
 4.288907051E-01 -5.362438783E-02 -5.523650178E-01
 4.414494932E-01 -5.278675258E-02 -5.194500435E-01
 4.537006021E-01 -5.184989795E-02 -4.841560847E-01
 4.657122791E-01 -5.083834007E-02 -4.491957476E-01
 4.781497717E-01 -4.966899380E-02 -4.119921553E-01
 4.895668030E-01 -4.851211607E-02 -3.735700359E-01
 5.019461513E-01 -4.716112092E-02 -3.302287945E-01
 5.156871080E-01 -4.556660727E-02 -2.844484270E-01
 5.293185115E-01 -4.392504320E-02 -2.444334226E-01
 5.429540277E-01 -4.220604524E-02 -2.083889522E-01
 5.560266972E-01 -4.051282257E-02 -1.740512437E-01
 5.690102577E-01 -3.877118602E-02 -1.408610591E-01
 5.820687413E-01 -3.699176386E-02 -1.064527038E-01
 5.941556096E-01 -3.534325585E-02 -8.117365883E-02
 6.064478159E-01 -3.363998234E-02 -5.586708140E-02
 6.204558015E-01 -3.167356551E-02 -2.700983972E-02
 6.346771121E-01 -2.967599221E-02 4.036762899E-03
 6.490579844E-01 -2.767914720E-02 2.747828008E-02
 6.622896791E-01 -2.583451569E-02 4.901746928E-02
 6.756363511E-01 -2.397822402E-02 7.272931070E-02
 6.880242229E-01 -2.228739671E-02 9.390241553E-02
 7.006050348E-01 -2.058231458E-02 1.104945584E-01
 7.148013711E-01 -1.867446862E-02 1.314232307E-01
 7.275876403E-01 -1.696319319E-02 1.522874248E-01
 7.394956350E-01 -1.540414430E-02 1.714940898E-01
 7.522938848E-01 -1.377244294E-02 1.886177712E-01
 7.646548152E-01 -1.225691102E-02 2.024193720E-01
 7.772952914E-01 -1.068156958E-02 2.225279106E-01
 7.890129685E-01 -9.322003461E-03 2.412551498E-01
 8.018805385E-01 -7.880933583E-03 2.510227360E-01
 8.126751184E-01 -6.677949801E-03 2.684372942E-01
 8.244631886E-01 -5.461849738E-03 2.847171437E-01
 8.371072412E-01 -4.199103452E-03 2.980110948E-01
 8.494535685E-01 -3.067235462E-03 3.144258190E-01
 8.616003990E-01 -2.055962337E-03 3.260600067E-01
 8.736634254E-01 -1.148215961E-03 3.352036341E-01
 8.856787682E-01 -3.595833550E-04 3.450133468E-01
 8.987757564E-01 3.664862597E-04 3.549818161E-01
 9.091889858E-01 8.110064664E-04 3.616965962E-01
 9.193418026E-01 1.160625834E-03 3.622769792E-01
 9.287778735E-01 1.389103127E-03 3.635709526E-01
 9.378653765E-01 1.529082190E-03 3.642351912E-01
 9.499346614E-01 1.602989738E-03 3.622408977E-01
 9.628431201E-01 1.541329082E-03 3.587836681E-01
 9.771978259E-01 1.304254401E-03 3.657480356E-01
 9.892331958E-01 9.530797834E-04 3.475494574E-01
 -5.000000000E-01 -1.000000000E+00 4.553449001E-02
 3.500000000E+00 -1.000000000E+00 1.239582153E-02
 3.500000000E+00 1.000000000E+00 -1.478100579E-03
 -5.000000000E-01 1.000000000E+00 4.570523429E-02
 -5.000000000E-01 5.000000000E-01 9.510302643E-02
 -5.000000000E-01 2.752797990E-12 1.433432796E-01
 -5.000000000E-01 -5.000000000E-01 9.684070152E-02
 -9.421907698E-13 -1.000000000E+00 2.278352665E-02
 5.000000000E-01 -1.000000000E+00 -2.256894377E-02
 1.000000000E+00 -1.000000000E+00 2.638806028E-03
 1.500000000E+00 -1.000000000E+00 3.549333294E-02
 2.000000000E+00 -1.000000000E+00 3.089534068E-02
 2.500000000E+00 -1.000000000E+00 2.061679959E-02
 3.000000000E+00 -1.000000000E+00 1.474280177E-02
 3.500000000E+00 -5.000000000E-01 1.316309418E-02
 3.500000000E+00 -2.752797990E-12 1.285506762E-02
 3.500000000E+00 5.000000000E-01 5.750232876E-03
 3.000000000E+00 1.000000000E+00 -7.478439351E-03
 2.500000000E+00 1.000000000E+00 -1.650631694E-02
 2.000000000E+00 1.000000000E+00 -3.399339853E-02
 1.500000000E+00 1.000000000E+00 -7.603275942E-02
 1.000000000E+00 1.000000000E+00 -1.329408215E-01
 5.000000000E-01 1.000000000E+00 -8.892936303E-02
 1.733724275E-12 1.000000000E+00 9.324067615E-03
 6.822977660E-01 -3.536242243E-02 7.978817629E-02
 7.861955361E-01 -2.018099078E-02 2.280693161E-01
 9.030168209E-01 -7.608445389E-03 3.476585924E-01
 7.065925880E-01 5.937487505E-02 -3.966436782E-01
 2.780804300E-01 -6.397396157E-02 -4.937629499E-01
 2.732267876E-01 7.303628949E-02 -4.809413708E-01
 3.646536002E-01 7.903358051E-02 -5.727783132E-01
 9.202662014E-01 2.891585624E-02 -2.053203645E-02
 8.037951146E-01 4.775301872E-02 -2.463235167E-01
 5.685306559E-01 -5.520750321E-02 -1.389478772E-01
 6.130210974E-01 6.953602883E-02 -5.736374744E-01
 3.990500988E-01 -6.409455883E-02 -5.866468265E-01
 5.198732394E-01 7.593137159E-02 -6.893854126E-01
 1.709021287E+00 -5.358589064E-01 3.214098872E-02
 1.774593764E+00 6.231785058E-01 -2.239977417E-02
 3.031174293E+00 2.156845976E-01 5.660865488E-03
 7.395101990E-01 -5.948670526E-01 -8.720112354E-03
 4.717470044E-01 -5.999693491E-02 -4.173542078E-01
 7.649729037E-01 5.886892089E-01 -2.034120155E-01
 3.513474854E-01 6.034975660E-01 -1.810590781E-01
 1.169481740E-01 5.589932429E-02 -2.623605727E-01
 1.736127277E-01 6.655344266E-02 -3.615233876E-01
 4.392698366E-01 7.680906260E-02 -6.429287349E-01
 2.734851149E+00 -5.326884460E-01 1.265456068E-02
 1.214430026E+00 6.964077489E-01 -6.722823644E-02
 9.868357351E-01 3.442074975E-01 -5.806431206E-02
 1.285508747E+00 -6.665743108E-01 4.935140436E-02
 1.511712904E+00 -2.629973343E-01 3.844806559E-02
 2.565805735E-01 -6.156260579E-01 -4.892042394E-02
 8.272497034E-02 -4.302950257E-02 -2.149728232E-01
 1.384741518E-01 -5.155961009E-02 -2.987028406E-01
 1.927377417E-01 -5.936275279E-02 -3.675920685E-01
 2.227717502E+00 -5.780312564E-01 1.704951515E-02
 2.011936009E+00 -2.079882941E-01 1.298696623E-02
 2.414524260E+00 -1.841430784E-01 7.797422630E-03
 2.184631243E+00 1.582502876E-01 1.179573307E-03
 1.824172436E+00 7.074824124E-02 7.266590002E-03
 -2.710306119E-01 -2.547121209E-01 1.551260822E-01
 -1.827684301E-01 -5.683249287E-01 6.710467253E-02
 -2.559398553E-01 2.352618397E-01 1.610672193E-01
 -1.195539426E-01 6.395894173E-01 3.352545701E-02
 2.696496682E-02 3.293048417E-01 9.182274667E-03
 5.285191415E-02 4.163060559E-02 -8.318330530E-02
 2.225067273E+00 5.653625313E-01 -1.116205405E-02
 2.743675337E+00 5.978792414E-01 -3.133995212E-03
 -2.510340331E-01 -1.035508780E-03 2.072965856E-01
 -1.421888983E-01 -1.289867388E-01 2.303597654E-01
 1.852599534E-02 -3.703168003E-01 2.378463174E-02
 2.955329514E-01 -2.975323516E-01 -2.235498468E-01
 3.365928583E-01 -6.728955144E-02 -5.656820622E-01
 -1.150166710E-01 1.054542569E-01 2.498657261E-01
 -1.265360000E-01 -1.692109619E-03 3.051221907E-01
 -5.736626303E-02 -6.644344996E-02 3.277600540E-01
 4.333408154E-02 -3.168321449E-02 -8.708879426E-02
 2.230971988E-02 -2.660309527E-02 5.161334566E-02
 -5.022762529E-02 -1.501777153E-01 2.000769672E-01
 4.774583784E-03 -9.412138488E-02 1.798308856E-01
 2.530070850E-02 -2.002543679E-01 4.893172914E-02
 -1.487783846E-02 -5.088528152E-02 3.595311578E-01
 1.011586199E-02 -1.598686290E-02 2.177166701E-01
 -4.210056246E-02 -3.052183847E-03 5.779732234E-01
 6.921528168E-02 -1.153611714E-01 -6.199118777E-02
 1.152604289E-01 -1.593243793E-01 -1.352037207E-01
 1.205120862E-01 -9.982842056E-02 -2.111854321E-01
 1.758530805E-01 -1.245820305E-01 -2.720974368E-01
 2.424968328E-01 -6.729085362E-02 -4.332289170E-01
 1.880557218E-01 -1.899291930E-01 -2.293482518E-01
 2.365199312E-01 -1.476379714E-01 -3.343082398E-01
 1.205874437E-01 -2.648213731E-01 -8.781997320E-02
 2.209065434E-01 -1.031549963E-01 -3.599751588E-01
 2.155426859E-01 -6.257114600E-02 -3.996144109E-01
 2.683506578E-01 -1.087925219E-01 -4.170118570E-01
 2.940367862E-01 -1.525795373E-01 -3.865866675E-01
 3.163221259E-01 -1.069436270E-01 -4.761078729E-01
 3.463517435E-01 -1.488953043E-01 -4.298409082E-01
 3.049734047E-01 -6.501267146E-02 -5.304440103E-01
 3.600044687E-01 -1.046712907E-01 -5.084333800E-01
 3.954748620E-01 -1.396923168E-01 -4.457944816E-01
 4.348881231E-01 -6.534561801E-02 -5.141461561E-01
 3.905520514E-01 -1.849432712E-01 -3.748299367E-01
 4.514276739E-01 -1.793387936E-01 -3.310437540E-01
 4.086993833E-01 -2.718136513E-01 -2.645266480E-01
 5.155488372E-01 -2.297821676E-01 -1.880632944E-01
 6.292834211E-01 -4.289835160E-02 -1.460619953E-02
 6.023150493E-01 -4.590820657E-02 -6.700475715E-02
 5.097775549E-01 -3.619308782E-01 -1.485868995E-01
 3.710322306E-01 -6.876766863E-02 -5.828765831E-01
 5.511974376E-01 -1.600367465E-01 -1.553626448E-01
 6.046837428E-01 -1.967845800E-01 -6.781718052E-02
 5.089432438E-01 -6.461967244E-02 -2.964870911E-01
 6.257770920E-01 -1.299256680E-01 -3.271466963E-02
 6.811018600E-01 -1.794507656E-01 3.146611968E-02
 7.347046854E-01 -2.463673857E-02 1.593127506E-01
 7.597868391E-01 -2.371955676E-02 1.924777188E-01
 6.804669810E-01 -2.705766190E-01 1.260375654E-02
 7.638959720E-01 -2.106366886E-01 1.026315293E-01
 9.689242108E-01 -1.053403510E-02 3.422991587E-01
 9.429932693E-01 -1.003299842E-02 3.485343554E-01
 8.452770501E-01 -1.535720607E-02 2.962320962E-01
 8.194904957E-01 -1.588744316E-02 2.679078382E-01
 7.692405873E-01 -1.250232212E-01 1.444280556E-01
 8.477521825E-01 -1.629921141E-01 1.774316392E-01
 8.659797859E-01 -2.595244366E-01 1.347412385E-01
 9.561006857E-01 -1.899982459E-01 1.833505429E-01
 9.842875491E-01 -3.089355864E-01 1.288195405E-01
 1.090041036E+00 -2.337223012E-01 1.300287930E-01
 8.374705648E-01 -8.328417448E-02 2.314023739E-01
 1.054714457E+00 -1.129185030E-01 1.828583443E-01
 1.150638116E+00 -1.404303175E-01 1.186105917E-01
 1.123685476E+00 -2.119294542E-02 1.179012071E-01
 1.254407625E+00 -4.788161210E-02 7.183976469E-02
 1.200669388E+00 1.049884110E-01 6.417890235E-02
 9.685348525E-01 -1.037435984E-01 2.397860942E-01
 7.011598589E-01 -1.018124430E-01 8.281648811E-02
 1.249084383E+00 -2.467743319E-01 7.882902930E-02
 1.008268020E+00 -5.648514073E-02 2.596561327E-01
 1.388094516E+00 7.568654964E-02 3.618515747E-02
 7.893200588E-01 -7.340881754E-02 1.967375652E-01
 4.800561458E-01 -1.265438483E-01 -3.212730943E-01
 6.549811826E-01 -8.774010998E-02 2.195263211E-02
 6.561659635E-01 -3.973562992E-02 3.524961682E-02
 1.303017911E+00 2.673786147E-01 1.909156680E-02
 4.358951968E-01 -1.109722108E-01 -4.339493017E-01
 5.744239052E-01 -1.069978768E-01 -1.167243724E-01
 1.053762454E+00 -3.161884032E-02 1.872579319E-01
 1.073565112E+00 1.076181474E-01 9.703385728E-02
 9.716165974E-01 2.101620929E-02 1.285775047E-01
 9.649842203E-01 -5.566936734E-02 2.902413601E-01
 9.248741147E-01 -7.440758536E-02 2.723534319E-01
 9.325602741E-01 -4.121610175E-02 3.137250585E-01
 9.271776540E-01 -9.246766778E-03 3.509659645E-01
 8.981687061E-01 -4.346991309E-02 3.032947664E-01
 8.675244828E-01 -1.339129980E-02 3.171155142E-01
 1.577145317E-01 -8.641725214E-02 -2.837531794E-01
 1.677229119E-01 -5.424757413E-02 -3.353292252E-01
 9.848410572E-01 -9.069008413E-03 3.501430359E-01
 9.766285350E-01 -2.793120894E-02 3.074499687E-01
 9.952249675E-01 -2.528874465E-02 3.273345703E-01
 9.553992109E-01 -2.490148039E-02 3.323629115E-01
 6.147262254E-01 -8.653636282E-02 -4.740675471E-02
 1.901237029E-02 -5.741401475E-02 1.713386139E-01
 5.233234050E-02 -7.114646284E-02 -2.639677793E-02
 5.650600040E-02 -3.597272787E-02 -1.374111674E-01
 3.109362306E+00 -2.612721550E-01 1.151458167E-02
 8.696602616E-02 -7.925034802E-02 -1.787125483E-01
 1.087766877E-01 -4.815129708E-02 -2.582529610E-01
 7.756239153E-01 -3.372108152E-01 6.116675925E-02
 6.372601301E-01 -3.968267090E-01 -3.847045517E-02
 5.194885628E-01 -5.247255149E-01 -9.183017807E-02
 1.020783527E+00 -1.722623320E-02 2.424631290E-01
 1.042581544E+00 2.272114329E-02 1.771730897E-01
 8.935704492E-01 -8.102426980E-03 3.433527545E-01
 3.998732671E-01 -1.002476231E-01 -5.128349278E-01
 9.560188945E-01 -8.464839017E-03 3.499155636E-01
 -2.662487844E-02 -3.136911543E-02 5.158277269E-01
 9.260338230E-04 -1.025677185E-02 5.749797160E-01
 2.583265205E-01 -2.091435656E-01 -2.943636700E-01
 9.090517950E-01 -1.280977995E-01 2.286729092E-01
 4.107425930E-01 -6.555162879E-02 -5.664280491E-01
 1.121699760E+00 -4.068318548E-01 8.356377818E-02
 1.020694190E+00 -6.607569896E-01 5.328711282E-02
 8.838752158E-01 -8.175763491E-02 2.587325266E-01
 8.600686218E-01 -4.908056533E-02 2.761543263E-01
 8.274187114E-01 -5.239089004E-02 2.450830663E-01
 7.983935508E-01 -4.530583588E-02 2.230134671E-01
 7.702872769E-01 -5.374653321E-02 1.868134043E-01
 7.981596937E-01 -2.840910109E-02 2.361108809E-01
 7.498389404E-01 -7.792983864E-02 1.450356658E-01
 7.149344912E-01 -6.593537532E-02 1.113271854E-01
 7.091794355E-01 -3.061308003E-02 1.171813758E-01
 3.768498701E-03 -3.845720512E-02 3.042161853E-01
 7.408778044E-01 -5.315466619E-02 1.518851488E-01
 8.308269485E-01 -1.762716283E-02 2.788876053E-01
 8.400912236E-01 -3.279053010E-02 2.781489055E-01
 8.576079142E-01 -2.705340945E-02 2.977909024E-01
 4.658796244E-01 -9.728593440E-02 -3.902183616E-01
 4.977318146E-01 -9.101797258E-02 -3.113367468E-01
 7.465920599E-01 -2.551049392E-02 1.746094862E-01
 7.736320398E-01 -2.043443631E-02 2.103318922E-01
 6.417072120E-01 -3.980826780E-02 1.443118480E-02
 6.399084741E-01 -5.822584130E-02 4.151246600E-03
 7.229515995E-01 -2.852725241E-02 1.407886047E-01
 8.079958242E-01 -1.856501583E-02 2.530848706E-01
 1.581878563E+00 2.626127054E-01 2.549842611E-03
 1.443138949E+00 5.229271144E-01 -1.914802705E-02
 6.943334242E-01 -3.143496933E-02 9.833892189E-02
 6.964709207E-01 -4.696427899E-02 9.735930990E-02
 6.707822523E-01 -5.161057828E-02 5.345479766E-02
 4.468336960E-01 -6.216717225E-02 -4.861982221E-01
 4.480677980E-01 -7.911957574E-02 -4.594933420E-01
 4.228386033E-01 -8.046561836E-02 -5.175086192E-01
 5.850965724E-01 -7.374938687E-02 -1.033977949E-01
 5.866382449E-01 -5.427420210E-02 -9.447756778E-02
 5.535045683E-01 -7.679468198E-02 -1.712754379E-01
 5.384974861E-01 -5.878901863E-02 -2.141686727E-01
 5.250377088E-01 -7.694506635E-02 -2.381975943E-01
 4.924740552E-01 -7.204268414E-02 -3.413517580E-01
 5.234968116E-01 -5.796908158E-02 -2.532360881E-01
 5.519026870E-01 -5.470201433E-02 -1.800751178E-01
 9.353625657E-02 -5.655956990E-02 -2.199582561E-01
 1.114426572E-01 -6.945159273E-02 -2.313787537E-01
 6.136891954E-01 -4.307760209E-02 -4.408806950E-02
 4.601931433E-01 -6.219361310E-02 -4.493590378E-01
 8.562926829E-01 -1.218502262E-02 3.112872407E-01
 2.559207701E+00 2.060631824E-01 3.661723781E-04
 8.803486839E-01 -1.107739004E-02 3.314957050E-01
 8.772917709E-01 -2.765096335E-02 3.079210974E-01
 -8.866475750E-03 -2.917360257E-02 4.429183248E-01
 1.874380543E-01 -9.199949362E-02 -3.209620309E-01
 1.516930112E-01 -6.427082770E-02 -3.035140541E-01
 6.876657411E-01 -7.081255712E-02 7.125584838E-02
 1.594998672E+00 -3.934411185E-02 2.055267525E-02
 3.596924500E-01 -4.121140962E-01 -1.617264646E-01
 2.917556161E-01 -9.056452435E-02 -4.730816825E-01
 3.402742690E-01 -8.629964037E-02 -5.350635224E-01
 9.166458466E-01 -2.543918035E-02 3.279910433E-01
 9.000322169E-01 -2.183320238E-02 3.302651153E-01
 7.300415253E-02 -5.865788392E-02 -1.704818762E-01
 4.559404480E-02 -4.615567944E-02 -6.279941258E-02
 9.100495435E-01 -4.389612280E-01 8.419692806E-02
 8.174823497E-01 -3.013942556E-02 2.563202368E-01
 1.338955818E-01 -7.004971753E-02 -2.644650330E-01
 3.609931391E-01 -8.295733119E-02 -5.528608824E-01
 3.233285291E-01 -7.622820898E-02 -5.324640136E-01
 3.803492696E-01 -8.358849898E-02 -5.525241733E-01
 2.916052860E-01 -7.064113004E-02 -5.038655909E-01
 3.998069604E-01 -7.639161017E-02 -5.571083453E-01
 9.862764356E-01 -4.134361542E-02 2.826160146E-01
 1.787952285E-01 -7.022521930E-02 -3.334659775E-01
 2.027231827E-01 -7.508609039E-02 -3.654604635E-01
 1.730368262E+00 -1.950880811E-01 2.052031077E-02
 9.965898433E-01 5.775674525E-01 -9.938186882E-02
 7.655365618E-01 2.881046064E-01 -2.468308781E-01
 8.467231906E-01 4.325339300E-01 -1.643340563E-01
 5.579622912E-01 4.515053902E-01 -2.844834870E-01
 5.497720753E-01 2.613900143E-01 -4.431994098E-01
 5.678454449E-01 7.460339675E-02 -6.524116140E-01
 5.518332770E-01 6.791105506E-01 -2.065037506E-01
 3.097209864E-01 3.472168885E-01 -2.783698172E-01
 1.523326268E-01 4.939481481E-01 -7.297431325E-02
 3.867647366E-01 -6.731103992E-02 -5.856814503E-01
 3.133974596E+00 6.339745962E-01 -9.125056547E-04
 3.322499061E-01 -2.108179469E-01 -3.384856269E-01
 6.694344024E-01 -3.530427407E-02 5.907652202E-02
 4.228132433E-01 -6.396772978E-02 -5.473350902E-01
 2.478277388E-01 -8.728506921E-02 -4.168710372E-01
 2.263956171E-01 -7.603647066E-02 -3.991772339E-01
 2.592219687E-01 -7.374477213E-02 -4.485083207E-01
 3.133974596E+00 -6.339745962E-01 1.184751843E-02
 9.125672211E-01 -1.035932710E-02 3.452730417E-01
 -1.003981436E-01 -2.787954453E-01 1.160256157E-01
 2.661680270E-01 -6.411404522E-02 -4.745004114E-01
 2.550023899E-01 -6.191657098E-02 -4.587142281E-01
 4.509183820E-01 3.578981535E-01 -3.555338800E-01
 4.055924049E-01 2.330358272E-01 -4.460584113E-01
 2.685589131E-01 2.291263823E-01 -3.242025277E-01
 2.244004387E-01 6.809322592E-02 -4.275546258E-01
 4.986620512E-01 1.736017516E-01 -5.486758315E-01
 4.844460760E-01 7.909452642E-02 -6.714572857E-01
 3.352213051E-01 1.668853114E-01 -4.469781336E-01
 3.127634973E-01 7.938670006E-02 -5.178341096E-01
 3.430416757E-01 7.769354681E-02 -5.532604401E-01
 3.297734024E-01 2.440661024E-01 -3.891787274E-01
 2.555711527E-01 1.502226441E-01 -3.768388457E-01
 1.846482129E-01 1.980484516E-01 -2.440855779E-01
 4.121336635E-01 1.458086434E-01 -5.436189871E-01
 3.987720908E-01 7.776911839E-02 -6.070337519E-01
 1.854562131E-01 1.299998345E-01 -3.124012416E-01
 1.239335055E-01 1.609369769E-01 -1.797836530E-01
 4.666649908E-01 1.296979707E-01 -5.978798842E-01
 1.382893872E-01 1.050242295E-01 -2.499586254E-01
 7.751792913E-02 1.145399814E-01 -7.256875259E-02
 8.526653882E-02 4.635459074E-02 -1.963852074E-01
 1.414215495E-01 5.958339003E-02 -3.125107871E-01
 1.755900212E-01 3.069648660E-01 -1.551477199E-01
 3.024615047E-01 1.247808560E-01 -4.621400120E-01
 3.517273600E-01 1.211925031E-01 -5.152558484E-01
 5.123283553E-02 1.971434640E-01 1.576464295E-02
 -5.810858667E-04 1.236233547E-01 1.914784663E-01
 1.896465546E-02 2.463657350E-02 1.869637422E-01
 3.911356366E-01 1.125077480E-01 -5.559699114E-01
 -7.401713092E-02 2.355420369E-01 1.336988124E-01
 2.314668276E-01 1.048938782E-01 -3.930775294E-01
 2.487971204E-01 7.079719604E-02 -4.540791545E-01
 2.710131491E-01 1.086165703E-01 -4.386803824E-01
 3.914818879E-02 8.684026498E-02 4.284659427E-02
 -4.089374981E-02 5.701597064E-02 4.268206668E-01
 1.113144212E-01 2.441444837E-01 -9.060900457E-02
 1.044891132E-01 8.797543380E-02 -1.858113529E-01
 7.222651800E-02 7.622864369E-02 -1.058718881E-01
 1.978943953E-01 9.695818403E-02 -3.601840782E-01
 2.006915928E-01 6.543200895E-02 -4.006604811E-01
 1.717413720E-01 9.160783151E-02 -3.336026502E-01
 1.527660871E-01 7.428292880E-02 -3.183405674E-01
 1.259131974E-01 7.180535278E-02 -2.602385128E-01
 9.845009649E-02 6.562398055E-02 -2.008219294E-01
 6.362550583E-02 5.459123795E-02 -1.051030962E-01
 1.525891765E-01 5.791424430E-02 -3.392774587E-01
 1.910961416E-01 7.741481659E-02 -3.733065984E-01
 1.884579918E-01 6.283469906E-02 -3.871753844E-01
 9.466763957E-02 5.049710692E-02 -2.167157928E-01
 1.290493169E-01 5.534949950E-02 -2.909275414E-01
 2.129712704E-01 6.494655239E-02 -4.163364175E-01
 3.259733604E-01 9.560810313E-02 -5.107610777E-01
 2.984388411E-01 9.583093226E-02 -4.819170030E-01
 2.591830965E-01 8.703986494E-02 -4.487839696E-01
 1.052371993E-01 5.083369290E-02 -2.443473695E-01
 2.983222090E-01 7.865308037E-02 -5.017118390E-01
 1.115369133E-02 5.817874930E-02 2.258796868E-01
 3.722724916E-02 3.154661540E-02 -1.931889408E-02
 2.856610282E-01 7.235733519E-02 -4.945733786E-01
 2.809741852E-01 8.592234542E-02 -4.762853767E-01
 2.133333162E-01 8.003116692E-02 -3.984471296E-01
 2.350908715E-01 8.146984976E-02 -4.261290054E-01
 2.364817797E-01 6.697216110E-02 -4.432820925E-01
 3.157446185E-01 -6.638761809E-02 -5.414343413E-01
 3.508904630E-01 9.481999319E-02 -5.392959265E-01
 3.729032108E-01 9.731291375E-02 -5.590362451E-01
 4.168033431E-01 1.053437223E-01 -5.889321288E-01
 3.843020243E-01 8.316537665E-02 -5.863574875E-01
 4.435287310E-01 1.091518734E-01 -6.045195757E-01
 4.517027053E-01 8.304607563E-02 -6.458234240E-01
 4.728552684E-01 9.922437391E-02 -6.353490768E-01
 4.959393127E-01 9.540022931E-02 -6.542402870E-01
 5.031084860E-01 1.229214076E-01 -6.234088736E-01
 5.402326287E-01 1.396912916E-01 -6.021230031E-01
 6.245983119E-01 2.038349194E-01 -4.499958116E-01
 6.600921844E-01 6.513695208E-02 -4.853269141E-01
 6.826319453E-01 6.253654850E-02 -4.403876106E-01
 6.155313018E-01 1.358485680E-01 -5.104497829E-01
 5.418181074E-01 1.100898090E-01 -6.330621862E-01
 5.399522141E-01 7.384763679E-02 -6.858545304E-01
 5.773982405E-01 1.193680968E-01 -5.879827479E-01
 5.909871843E-01 7.101234852E-02 -6.178316586E-01
 6.087480823E-01 1.030172409E-01 -5.518828343E-01
 6.476781310E-01 1.117800263E-01 -4.734282843E-01
 6.364569686E-01 6.793829442E-02 -5.282602545E-01
 5.795180362E-01 7.034282883E-02 -6.385672751E-01
 5.852285634E-01 8.496557058E-02 -6.115122822E-01
 6.037096097E-01 8.036533554E-02 -5.828379855E-01
 6.267357333E-01 8.281936833E-02 -5.348437944E-01
 6.563530008E-01 1.561506714E-01 -4.303481230E-01
 7.562424799E-01 5.346715917E-02 -3.147758567E-01
 6.999949754E-01 1.255016432E-01 -3.757410058E-01
 7.018146750E-01 2.046535397E-01 -3.444009102E-01
 7.538602713E-01 1.419044738E-01 -2.849275766E-01
 8.676352343E-01 3.936064397E-02 -1.418450135E-01
 8.471247668E-01 4.203940029E-02 -1.746682540E-01
 7.341710341E-01 9.815269294E-02 -3.315823912E-01
 7.991220318E-01 1.071340738E-01 -2.347589251E-01
 8.137399064E-01 1.596268035E-01 -2.030819351E-01
 8.522556605E-01 1.039379268E-01 -1.552788259E-01
 7.272145962E-01 5.763837846E-02 -3.608044070E-01
 8.770724510E-01 1.731311906E-01 -1.193157891E-01
 9.129496444E-01 1.199894490E-01 -5.565016881E-02
 9.629795168E-01 2.019353688E-01 -2.594328411E-02
 7.692758770E-01 2.150601565E-01 -2.529205443E-01
 8.885626522E-01 7.870852917E-02 -9.315703018E-02
 8.875575808E-01 3.524661864E-02 -1.015164827E-01
 9.307459621E-01 7.742957420E-02 -1.200962535E-02
 9.468862056E-01 2.615512613E-02 6.045687985E-02
 8.187692635E-01 8.054742791E-02 -2.124031544E-01
 9.824727090E-01 1.130866707E-01 4.702185700E-02
 6.802695671E-01 9.572188689E-02 -4.280361230E-01
 7.093479855E-01 9.003311036E-02 -3.767028324E-01
 1.007095426E+00 6.339825766E-02 1.473362063E-01
 7.406655459E-01 5.701310734E-02 -3.381906407E-01
 7.489928898E-01 7.174276031E-02 -3.191560746E-01
 7.675877653E-01 6.325818616E-02 -2.919318069E-01
 7.792345487E-01 5.065178292E-02 -2.784933783E-01
 7.913742217E-01 6.665353629E-02 -2.547446431E-01
 8.830138425E-01 2.710599616E-01 -1.243358106E-01
 1.078709070E+00 2.373892672E-01 2.063920650E-02
 7.293370136E-01 7.585342977E-02 -3.486909011E-01
 6.966425480E-01 7.409729106E-02 -4.093090850E-01
 6.729423909E-01 7.547336936E-02 -4.523091932E-01
 6.525375823E-01 8.093384216E-02 -4.861433422E-01
 1.168554952E+00 4.226547409E-01 -2.269810572E-02