TITLE     = "Visualization of the solution"
VARIABLES = "x"
"y"
"Pressure_Coefficient"
ZONE T="Zone"
 STRANDID=0, SOLUTIONTIME=0
 Nodes=714, Elements=1213, ZONETYPE=FEQuadrilateral
 DATAPACKING=POINT
 DT=(DOUBLE DOUBLE DOUBLE )
 1.000025749E+00 5.098055117E-04 3.064501703E-01
 9.870533943E-01 2.980960999E-03 2.427351512E-01
 9.739356041E-01 5.400497466E-03 1.707376597E-01
 9.574591517E-01 8.463642560E-03 1.107648734E-01
 9.426642060E-01 1.126436051E-02 5.989498661E-02
 9.282712936E-01 1.390762813E-02 2.075727800E-02
 9.163609743E-01 1.609894261E-02 -1.465145392E-02
 9.039149284E-01 1.835490577E-02 -4.310823886E-02
 8.919265270E-01 2.047713287E-02 -8.280741489E-02
 8.800563812E-01 2.261938713E-02 -1.121869986E-01
 8.672160506E-01 2.474074252E-02 -1.322619335E-01
 8.549137712E-01 2.680485323E-02 -1.611809268E-01
 8.424507976E-01 2.882406116E-02 -1.780409416E-01
 8.310627937E-01 3.059751168E-02 -1.972878345E-01
 8.196080923E-01 3.240168467E-02 -2.163052585E-01
 8.069515824E-01 3.429389372E-02 -2.359286702E-01
 7.943228483E-01 3.619898111E-02 -2.534244746E-01
 7.820621729E-01 3.795097023E-02 -2.738996136E-01
 7.701421976E-01 3.969307244E-02 -3.002380570E-01
 7.585750222E-01 4.130961746E-02 -3.174920039E-01
 7.458010316E-01 4.305200651E-02 -3.387614879E-01
 7.323630452E-01 4.485267401E-02 -3.608648074E-01
 7.217294574E-01 4.622751102E-02 -3.864299188E-01
 7.109705210E-01 4.762424529E-02 -4.074182271E-01
 6.993866563E-01 4.903484508E-02 -4.246811700E-01
 6.861630082E-01 5.062632635E-02 -4.478470306E-01
 6.734838486E-01 5.209183320E-02 -4.751218194E-01
 6.634895205E-01 5.322469771E-02 -5.052351672E-01
 6.522543430E-01 5.445288122E-02 -5.279264084E-01
 6.409069896E-01 5.561317131E-02 -5.481455361E-01
 6.292496920E-01 5.676574633E-02 -5.722418226E-01
 6.179494262E-01 5.783018842E-02 -5.960317967E-01
 6.075090766E-01 5.877071992E-02 -6.166388833E-01
 5.952712297E-01 5.980597809E-02 -6.348980931E-01
 5.837075114E-01 6.071873009E-02 -6.543037427E-01
 5.703127980E-01 6.170031801E-02 -6.756325873E-01
 5.578342080E-01 6.253618747E-02 -6.902885502E-01
 5.454244018E-01 6.327822059E-02 -6.982083763E-01
 5.343976021E-01 6.387867033E-02 -6.955421078E-01
 5.225242376E-01 6.442342699E-02 -6.954588831E-01
 5.099509954E-01 6.495697051E-02 -7.060567856E-01
 4.989813268E-01 6.538410485E-02 -7.000184925E-01
 4.855649173E-01 6.575930864E-02 -6.888622215E-01
 4.722121060E-01 6.607069075E-02 -6.853376818E-01
 4.579669833E-01 6.632359326E-02 -6.811930289E-01
 4.442847967E-01 6.646617502E-02 -6.688662581E-01
 4.312051535E-01 6.650081277E-02 -6.576982263E-01
 4.184720814E-01 6.648617983E-02 -6.506586719E-01
 4.061281383E-01 6.640228629E-02 -6.392259862E-01
 3.935379684E-01 6.623077393E-02 -6.279821606E-01
 3.814910352E-01 6.601930410E-02 -6.141947094E-01
 3.701035678E-01 6.573509425E-02 -5.979990221E-01
 3.567957878E-01 6.534739584E-02 -5.865932812E-01
 3.443116248E-01 6.491772830E-02 -5.764954157E-01
 3.313524723E-01 6.439888477E-02 -5.688502370E-01
 3.206807673E-01 6.391750276E-02 -5.557756164E-01
 3.079755008E-01 6.326751411E-02 -5.423513742E-01
 2.949372828E-01 6.252855808E-02 -5.316306986E-01
 2.811138034E-01 6.166987121E-02 -5.201179550E-01
 2.687210739E-01 6.081197038E-02 -5.036897938E-01
 2.568755448E-01 5.992486700E-02 -4.889337752E-01
 2.445957810E-01 5.894062296E-02 -4.755416290E-01
 2.321272343E-01 5.785469338E-02 -4.627779286E-01
 2.198515236E-01 5.671496689E-02 -4.511551766E-01
 2.081560493E-01 5.555188283E-02 -4.379914266E-01
 1.966491938E-01 5.433237925E-02 -4.217671560E-01
 1.843148917E-01 5.293213204E-02 -4.040850383E-01
 1.724914908E-01 5.150176585E-02 -3.889657395E-01
 1.611167789E-01 5.004869401E-02 -3.739373130E-01
 1.492804438E-01 4.843123257E-02 -3.585594923E-01
 1.386902183E-01 4.689682648E-02 -3.422348146E-01
 1.273133457E-01 4.514697567E-02 -3.249994290E-01
 1.160577089E-01 4.330436513E-02 -3.074779607E-01
 1.055789217E-01 4.147360846E-02 -2.880530307E-01
 9.594389051E-02 3.968854621E-02 -2.623474212E-01
 8.506606519E-02 3.753747791E-02 -2.314072301E-01
 7.342619449E-02 3.504794091E-02 -2.028937723E-01
 6.353504211E-02 3.275240213E-02 -1.713197236E-01
 5.379897729E-02 3.030544892E-02 -1.378175694E-01
 4.498307034E-02 2.788439207E-02 -1.070671174E-01
 3.741723299E-02 2.560639381E-02 -7.140598037E-02
 3.068785742E-02 2.339003421E-02 -2.502914437E-02
 2.497241832E-02 2.132786810E-02 2.223239416E-02
 2.077483200E-02 1.966067217E-02 7.933759867E-02
 1.678649895E-02 1.794091985E-02 9.098074473E-02
 1.379980799E-02 1.651999168E-02 1.180599758E-01
 1.109675504E-02 1.512438245E-02 1.519060342E-01
 9.092001244E-03 1.399326231E-02 2.039883432E-01
 7.327793166E-03 1.291363966E-02 2.310132137E-01
 5.722334608E-03 1.183059812E-02 2.600853644E-01
 3.655291162E-03 1.025857124E-02 5.292455001E-01
 1.861843397E-03 8.632288314E-03 4.595444366E-01
 3.364440636E-04 6.906385999E-03 1.075035080E+00
 -1.104375231E-03 4.547358956E-03 1.116935288E+00
 -1.715961262E-03 2.756412607E-03 1.211911923E+00
 -1.912142849E-03 1.332195126E-03 1.097609115E+00
 -1.825364889E-03 -2.859974629E-04 1.260364494E+00
 -1.391360071E-03 -1.994873863E-03 8.849263634E-01
 -4.482752993E-04 -3.991601523E-03 8.832731236E-01
 1.003179583E-03 -6.053841207E-03 6.809883386E-01
 3.044527257E-03 -8.213108405E-03 5.311170962E-01
 4.898705985E-03 -9.815659374E-03 4.016100059E-01
 6.989789195E-03 -1.137477066E-02 3.039533492E-01
 8.626937866E-03 -1.247189101E-02 2.490514204E-01
 1.067834999E-02 -1.372232754E-02 2.087729575E-01
 1.305424143E-02 -1.504294109E-02 1.773951260E-01
 1.631072536E-02 -1.668100245E-02 1.000702529E-01
 1.928031072E-02 -1.803698763E-02 3.270851798E-02
 2.312921919E-02 -1.964997314E-02 -1.200456103E-02
 2.846814319E-02 -2.166361175E-02 -3.720334831E-02
 3.421705961E-02 -2.361513674E-02 -8.453058735E-02
 4.128498212E-02 -2.577530779E-02 -1.226088178E-01
 4.874830320E-02 -2.784054168E-02 -1.515977557E-01
 5.753231049E-02 -3.004315682E-02 -1.846407997E-01
 6.621076167E-02 -3.202838451E-02 -2.131046330E-01
 7.637415826E-02 -3.417582437E-02 -2.359470794E-01
 8.613866568E-02 -3.608037904E-02 -2.604913710E-01
 9.639635682E-02 -3.792842478E-02 -2.812294019E-01
 1.073123515E-01 -3.977048025E-02 -2.953878019E-01
 1.187189892E-01 -4.156636819E-02 -3.105291775E-01
 1.302580237E-01 -4.326702654E-02 -3.246104445E-01
 1.407230496E-01 -4.471887276E-02 -3.401565889E-01
 1.517639607E-01 -4.616424441E-02 -3.548408283E-01
 1.636691988E-01 -4.763024300E-02 -3.699415422E-01
 1.751859486E-01 -4.895802960E-02 -3.866687667E-01
 1.869709492E-01 -5.023146793E-02 -4.029538796E-01
 1.975800693E-01 -5.130902305E-02 -4.210107782E-01
 2.087534666E-01 -5.237304047E-02 -4.376063792E-01
 2.209824324E-01 -5.345565826E-02 -4.552974744E-01
 2.334440500E-01 -5.447117612E-02 -4.755486470E-01
 2.456855625E-01 -5.537619814E-02 -4.958474687E-01
 2.581053078E-01 -5.620354414E-02 -5.169526305E-01
 2.692033947E-01 -5.685695261E-02 -5.372826613E-01
 2.819562852E-01 -5.752838403E-02 -5.571844299E-01
 2.943255305E-01 -5.807049572E-02 -5.776786737E-01
 3.073546290E-01 -5.854633451E-02 -5.992707877E-01
 3.191824257E-01 -5.886847898E-02 -6.215247238E-01
 3.317911923E-01 -5.908766389E-02 -6.344012168E-01
 3.426777720E-01 -5.920085683E-02 -6.464425206E-01
 3.541303277E-01 -5.920648947E-02 -6.571836879E-01
 3.651243448E-01 -5.912556872E-02 -6.636074815E-01
 3.758170009E-01 -5.895027146E-02 -6.654221976E-01
 3.874733746E-01 -5.863725021E-02 -6.573507240E-01
 4.006882906E-01 -5.817697942E-02 -6.466752902E-01
 4.131108820E-01 -5.757618323E-02 -6.311289004E-01
 4.259872735E-01 -5.682872981E-02 -5.977754267E-01
 4.385930598E-01 -5.596193299E-02 -5.591297225E-01
 4.510368407E-01 -5.500172079E-02 -5.214217190E-01
 4.631503224E-01 -5.392798409E-02 -4.806084765E-01
 4.755454063E-01 -5.273125321E-02 -4.328476664E-01
 4.873179197E-01 -5.151141435E-02 -3.910606525E-01
 4.998280406E-01 -5.011055619E-02 -3.508064531E-01
 5.134997368E-01 -4.850858450E-02 -3.108832199E-01
 5.270275474E-01 -4.682004452E-02 -2.710932748E-01
 5.402752757E-01 -4.512913898E-02 -2.345536368E-01
 5.531589985E-01 -4.337970167E-02 -1.969383859E-01
 5.663225651E-01 -4.159106314E-02 -1.597481500E-01
 5.791493058E-01 -3.978316858E-02 -1.274533707E-01
 5.914393663E-01 -3.806244954E-02 -9.690459694E-02
 6.040256023E-01 -3.627230227E-02 -7.162114489E-02
 6.179056764E-01 -3.426863998E-02 -4.105177228E-02
 6.322231293E-01 -3.219768777E-02 -1.088152548E-02
 6.465439796E-01 -3.011985309E-02 1.686239423E-02
 6.597343087E-01 -2.824512869E-02 3.997531335E-02
 6.730752587E-01 -2.630176768E-02 6.360492391E-02
 6.857358813E-01 -2.451383695E-02 8.805844413E-02
 6.981744170E-01 -2.277107164E-02 1.045100744E-01
 7.129174471E-01 -2.071055211E-02 1.248204684E-01
 7.259197831E-01 -1.891791634E-02 1.468920204E-01
 7.377142310E-01 -1.731880009E-02 1.647303851E-01
 7.505419850E-01 -1.559792459E-02 1.822582684E-01
 7.628347278E-01 -1.397361979E-02 2.041610939E-01
 7.760342360E-01 -1.230386458E-02 2.232765357E-01
 7.882786393E-01 -1.081649307E-02 2.367170683E-01
 8.011323214E-01 -9.267964400E-03 2.526534534E-01
 8.123198152E-01 -7.983646356E-03 2.695063198E-01
 8.233850598E-01 -6.721494719E-03 2.868789050E-01
 8.360028863E-01 -5.402627401E-03 3.031021454E-01
 8.486067653E-01 -4.180945456E-03 3.151365932E-01
 8.608482480E-01 -3.074030159E-03 3.289830257E-01
 8.721920848E-01 -2.126058098E-03 3.428028339E-01
 8.840715289E-01 -1.259995275E-03 3.536830745E-01
 8.969683647E-01 -4.466902174E-04 3.609315926E-01
 9.070616961E-01 8.488549065E-05 3.694250804E-01
 9.175800681E-01 5.252960254E-04 3.710040032E-01
 9.269233346E-01 8.393838070E-04 3.748406401E-01
 9.358215332E-01 1.055241679E-03 3.756837215E-01
 9.477270246E-01 1.227172674E-03 3.744795884E-01
 9.610587955E-01 1.271833200E-03 3.704033186E-01
 9.759185314E-01 1.142747700E-03 3.719874185E-01
 9.889732599E-01 8.731483831E-04 3.676962761E-01
 -5.000000000E-01 -1.000000000E+00 5.202469000E-02
 3.500000000E+00 -1.000000000E+00 1.258321646E-02
 3.500000000E+00 1.000000000E+00 -1.502098345E-03
 -5.000000000E-01 1.000000000E+00 4.417738176E-02
 -5.000000000E-01 5.000000000E-01 1.009654455E-01
 -5.000000000E-01 2.752797990E-12 1.476879624E-01
 -5.000000000E-01 -5.000000000E-01 9.943285398E-02
 -9.421907698E-13 -1.000000000E+00 2.378261055E-02
 5.000000000E-01 -1.000000000E+00 -1.790357980E-02
 1.000000000E+00 -1.000000000E+00 -1.457091824E-03
 1.500000000E+00 -1.000000000E+00 3.341540377E-02
 2.000000000E+00 -1.000000000E+00 3.044746037E-02
 2.500000000E+00 -1.000000000E+00 2.049422036E-02
 3.000000000E+00 -1.000000000E+00 1.466821084E-02
 3.500000000E+00 -5.000000000E-01 1.384216947E-02
 3.500000000E+00 -2.752797990E-12 1.371430187E-02
 3.500000000E+00 5.000000000E-01 5.976247308E-03
 3.000000000E+00 1.000000000E+00 -7.282335773E-03
 2.500000000E+00 1.000000000E+00 -1.595792766E-02
 2.000000000E+00 1.000000000E+00 -3.306872048E-02
 1.500000000E+00 1.000000000E+00 -7.612786443E-02
 1.000000000E+00 1.000000000E+00 -1.391510383E-01
 5.000000000E-01 1.000000000E+00 -9.517499618E-02
 1.733724275E-12 1.000000000E+00 9.620278124E-03
 6.828882726E-01 -3.653239867E-02 7.712427808E-02
 7.800402223E-01 -2.480095576E-02 2.175496906E-01
 9.123922175E-01 -1.067211656E-02 3.552318368E-01
 5.880297268E-01 -5.082748121E-02 -1.071271181E-01
 7.055324016E-01 5.826488051E-02 -4.090194101E-01
 2.762034374E-01 -6.685597700E-02 -5.327795814E-01
 2.722553615E-01 7.685792020E-02 -4.884131269E-01
 9.122867385E-01 2.958592636E-02 -2.568744309E-02
 8.138262928E-01 4.746343346E-02 -2.193026851E-01
 5.894810294E-01 7.304567914E-02 -6.294739297E-01
 4.074198911E-01 -6.863486110E-02 -6.160923803E-01
 4.228649178E-01 8.177133596E-02 -6.335215534E-01
 1.841442993E+00 -5.654422805E-01 2.881089737E-02
 1.794018089E+00 6.422263622E-01 -2.190797951E-02
 3.031173200E+00 2.156851312E-01 6.097934531E-03
 7.207168323E-01 -6.377209573E-01 -1.470728305E-02
 4.820296465E-01 -6.462389358E-02 -3.966254972E-01
 7.462605225E-01 5.482665523E-01 -2.219950725E-01
 5.074141413E-01 7.740058953E-02 -6.860343551E-01
 3.333893868E-01 6.151321830E-01 -1.677531218E-01
 1.193836223E-01 5.546780521E-02 -2.941952391E-01
 1.892759322E-01 6.867792789E-02 -3.926848679E-01
 3.509456792E-01 8.056176642E-02 -5.646236961E-01
 2.734853662E+00 -5.326858874E-01 1.293109641E-02
 1.162774327E+00 6.876177253E-01 -8.172228609E-02
 9.735098375E-01 3.408077836E-01 -6.237938085E-02
 1.265439068E+00 -6.225729316E-01 5.251252165E-02
 1.525263135E+00 -2.174177394E-01 3.644407860E-02
 2.215995723E-01 -5.867390329E-01 -6.061355863E-02
 7.982693950E-02 -4.565100735E-02 -2.207243710E-01
 1.339673529E-01 -5.365534627E-02 -3.156186871E-01
 1.909498232E-01 -6.506134146E-02 -3.922742615E-01
 2.249789987E+00 -5.829584363E-01 1.759411217E-02
 2.036052870E+00 -1.983838417E-01 1.200090828E-02
 2.420220371E+00 -1.842961460E-01 7.828417604E-03
 2.184639342E+00 1.582704409E-01 1.517234366E-03
 1.860469823E+00 9.381807997E-02 5.985787778E-03
 -2.710470383E-01 -2.547824853E-01 1.610603740E-01
 -1.601614342E-01 -5.727666124E-01 6.229701623E-02
 -2.686199713E-01 2.165208446E-01 1.648918709E-01
 -1.549712453E-01 6.925495442E-01 3.781715703E-02
 1.839017632E-02 2.999114860E-01 3.517758390E-02
 4.537469823E-02 4.075297193E-02 -6.750749496E-02
 2.241328104E+00 5.538928426E-01 -9.642955916E-03
 2.746384932E+00 5.959678590E-01 -2.602683957E-03
 -2.509517365E-01 -9.546721030E-04 2.138635003E-01
 -1.421667370E-01 -1.291625030E-01 2.426502862E-01
 3.232005499E-02 -3.714106047E-01 2.283246335E-02
 2.770951776E-01 -3.179009849E-01 -2.177394053E-01
 3.499023673E-01 -7.022019074E-02 -6.289205178E-01
 3.143505695E-01 -7.049967804E-02 -5.897531023E-01
 -1.453856878E-01 1.113728801E-01 2.488200832E-01
 -1.241426693E-01 -5.313887764E-03 3.179735485E-01
 -5.710622806E-02 -6.721486813E-02 3.691698660E-01
 4.393085509E-02 -3.337452285E-02 -9.578274688E-02
 2.492551819E-02 -2.692712770E-02 2.762126343E-02
 5.801803502E-02 -4.079107067E-02 -1.474928572E-01
 -5.029849123E-02 -1.505311838E-01 2.033308982E-01
 6.023175307E-03 -9.545777547E-02 1.900905829E-01
 2.759252716E-02 -1.997592283E-01 4.570558201E-02
 -1.484587402E-02 -5.147029844E-02 3.997252313E-01
 1.044376255E-02 -1.738230304E-02 2.577244895E-01
 -6.298049096E-02 -4.537043107E-03 4.891181943E-01
 6.755560400E-02 -1.158650116E-01 -6.196559690E-02
 1.141640747E-01 -1.567924975E-01 -1.466422965E-01
 1.148549044E-01 -1.003338215E-01 -2.199336453E-01
 1.086594171E-01 -5.207842771E-02 -2.755635546E-01
 1.699276926E-01 -1.213450643E-01 -2.870679586E-01
 2.396043053E-01 -6.685848514E-02 -4.701424026E-01
 1.867231319E-01 -1.814782317E-01 -2.526195895E-01
 2.280675283E-01 -1.381976891E-01 -3.620701838E-01
 1.228866544E-01 -2.564167459E-01 -1.047263913E-01
 2.089023821E-01 -1.018542607E-01 -3.752208996E-01
 2.138980018E-01 -6.574240370E-02 -4.284527388E-01
 3.109363702E+00 -2.612698832E-01 1.195011750E-02
 2.527928238E-01 -1.031620055E-01 -4.399519080E-01
 2.806933452E-01 -1.394340308E-01 -4.319494997E-01
 2.527430202E-01 -2.030801190E-01 -3.230582258E-01
 3.280836437E-01 -2.000587452E-01 -3.874314054E-01
 3.983184535E-01 -2.603410597E-01 -3.087603987E-01
 4.409225774E-01 -1.990422972E-01 -3.407031977E-01
 5.340763456E-01 -5.894082293E-02 -2.440865609E-01
 5.612540158E-01 -5.362209690E-02 -1.705346501E-01
 4.446662231E-01 -6.768000308E-02 -5.184182798E-01
 5.013305500E-01 -2.732634760E-01 -2.170459040E-01
 5.430925189E-01 -1.767195387E-01 -1.826732288E-01
 6.100928052E-01 -2.332023487E-01 -7.067958590E-02
 6.496641772E-01 -1.863857043E-01 -1.709101492E-02
 7.373663734E-01 -2.900565349E-02 1.595360028E-01
 7.579180013E-01 -2.823576509E-02 1.869412292E-01
 6.411113696E-01 -4.306721622E-02 3.888873124E-03
 7.090821910E-01 -2.480634765E-01 5.234041586E-02
 7.483600042E-01 -1.643796292E-01 9.929876510E-02
 8.075275707E-01 -2.282484708E-01 1.296311698E-01
 8.555733072E-01 -1.455455574E-02 3.112713579E-01
 8.324429615E-01 -1.714438621E-02 2.890009546E-01
 8.077502209E-01 -2.088266812E-02 2.544220152E-01
 8.418675804E-01 -1.398973953E-01 1.936595266E-01
 9.665986232E-01 -1.143947530E-02 3.580281745E-01
 9.444260038E-01 -1.153836134E-02 3.544822293E-01
 9.093502982E-01 -2.243361616E-01 1.612264331E-01
 9.568192698E-01 -1.294175723E-01 2.275728469E-01
 1.003171757E+00 -1.895129427E-01 1.713235355E-01
 1.074278959E+00 -1.195877361E-01 1.739409904E-01
 1.103971233E+00 -2.212959447E-01 1.293455956E-01
 1.174034139E+00 -1.073654314E-01 1.116298388E-01
 9.837844531E-01 -3.308098881E-01 1.189401300E-01
 1.095525218E+00 -2.130122052E-02 1.481263784E-01
 1.210561888E+00 8.186130492E-03 8.101082425E-02
 1.126296072E+00 9.475096144E-02 9.512832822E-02
 9.652362447E-01 2.759112113E-02 1.171442890E-01
 1.263462102E+00 1.440933643E-01 4.930466199E-02
 8.925735047E-01 -7.851626426E-02 2.721539189E-01
 4.547632539E-01 -4.061058716E-01 -1.659476042E-01
 1.367294945E+00 3.116526457E-02 4.377402487E-02
 7.933136224E-01 -9.528492263E-02 1.891535798E-01
 3.835549395E-01 -1.375620708E-01 -4.908333862E-01
 6.908395185E-01 -1.085755936E-01 6.022774076E-02
 5.951158084E-01 -1.147878469E-01 -9.437112803E-02
 4.906846119E-01 -1.323416882E-01 -3.060824787E-01
 1.445223466E+00 2.073300302E-01 1.402961056E-02
 9.959669350E-01 -7.362601782E-02 2.436261237E-01
 1.248497669E+00 -2.156815823E-01 8.469451035E-02
 4.904484881E-01 -6.308004720E-01 -9.971906204E-02
 1.120021983E+00 2.434253818E-01 2.549539495E-02
 2.890469077E-01 -1.064357053E-01 -4.929884032E-01
 3.273559748E-01 -1.176348353E-01 -5.162441753E-01
 3.668836863E-01 -1.014051032E-01 -5.726458976E-01
 3.829744316E-01 -6.824199533E-02 -6.426741021E-01
 3.957452248E-01 -1.037151026E-01 -5.620745618E-01
 1.651143898E-02 -6.048969049E-02 1.890275877E-01
 4.729661489E-02 -7.615023845E-02 -5.783165834E-03
 6.687029899E-01 -3.618155618E-01 -3.969867568E-02
 8.257360495E-01 -3.871187649E-01 9.214881324E-02
 9.897173134E-01 -5.601066845E-01 6.390995826E-02
 1.152034885E+00 -3.876314225E-01 8.615266887E-02
 1.489562844E-01 -8.774450625E-02 -2.903388070E-01
 1.672428304E-01 -6.104363730E-02 -3.580740352E-01
 -2.831918932E-02 -2.035884283E-02 6.452927769E-01
 1.890843173E-03 -9.817706540E-03 6.309716811E-01
 3.932590360E-01 -6.745772759E-02 -6.363406211E-01
 3.020996572E-01 -6.794049552E-02 -5.732292094E-01
 3.039303006E-01 -8.535876497E-02 -5.454771479E-01
 3.252168194E-01 -8.258830666E-02 -5.801968302E-01
 1.061563031E+00 4.932882782E-02 1.460531942E-01
 1.036450644E+00 1.468712044E-01 6.881732298E-02
 9.005312870E-01 2.192072049E-01 -8.697324251E-02
 7.647481154E-01 5.283639745E-02 -3.027382121E-01
 7.396079540E-01 5.544735361E-02 -3.444246619E-01
 8.625541602E-01 3.882680941E-02 -1.412419380E-01
 9.960603165E-01 8.300648846E-02 9.807912930E-02
 2.876714254E-01 -6.851152052E-02 -5.497983687E-01
 2.925112994E-03 -3.979471143E-02 3.008211092E-01
 8.281634734E-02 -7.844441720E-02 -1.729577993E-01
 6.699704244E-02 -5.636413536E-02 -1.526828561E-01
 4.059908948E-02 -4.928047180E-02 -1.906463914E-02
 3.363533948E-01 -7.068646602E-02 -6.162385077E-01
 3.253600752E-01 -6.852522099E-02 -6.101489805E-01
 1.358259695E+00 -3.412027739E-01 5.677366580E-02
 9.569490676E-01 1.509934750E-01 -6.580607673E-03
 9.304307061E-01 9.337374085E-02 -1.312243076E-02
 8.759357782E-01 1.360388247E-01 -1.113847052E-01
 8.024291940E-01 1.794460178E-01 -2.093759796E-01
 6.468523501E-01 6.664209504E-02 -5.265949384E-01
 6.256227593E-01 6.799455122E-02 -5.710844118E-01
 6.691890554E-01 6.433655361E-02 -4.797816889E-01
 8.196898386E-01 2.879202062E-01 -1.878203070E-01
 7.170394566E-01 2.319313452E-01 -3.268292918E-01
 7.227567418E-01 1.442550037E-01 -3.417175899E-01
 6.380955183E-01 1.717119499E-01 -4.701706689E-01
 6.284484103E-01 2.509708565E-01 -4.287948486E-01
 5.477731046E-01 2.008522361E-01 -5.106945269E-01
 5.402182694E-01 7.293431755E-02 -6.811128467E-01
 5.658400429E-01 7.407064725E-02 -6.644771587E-01
 5.310838669E-01 3.063950971E-01 -4.177871953E-01
 4.445025067E-01 2.342180926E-01 -4.696501856E-01
 4.810757054E-01 1.588662426E-01 -5.658119913E-01
 4.637930327E-01 7.666535921E-02 -6.685232233E-01
 3.923511827E-01 1.730079758E-01 -5.047405896E-01
 3.598553400E-01 2.260196653E-01 -4.156399852E-01
 3.890161283E-01 7.561706376E-02 -6.105465786E-01
 3.034862524E-01 1.785810650E-01 -4.146306945E-01
 3.152345234E-01 7.872387897E-02 -5.327034095E-01
 2.619274909E-01 2.584835165E-01 -3.121420761E-01
 1.922089894E-01 1.836643142E-01 -2.690946169E-01
 2.380696971E-01 6.937410148E-02 -4.555739670E-01
 7.777609107E-01 1.209337007E-01 -2.596883558E-01
 5.344887445E-01 1.397298825E-01 -5.953815821E-01
 6.671860120E-01 1.215526395E-01 -4.507197855E-01
 6.085984982E-01 1.260914291E-01 -5.487989292E-01
 2.505730991E-01 1.350122852E-01 -4.017616931E-01
 3.928705218E-01 3.198375844E-01 -3.697193536E-01
 4.298925362E-01 1.337968757E-01 -5.758892222E-01
 3.461025259E-01 1.339512302E-01 -4.988124300E-01
 8.874702497E-01 8.003494823E-02 -8.726379663E-02
 8.882312912E-01 3.472742701E-02 -8.950071740E-02
 8.446022671E-01 9.683782620E-02 -1.584285465E-01
 7.422156696E-01 9.693221417E-02 -3.246030915E-01
 5.024011144E-01 4.631195890E-01 -3.017174433E-01
 6.884649340E-01 3.528679543E-01 -3.194964287E-01
 5.005289022E-01 1.182445190E-01 -6.234830105E-01
 4.659776007E-01 1.170166195E-01 -6.160144755E-01
 6.324079080E-01 1.019088452E-01 -5.292566839E-01
 2.885469296E-01 4.055638997E-01 -2.213350301E-01
 5.284167181E-01 1.069124593E-01 -6.415253232E-01
 7.707796453E-01 8.956380049E-02 -2.805473792E-01
 7.896691048E-01 5.025634101E-02 -2.584961842E-01
 8.569989120E-01 7.024645033E-02 -1.449035994E-01
 8.397809085E-01 3.850652189E-02 -1.800652121E-01
 1.554492880E-01 3.056802638E-01 -1.414556410E-01
 9.043928266E-02 1.853736000E-01 -9.113157375E-02
 1.418715283E-01 1.297041553E-01 -2.326539315E-01
 1.517923515E-01 6.299858848E-02 -3.373089923E-01
 6.624210258E-02 1.232407036E-01 -4.942381746E-02
 9.001570957E-02 4.798607944E-02 -2.256029512E-01
 1.366038294E-02 1.645335931E-01 1.075574703E-01
 -8.294296678E-03 9.780969389E-02 2.437345776E-01
 1.773423731E-02 2.266869864E-02 1.382362469E-01
 1.086495813E-01 1.025396267E-01 -1.985601921E-01
 4.209142602E-02 8.260982289E-02 3.509244210E-02
 6.597632127E-02 4.555875659E-02 -1.479705205E-01
 -9.717801974E-02 2.257821823E-01 1.551102096E-01
 4.502480056E-01 8.079733652E-02 -6.559502678E-01
 4.791720699E-01 7.807465682E-02 -6.696480139E-01
 9.298094556E-02 -5.908290443E-02 -2.297874693E-01
 4.213521281E-01 -6.937435970E-02 -5.846991664E-01
 4.120508899E-01 -8.654965460E-02 -5.673315206E-01
 4.260223040E-01 -1.120557117E-01 -4.942363897E-01
 4.619584450E-01 -1.004164066E-01 -4.228106960E-01
 4.360524806E-01 -8.347381777E-02 -5.205370323E-01
 7.514837207E-01 5.212233640E-02 -3.240103073E-01
 7.524586756E-01 6.876528878E-02 -3.158479386E-01
 7.279566411E-01 7.136004441E-02 -3.624699323E-01
 7.031171594E-01 9.636882455E-02 -3.933318292E-01
 6.772753355E-01 9.380806336E-02 -4.406384074E-01
 7.803541908E-01 6.740492075E-02 -2.718999434E-01
 8.028041620E-01 6.192040818E-02 -2.339120180E-01
 8.261428854E-01 6.529780096E-02 -1.931885299E-01
 5.513307156E-01 7.516233919E-02 -6.752273216E-01
 5.609115403E-01 8.733294619E-02 -6.532146699E-01
 5.770279005E-01 8.424006351E-02 -6.378801897E-01
 5.996305135E-01 9.000628708E-02 -5.963242865E-01
 5.208605599E-01 8.658559875E-02 -6.708994841E-01
 5.656193141E-01 1.085770894E-01 -6.138686722E-01
 8.503414646E-01 3.805526472E-02 -1.645744342E-01
 6.809435252E-01 6.076145004E-02 -4.542357905E-01
 8.015147981E-01 4.602661150E-02 -2.397891277E-01
 5.291639361E-01 7.533229592E-02 -6.807973296E-01
 4.590210739E-01 -6.642844866E-02 -4.768822910E-01
 4.546948855E-01 -7.914616047E-02 -4.732998011E-01
 4.699939956E-01 -7.571941392E-02 -4.233465928E-01
 4.920383232E-01 -8.038233744E-02 -3.436526534E-01
 5.250477346E-01 -1.105897003E-01 -2.360810113E-01
 5.076224293E-01 -6.240229244E-02 -3.211387268E-01
 5.633855360E-01 -9.728378790E-02 -1.623112997E-01
 5.494611993E-01 -5.789881454E-02 -2.007448920E-01
 5.432569382E-01 -7.872412571E-02 -2.143751908E-01
 5.206254726E-01 -7.504994667E-02 -2.762530076E-01
 4.333302330E-01 -6.666376867E-02 -5.565366049E-01
 5.205703063E-01 -5.834433821E-02 -2.831161601E-01
 9.904262852E-02 -4.702899780E-02 -2.676838361E-01
 7.774511446E-01 4.945159145E-02 -2.819858280E-01
 5.736384845E-01 -5.423627155E-02 -1.397994874E-01
 5.848028812E-01 -6.496133601E-02 -1.154887104E-01
 6.126197523E-01 -4.672909385E-02 -5.692699149E-02
 6.203527183E-01 -8.537015071E-02 -4.495411311E-02
 6.265878651E-01 -4.613424690E-02 -2.530653792E-02
 6.364094087E-01 -6.228365049E-02 -1.058372218E-02
 6.589580160E-01 -5.753315229E-02 3.003490620E-02
 6.556197001E-01 -8.526135826E-02 1.476083612E-02
 6.011880042E-01 -6.167774833E-02 -7.723651649E-02
 5.994604904E-01 -4.671381504E-02 -8.296828763E-02
 6.948538738E-02 -4.180208445E-02 -1.946282885E-01
 6.146214370E-01 6.690977907E-02 -5.936146312E-01
 6.185962812E-01 7.906361785E-02 -5.756718928E-01
 6.365286000E-01 7.803134683E-02 -5.406507375E-01
 6.041849279E-01 7.126701019E-02 -6.076581101E-01
 2.563321117E+00 2.038126969E-01 9.853173919E-04
 -7.806857488E-03 -2.419249835E-02 5.890457331E-01
 8.297636697E-01 4.466052246E-02 -1.953659941E-01
 9.191849179E-01 6.344269070E-02 -1.896402769E-02
 9.419464031E-01 2.637028654E-02 5.235561438E-02
 9.505669707E-01 5.527977438E-02 5.441956348E-02
 9.252369524E-01 4.091492220E-02 2.032190725E-03
 3.447126933E-01 -8.742424422E-02 -5.893836184E-01
 3.625639173E-01 -8.201056336E-02 -6.128447691E-01
 5.951473159E-01 6.798447725E-01 -2.123407500E-01
 6.587927017E-01 8.298148377E-02 -4.888592477E-01
 5.052996934E-01 9.427896620E-02 -6.586550680E-01
 1.769307049E-01 -8.043533308E-02 -3.464036876E-01
 1.542796530E-01 -6.902081944E-02 -3.264213460E-01
 1.328703758E-01 -6.993246541E-02 -2.866800150E-01
 1.091625104E-01 -6.869272079E-02 -2.451409961E-01
 6.936006210E-01 6.107134337E-02 -4.285620222E-01
 9.023510994E-01 4.641525730E-02 -5.395054105E-02
 8.744364992E-01 5.110626013E-02 -1.136685958E-01
 1.014647969E+00 3.666991191E-02 2.027017014E-01
 1.039370653E+00 7.803750819E-03 1.879257485E-01
 1.028015262E+00 -3.127683820E-02 2.610774744E-01
 9.916671219E-01 -3.200604403E-02 3.321904219E-01
 9.570212904E-01 -5.935751552E-02 2.913615139E-01
 9.838534206E-01 4.668214056E-02 1.302158012E-01
 8.410166233E-01 4.131858616E-01 -1.753429445E-01
 5.772738565E-01 7.075508760E-02 -6.516631354E-01
 1.942461314E-01 1.227144547E-01 -3.370756337E-01
 1.666620281E-01 9.924568927E-02 -3.167367041E-01
 1.379954609E-01 8.469596502E-02 -2.861249500E-01
 1.333474490E-01 6.515353609E-02 -3.043974094E-01
 1.690437443E-01 7.513260113E-02 -3.485379075E-01
 1.914574551E-01 9.134285355E-02 -3.671273015E-01
 2.139248704E-01 6.803343881E-02 -4.303716883E-01
 2.239977823E-01 1.016119436E-01 -4.037534877E-01
 2.574998024E-01 1.001624483E-01 -4.423648154E-01
 2.517498993E-01 8.080210610E-02 -4.557826507E-01
 2.820692554E-01 1.047420628E-01 -4.690546795E-01
 2.027050316E-01 6.545402670E-02 -4.175588319E-01
 2.940980801E-01 7.918956068E-02 -5.134955801E-01
 1.162765563E-01 7.549341931E-02 -2.514266320E-01
 8.489766774E-02 8.450994312E-02 -1.497714282E-01
 1.002555536E-01 6.139572632E-02 -2.349045062E-01
 7.387287547E-02 6.143096024E-02 -1.415849873E-01
 5.258740583E-02 5.317047806E-02 -6.429500857E-02
 3.350525860E-02 5.294551493E-02 4.721889902E-02
 2.766242390E-02 2.852449387E-02 4.998469710E-02
 -9.911271213E-03 5.054879971E-02 4.202320185E-01
 -6.212499300E-02 5.848393983E-02 3.774076054E-01
 -3.106181415E-02 1.908661278E-02 6.564377572E-01
 3.487571744E-02 3.596690754E-02 1.225697761E-03
 1.746634171E-02 4.188151404E-02 1.962086964E-01
 9.597639611E-01 5.332238491E-01 -1.039144917E-01
 5.179827741E-01 7.373977634E-02 -6.900724863E-01
 2.045235369E-01 -2.634805035E-01 -2.056313559E-01
 3.862869527E-01 -8.115056435E-02 -6.055703706E-01
 -4.467066536E-03 1.806303617E-02 6.031282072E-01
 6.590693965E-03 1.644993933E-02 3.248035319E-01
 6.763031824E-03 2.917648320E-02 3.030153956E-01
 7.737903967E-02 4.604075781E-02 -1.881588333E-01
 1.732696959E+00 -2.180629477E-01 2.302748837E-02
 4.920818715E-01 7.695915791E-02 -6.761799210E-01
 6.837738905E-01 7.615727405E-02 -4.415384319E-01
 2.774274878E-02 1.181461000E-01 8.502531771E-02
 -1.410136404E-02 -1.276986896E-02 6.045334334E-01
 -1.397463076E-03 -6.201567786E-03 9.008328801E-01
 -5.859060140E-03 -7.771083381E-03 9.252610669E-01
 -9.002989435E-03 1.150620900E-03 1.044962026E+00
 4.397097863E-01 9.805639811E-02 -6.256653676E-01
 4.125710792E-01 1.009148082E-01 -6.026169341E-01
 4.084996276E-01 8.520890980E-02 -6.178106224E-01
 1.004977577E-01 1.377730976E-01 -1.454554395E-01
 6.837072461E-01 -7.728859323E-02 6.319868572E-02
 7.070576833E-01 -3.690409076E-02 1.105863329E-01
 7.232587590E-01 -8.434803527E-02 1.121690242E-01
 7.634513336E-01 -6.612380182E-02 1.692466441E-01
 7.065539212E-01 -5.717797740E-02 1.003377485E-01
 7.205138928E-01 -3.620659605E-02 1.315302040E-01
 7.332681489E-01 -5.452338620E-02 1.408192484E-01
 7.522778145E-01 -4.450654240E-02 1.711912187E-01
 7.693218070E-01 -4.147895882E-02 1.930983138E-01
 7.930327065E-01 -4.838716294E-02 2.164638328E-01
 8.271346166E-01 -7.637111344E-02 2.316500457E-01
 8.200964325E-01 -4.046303525E-02 2.536093132E-01
 8.542907946E-01 -4.908617324E-02 2.761267688E-01
 6.949194328E-01 -4.340673508E-02 8.996957289E-02
 6.802606363E-01 -5.380827120E-02 6.639023416E-02
 6.682504849E-01 -4.029767354E-02 5.023118224E-02
 8.629707589E-01 -9.518069309E-02 2.422677045E-01
 8.893768761E-01 -4.153440521E-02 3.077764878E-01
 8.796222227E-01 -1.289749791E-02 3.349709487E-01
 8.924879133E-01 -1.224727974E-02 3.438445325E-01
 8.665993684E-01 -1.504562805E-02 3.214804550E-01
 8.726610077E-01 -2.917751864E-02 3.106699047E-01
 9.030152356E-01 -2.366820473E-02 3.352065212E-01
 9.217985741E-01 -2.393563729E-02 3.396619116E-01
 9.178760366E-01 -4.671690981E-02 3.086883032E-01
 9.428720843E-01 -2.986556401E-02 3.373781568E-01
 9.314695385E-01 -1.194366369E-02 3.556223603E-01
 9.661926568E-01 -2.788729691E-02 3.250324223E-01
 9.021023665E-01 -8.901255687E-03 3.522210322E-01