TITLE     = "Visualization of the solution"
VARIABLES = "x"
"y"
"Pressure_Coefficient"
ZONE T="Zone"
 STRANDID=0, SOLUTIONTIME=0
 Nodes=687, Elements=1159, ZONETYPE=FEQuadrilateral
 DATAPACKING=POINT
 DT=(DOUBLE DOUBLE DOUBLE )
 9.998747110E-01 5.340123316E-04 3.181970030E-01
 9.852080941E-01 3.223162144E-03 2.158821371E-01
 9.731557965E-01 5.405198317E-03 1.349671455E-01
 9.603357315E-01 7.730509154E-03 7.585415570E-02
 9.482863545E-01 9.925103746E-03 5.289547353E-02
 9.371557236E-01 1.178976335E-02 1.389337346E-02
 9.273039699E-01 1.354671083E-02 -2.552945369E-02
 9.153075814E-01 1.554879639E-02 -5.581459760E-02
 9.040217400E-01 1.736217365E-02 -8.460724558E-02
 8.916831017E-01 1.929549314E-02 -1.150000390E-01
 8.794250488E-01 2.113272250E-02 -1.454798214E-01
 8.677792549E-01 2.281987667E-02 -1.595810270E-01
 8.549495935E-01 2.452628687E-02 -1.698430377E-01
 8.430483341E-01 2.612973005E-02 -1.845155393E-01
 8.310355544E-01 2.767314762E-02 -1.973461998E-01
 8.180384040E-01 2.931811102E-02 -2.122819385E-01
 8.048797846E-01 3.093071282E-02 -2.227603650E-01
 7.932520509E-01 3.231302276E-02 -2.336432631E-01
 7.805702686E-01 3.381195292E-02 -2.457435298E-01
 7.682074904E-01 3.523429483E-02 -2.654233783E-01
 7.554859519E-01 3.670557588E-02 -2.823518067E-01
 7.413831949E-01 3.824211285E-02 -2.934688456E-01
 7.302295566E-01 3.943991661E-02 -3.120333554E-01
 7.185450792E-01 4.069449753E-02 -3.302121487E-01
 7.063370943E-01 4.193622246E-02 -3.462156467E-01
 6.923415065E-01 4.332840070E-02 -3.669059587E-01
 6.787634492E-01 4.463724047E-02 -3.846945906E-01
 6.674676538E-01 4.567483813E-02 -3.985998604E-01
 6.552841663E-01 4.675502330E-02 -4.193877566E-01
 6.447266936E-01 4.768604785E-02 -4.382288468E-01
 6.321501136E-01 4.870798066E-02 -4.499935870E-01
 6.205568910E-01 4.960130155E-02 -4.685608334E-01
 6.094654202E-01 5.044263974E-02 -4.864970161E-01
 5.967021585E-01 5.132570118E-02 -4.989736713E-01
 5.841859579E-01 5.213057995E-02 -5.159666888E-01
 5.702961683E-01 5.297717452E-02 -5.339729969E-01
 5.567236543E-01 5.371185392E-02 -5.465379587E-01
 5.431015491E-01 5.436275527E-02 -5.581739480E-01
 5.316017270E-01 5.485907570E-02 -5.624092834E-01
 5.190404058E-01 5.531918257E-02 -5.640737512E-01
 5.057675838E-01 5.573190004E-02 -5.715720581E-01
 4.952709973E-01 5.602420121E-02 -5.731750121E-01
 4.818620086E-01 5.628878623E-02 -5.707386427E-01
 4.692329168E-01 5.647640675E-02 -5.666174304E-01
 4.548788071E-01 5.659538507E-02 -5.629016856E-01
 4.403960705E-01 5.664577708E-02 -5.571282631E-01
 4.269323647E-01 5.658423156E-02 -5.511546004E-01
 4.134937823E-01 5.648219958E-02 -5.443350715E-01
 4.010913968E-01 5.628969148E-02 -5.324034891E-01
 3.879144788E-01 5.602820218E-02 -5.242667997E-01
 3.760722876E-01 5.573184043E-02 -5.171948966E-01
 3.650027514E-01 5.540574715E-02 -5.060568031E-01
 3.516993821E-01 5.494558439E-02 -4.934563551E-01
 3.395857811E-01 5.446454883E-02 -4.803345127E-01
 3.276955783E-01 5.392114446E-02 -4.728178921E-01
 3.179371357E-01 5.346812680E-02 -4.637651413E-01
 3.062895834E-01 5.283964053E-02 -4.515923344E-01
 2.938526869E-01 5.212456733E-02 -4.411983883E-01
 2.805330157E-01 5.129525438E-02 -4.296024116E-01
 2.679979205E-01 5.043773353E-02 -4.179091886E-01
 2.560598850E-01 4.956726357E-02 -4.057037238E-01
 2.436201125E-01 4.860918596E-02 -3.927282194E-01
 2.307008803E-01 4.753573984E-02 -3.794056648E-01
 2.188186496E-01 4.650086537E-02 -3.671653478E-01
 2.071447074E-01 4.541721568E-02 -3.558288666E-01
 1.957641095E-01 4.431664944E-02 -3.445542764E-01
 1.833284497E-01 4.303420335E-02 -3.333012324E-01
 1.716362536E-01 4.177169129E-02 -3.220593493E-01
 1.597515345E-01 4.041787982E-02 -3.096626843E-01
 1.478977501E-01 3.899388015E-02 -3.010965334E-01
 1.369096637E-01 3.761361912E-02 -2.900566326E-01
 1.258147657E-01 3.613667935E-02 -2.800871748E-01
 1.145062670E-01 3.456009179E-02 -2.697437835E-01
 1.037492976E-01 3.297059238E-02 -2.608761112E-01
 9.399673343E-02 3.145293519E-02 -2.478294971E-01
 8.310250938E-02 2.965882421E-02 -2.337216239E-01
 7.151921839E-02 2.761279233E-02 -2.267902076E-01
 6.188819557E-02 2.577845939E-02 -2.074759411E-01
 5.270533264E-02 2.390071191E-02 -1.948358565E-01
 4.393277690E-02 2.194914035E-02 -1.784666094E-01
 3.600656241E-02 2.000782266E-02 -1.589112946E-01
 2.936313860E-02 1.822016202E-02 -1.508559225E-01
 2.369812131E-02 1.653098129E-02 -1.440280586E-01
 1.952650584E-02 1.515938528E-02 -1.384208312E-01
 1.567620039E-02 1.375827286E-02 -1.321939473E-01
 1.305711642E-02 1.270746905E-02 -1.157656286E-01
 1.080611348E-02 1.172389742E-02 -7.944629799E-02
 9.127398022E-03 1.092188247E-02 -6.392281959E-02
 7.521010935E-03 1.009135507E-02 -1.004626968E-02
 5.982038099E-03 9.221543558E-03 -2.911563696E-02
 3.993767314E-03 7.933209650E-03 2.607155331E-02
 2.332069911E-03 6.655311678E-03 1.462437886E-01
 9.037464042E-04 5.310497712E-03 2.523320572E-01
 -5.012706970E-04 3.528376576E-03 5.937188395E-01
 -1.279916381E-03 2.059027087E-03 5.316950717E-01
 -1.679874957E-03 8.627540083E-04 1.138376580E+00
 -1.907453639E-03 -7.375582936E-04 8.563675331E-01
 -1.734226244E-03 -2.826357260E-03 1.073048599E+00
 -9.855986573E-04 -5.156630185E-03 8.944786863E-01
 4.621306434E-04 -7.739622612E-03 8.530037497E-01
 2.578424290E-03 -1.042137109E-02 7.452274525E-01
 4.557076376E-03 -1.243116241E-02 6.323519096E-01
 6.920057349E-03 -1.449285261E-02 5.769877719E-01
 8.610677905E-03 -1.581470855E-02 5.002444010E-01
 1.067193225E-02 -1.729140431E-02 4.206419784E-01
 1.313660946E-02 -1.891332306E-02 3.748567830E-01
 1.639696956E-02 -2.086918056E-02 3.141686236E-01
 1.979301684E-02 -2.272433043E-02 2.385753905E-01
 2.402199619E-02 -2.483273856E-02 1.752244385E-01
 2.957940288E-02 -2.733832970E-02 1.164105713E-01
 3.519764915E-02 -2.963609621E-02 4.009112949E-02
 4.236231744E-02 -3.228063881E-02 -2.034528823E-02
 4.984400421E-02 -3.478825837E-02 -8.004610601E-02
 5.848446116E-02 -3.742799908E-02 -1.268099456E-01
 6.712790579E-02 -3.984224424E-02 -1.699324063E-01
 7.766960561E-02 -4.253069684E-02 -2.026819049E-01
 8.748351038E-02 -4.483104125E-02 -2.424695339E-01
 9.836305678E-02 -4.719059169E-02 -2.732607888E-01
 1.094190255E-01 -4.940258712E-02 -3.047068320E-01
 1.214857176E-01 -5.165075138E-02 -3.329730353E-01
 1.326890588E-01 -5.358379707E-02 -3.600914781E-01
 1.429947317E-01 -5.526272580E-02 -3.868203441E-01
 1.541311592E-01 -5.695024878E-02 -4.092650323E-01
 1.656669974E-01 -5.858702958E-02 -4.300688963E-01
 1.768815666E-01 -6.007885188E-02 -4.534245796E-01
 1.884103119E-01 -6.150939316E-02 -4.769555329E-01
 1.984975636E-01 -6.267853081E-02 -4.996731401E-01
 2.094757408E-01 -6.386358291E-02 -5.189862235E-01
 2.215023041E-01 -6.506944448E-02 -5.390055902E-01
 2.330924720E-01 -6.613304466E-02 -5.633310062E-01
 2.449338883E-01 -6.714164466E-02 -5.911756314E-01
 2.570959926E-01 -6.803360581E-02 -6.148974345E-01
 2.684544027E-01 -6.880136579E-02 -6.372081225E-01
 2.809519172E-01 -6.952738762E-02 -6.648665154E-01
 2.933654785E-01 -7.012987882E-02 -6.919779464E-01
 3.058827817E-01 -7.062781602E-02 -7.162538994E-01
 3.173255920E-01 -7.099103928E-02 -7.460413762E-01
 3.293117285E-01 -7.121928781E-02 -7.690958987E-01
 3.393298090E-01 -7.135901600E-02 -7.904009725E-01
 3.506151438E-01 -7.138285041E-02 -8.120450187E-01
 3.617976606E-01 -7.130096853E-02 -8.275895985E-01
 3.725650311E-01 -7.113721222E-02 -8.399189091E-01
 3.842360973E-01 -7.084733248E-02 -8.523394111E-01
 3.963485956E-01 -7.039867342E-02 -8.556310248E-01
 4.083405137E-01 -6.983056664E-02 -8.413260752E-01
 4.216755927E-01 -6.903508306E-02 -8.055328870E-01
 4.343116879E-01 -6.814927608E-02 -7.548924196E-01
 4.482143521E-01 -6.703439355E-02 -6.947432941E-01
 4.613173604E-01 -6.581769139E-02 -6.341773538E-01
 4.739830792E-01 -6.453157216E-02 -5.734963873E-01
 4.862418771E-01 -6.319367886E-02 -5.253518870E-01
 4.981619716E-01 -6.175413728E-02 -4.715472945E-01
 5.114364624E-01 -6.009073555E-02 -4.133048208E-01
 5.252715349E-01 -5.826917663E-02 -3.682747128E-01
 5.378231406E-01 -5.652428791E-02 -3.260037337E-01
 5.524504185E-01 -5.443040282E-02 -2.822197077E-01
 5.651350021E-01 -5.256297812E-02 -2.449359937E-01
 5.786397457E-01 -5.050349236E-02 -2.080346419E-01
 5.916953087E-01 -4.847658798E-02 -1.698819179E-01
 6.044993401E-01 -4.648993164E-02 -1.400290844E-01
 6.169907451E-01 -4.450829327E-02 -1.131861049E-01
 6.310116649E-01 -4.227331653E-02 -8.415218355E-02
 6.438266039E-01 -4.018488526E-02 -5.270844603E-02
 6.577404737E-01 -3.795667738E-02 -2.553220178E-02
 6.715344191E-01 -3.570902348E-02 -1.838099896E-03
 6.843950152E-01 -3.362032771E-02 2.533229352E-02
 6.969776154E-01 -3.158779815E-02 4.860908049E-02
 7.121398449E-01 -2.914094366E-02 7.262234859E-02
 7.255959511E-01 -2.698044293E-02 9.748544190E-02
 7.371503115E-01 -2.517620847E-02 1.145505095E-01
 7.493586540E-01 -2.321712114E-02 1.346128989E-01
 7.628780603E-01 -2.112777345E-02 1.574527977E-01
 7.760621905E-01 -1.908903569E-02 1.770734111E-01
 7.884450555E-01 -1.720177755E-02 1.984415373E-01
 8.007783890E-01 -1.533418987E-02 2.219804690E-01
 8.123258352E-01 -1.371500827E-02 2.371008090E-01
 8.232876062E-01 -1.215437241E-02 2.493391846E-01
 8.348858356E-01 -1.053712424E-02 2.727939182E-01
 8.469523191E-01 -8.946761489E-03 2.918656692E-01
 8.588947058E-01 -7.437295746E-03 3.095840226E-01
 8.703629375E-01 -6.097927690E-03 3.253128432E-01
 8.816778064E-01 -4.827223718E-03 3.429653349E-01
 8.945174217E-01 -3.568370128E-03 3.556687528E-01
 9.044829011E-01 -2.684404375E-03 3.647865365E-01
 9.146521091E-01 -1.882920042E-03 3.731239171E-01
 9.245012403E-01 -1.219497994E-03 3.786694787E-01
 9.345007539E-01 -6.599614280E-04 3.821071092E-01
 9.475381970E-01 -8.298187458E-05 3.813464790E-01
 9.620205760E-01 3.462275199E-04 3.883364473E-01
 9.773208499E-01 5.675815046E-04 3.983488661E-01
 9.905386567E-01 5.873371847E-04 3.802541901E-01
 -5.000000000E-01 -1.000000000E+00 5.037344042E-02
 3.500000000E+00 -1.000000000E+00 1.070856058E-02
 3.500000000E+00 1.000000000E+00 2.685409923E-03
 -5.000000000E-01 1.000000000E+00 4.909536388E-02
 -5.000000000E-01 5.000000000E-01 9.633677191E-02
 -5.000000000E-01 2.752797990E-12 1.515556851E-01
 -5.000000000E-01 -5.000000000E-01 1.014347815E-01
 -9.421907698E-13 -1.000000000E+00 2.058671033E-02
 5.000000000E-01 -1.000000000E+00 -4.562483916E-02
 1.000000000E+00 -1.000000000E+00 -3.082632236E-02
 1.500000000E+00 -1.000000000E+00 1.478184683E-02
 2.000000000E+00 -1.000000000E+00 2.004086846E-02
 2.500000000E+00 -1.000000000E+00 1.449927609E-02
 3.000000000E+00 -1.000000000E+00 1.115300261E-02
 3.500000000E+00 -5.000000000E-01 1.190248954E-02
 3.500000000E+00 -2.752797990E-12 1.218817375E-02
 3.500000000E+00 5.000000000E-01 8.150217013E-03
 3.000000000E+00 1.000000000E+00 -2.914726388E-03
 2.500000000E+00 1.000000000E+00 -9.849276321E-03
 2.000000000E+00 1.000000000E+00 -2.243854997E-02
 1.500000000E+00 1.000000000E+00 -5.490512072E-02
 1.000000000E+00 1.000000000E+00 -1.024780093E-01
 5.000000000E-01 1.000000000E+00 -6.493863345E-02
 1.733724275E-12 1.000000000E+00 1.703952400E-02
 6.782063840E-01 -4.475591463E-02 9.590020347E-03
 7.847887217E-01 -2.974575820E-02 1.850436475E-01
 9.098831039E-01 -1.286506487E-02 3.541381977E-01
 5.859503980E-01 -6.227793653E-02 -1.868672104E-01
 7.004499233E-01 5.379741981E-02 -3.470560276E-01
 8.002630333E-01 4.169178057E-02 -2.228460694E-01
 2.851434980E-01 6.121463739E-02 -4.236376389E-01
 9.122706108E-01 2.886018375E-02 -6.013239821E-02
 5.930518409E-01 6.568740341E-02 -4.925575595E-01
 4.066570928E-01 6.563135137E-02 -5.277200850E-01
 4.305154773E-01 -8.365479237E-02 -7.442868097E-01
 1.838318131E+00 -5.935611814E-01 2.018327773E-02
 1.788059566E+00 6.428386445E-01 -1.324019875E-02
 3.031198550E+00 2.156734253E-01 6.490675220E-03
 7.578719477E-01 -5.754134436E-01 -3.352307985E-02
 2.870748610E-01 -8.549389722E-02 -6.477298240E-01
 3.535795311E-01 -8.573886505E-02 -7.801292264E-01
 5.052053211E-01 -7.356766808E-02 -4.307710586E-01
 3.745896904E-01 -6.843921891E-01 -1.034445902E-01
 1.242899804E-01 -6.726131346E-02 -3.124922283E-01
 1.914936195E-01 -7.503900935E-02 -4.615685379E-01
 7.543576391E-01 5.634914684E-01 -1.616361065E-01
 4.899684802E-01 7.012789763E-02 -5.542838253E-01
 2.734790983E+00 -5.327485711E-01 9.927170705E-03
 1.155858446E+00 6.895726340E-01 -5.637878852E-02
 9.986448852E-01 3.296638936E-01 -3.092147195E-02
 1.247311026E+00 -7.070518980E-01 3.334548888E-02
 1.515112970E+00 -2.440589218E-01 3.139920258E-02
 3.325890042E-01 6.146700819E-01 -1.023438687E-01
 1.095332082E-01 4.685958119E-02 -2.495622123E-01
 1.746387311E-01 5.463183605E-02 -3.118004135E-01
 2.249214227E+00 -5.877308385E-01 1.294195787E-02
 2.037653180E+00 -2.254644961E-01 1.020416906E-02
 2.422328275E+00 -1.888059360E-01 6.552121411E-03
 2.184427394E+00 1.577705243E-01 2.515728992E-03
 1.809305317E+00 6.436526744E-02 9.030689927E-03
 -2.736841585E-01 2.319654233E-01 1.620852079E-01
 -9.941475508E-02 6.201887991E-01 3.639423345E-02
 2.386176545E-02 3.354987076E-01 2.544608564E-02
 4.335706546E-02 3.245699768E-02 -1.186044335E-01
 -2.716522233E-01 -2.369676148E-01 1.733664157E-01
 -1.461167637E-01 -6.025483862E-01 4.884840199E-02
 1.240260035E-01 -3.856600184E-01 -5.203144924E-02
 6.860871055E-02 -5.353906817E-02 -1.389797980E-01
 2.240478535E+00 5.538955875E-01 -5.225914318E-03
 2.746254682E+00 5.959633566E-01 -1.675697187E-04
 -2.353902567E-01 -4.775381750E-03 2.199495135E-01
 -1.271513366E-01 1.260852398E-01 2.330453352E-01
 -1.103763976E-01 -1.277020877E-01 2.582174883E-01
 -7.615358994E-02 -3.234485433E-01 1.019552384E-01
 9.653355534E-03 -1.825590930E-01 1.289925592E-01
 3.736942361E-02 -3.730852811E-02 4.562964859E-02
 1.592989602E-01 -2.155076546E-01 -2.206732000E-01
 2.381487261E-01 -7.678642318E-02 -5.530019928E-01
 2.579513464E-01 -7.780368982E-02 -5.993200794E-01
 -2.275909560E-02 -9.965226670E-02 3.081739515E-01
 -1.102307498E-01 -2.382518463E-02 3.583261492E-01
 -7.033504987E-02 5.464484593E-02 3.665503568E-01
 3.215905943E-02 -1.171734925E-01 1.274040252E-01
 3.109328597E+00 -2.613247513E-01 1.021301862E-02
 -5.144083277E-02 -3.947870760E-02 4.639167376E-01
 -5.094066200E-02 1.076499122E-02 5.690887968E-01
 -2.095465054E-02 5.329343319E-02 3.771960429E-01
 2.341448260E-02 2.207509260E-02 -9.877226685E-02
 -3.873972434E-02 1.016897397E-01 2.614990274E-01
 2.593162265E-02 1.013337627E-01 5.607760540E-02
 7.556958668E-02 4.006638019E-02 -1.973918208E-01
 -5.050651138E-03 1.875325385E-01 1.077626523E-01
 8.643899489E-02 1.652065353E-01 -7.812803808E-02
 1.755599035E-01 2.851341008E-01 -1.463358026E-01
 3.419404474E-01 6.773994612E-02 -4.708174077E-01
 2.351118268E-01 6.097513280E-02 -3.712784430E-01
 2.148420487E-01 1.749003380E-01 -2.565749448E-01
 2.867638168E-01 2.581753993E-01 -2.739340950E-01
 2.980635554E-01 1.573316349E-01 -3.497873490E-01
 3.703019589E-01 2.166874299E-01 -3.602784820E-01
 3.748499160E-01 1.398437673E-01 -4.289508285E-01
 4.476842800E-01 7.556612061E-02 -5.385435747E-01
 4.408820631E-01 1.784045752E-01 -4.291286546E-01
 5.367588819E-01 6.739001063E-02 -5.460103971E-01
 4.504026277E-01 2.676325240E-01 -3.469420916E-01
 5.351056020E-01 2.049613660E-01 -4.073095948E-01
 5.469905369E-01 3.426716122E-01 -3.088640575E-01
 6.382250171E-01 2.589804029E-01 -3.161664140E-01
 6.496302906E-01 5.575869793E-02 -4.229298247E-01
 6.221032337E-01 1.570727379E-01 -3.935343785E-01
 7.164737620E-01 1.820132248E-01 -2.778613685E-01
 7.483348380E-01 5.073283859E-02 -2.838918175E-01
 7.253291696E-01 5.354858744E-02 -3.143148109E-01
 7.433425441E-01 2.669468113E-01 -2.283256328E-01
 8.249979918E-01 1.974692944E-01 -1.633415320E-01
 8.651659084E-01 3.779975685E-02 -1.509563299E-01
 8.891234756E-01 3.355609935E-02 -1.127818123E-01
 8.369755614E-01 3.642792006E-02 -1.857812623E-01
 7.774116571E-01 1.238249156E-01 -2.266108603E-01
 8.666943014E-01 1.270219727E-01 -1.196166760E-01
 9.592419598E-01 2.369263521E-02 7.826303335E-02
 9.343442304E-01 2.569698063E-02 3.458448228E-03
 6.783588940E-01 1.239748957E-01 -3.473208761E-01
 5.520385603E-01 1.362573801E-01 -4.677491320E-01
 1.482477589E-01 1.263914451E-01 -2.167628303E-01
 1.388378220E-01 4.863600830E-02 -2.789953020E-01
 6.353427641E-01 1.005170307E-01 -4.111432684E-01
 6.165285026E-01 6.183955160E-02 -4.646329888E-01
 8.290288402E-01 8.999724132E-02 -1.762550936E-01
 2.446078203E-01 1.220883354E-01 -3.336601546E-01
 9.123915807E-01 1.959794169E-01 -6.053526650E-02
 9.548314492E-01 1.211664862E-01 2.961976449E-03
 1.005396672E+00 2.076284749E-01 1.958323031E-02
 1.045379979E+00 1.209123508E-01 9.036365802E-02
 1.112022128E+00 2.557917383E-01 2.702515209E-02
 1.158124406E+00 1.237372213E-01 7.865021420E-02
 1.313429721E+00 2.783615311E-01 2.200929885E-02
 1.135995494E+00 1.568717925E-02 1.114364641E-01
 1.284271806E+00 2.950168548E-02 5.455929670E-02
 1.220591781E+00 -1.135162853E-01 8.990119893E-02
 1.072122712E+00 -1.057845603E-01 1.792716740E-01
 9.702313969E-01 -1.799696023E-02 3.458880165E-01
 9.403275773E-01 -9.268144447E-03 3.680093608E-01
 1.138065655E+00 -2.421842951E-01 1.086888988E-01
 1.001894839E+00 -2.220903084E-01 1.564939647E-01
 8.433886368E-01 -2.291966921E-02 2.746792847E-01
 8.771208338E-01 -1.526153964E-02 3.207066181E-01
 1.023363787E+00 -3.753061543E-01 9.080159930E-02
 9.048612473E-01 8.791014576E-02 -6.620722865E-02
 9.653291616E-01 -1.240003909E-01 2.291747234E-01
 8.935064696E-01 -1.858803896E-01 1.715125109E-01
 8.865116559E-01 -9.971550122E-02 2.352179066E-01
 8.245911018E-01 -1.333286588E-01 1.642468552E-01
 7.315912825E-01 -3.551474592E-02 1.016572289E-01
 7.598249700E-01 -3.665359150E-02 1.451886006E-01
 7.974067616E-01 -2.181326752E-01 9.392204035E-02
 7.028327602E-01 -1.754461258E-01 1.381980174E-02
 7.038718753E-01 -2.705611924E-01 -6.706821583E-03
 6.053559069E-01 -1.990594233E-01 -1.381724617E-01
 6.011289602E-01 -3.051718569E-01 -1.712494895E-01
 4.932418603E-01 -2.430187370E-01 -3.584993593E-01
 6.438003601E-01 -1.323125931E-01 -7.229208344E-02
 6.406515317E-01 -5.369683310E-02 -6.315407988E-02
 5.726796085E-01 -1.438030757E-01 -1.984427025E-01
 5.456539365E-01 -6.820759973E-02 -2.966971301E-01
 7.019867327E-01 -1.093101868E-01 2.496005009E-02
 8.353533264E-01 -7.919365634E-02 2.106601224E-01
 7.795193355E-01 -8.493630706E-02 1.482295754E-01
 4.315528437E-01 1.234425911E-01 -4.783959307E-01
 4.882984068E-01 1.276860362E-01 -4.882732910E-01
 5.983300259E-01 -1.071806954E-01 -1.563880878E-01
 4.832450171E-01 -4.051591865E-01 -2.345414994E-01
 3.616358892E-01 -2.868749541E-01 -3.993809419E-01
 4.037330120E-01 -1.913569273E-01 -5.459530207E-01
 3.924118274E-01 -8.657771152E-02 -8.084412893E-01
 2.914345956E-01 -2.152832812E-01 -4.452157297E-01
 3.345194134E-01 -1.568675597E-01 -5.920589582E-01
 3.228597046E-01 -8.149837439E-02 -7.361517210E-01
 3.265385680E-01 1.103882171E-01 -4.144152507E-01
 3.108583524E-01 6.294949163E-02 -4.465740464E-01
 1.081148957E+00 5.974495841E-02 1.503561249E-01
 8.988594101E-01 -2.974918245E-01 1.031980783E-01
 9.418985829E-01 -6.916694255E-02 2.888189364E-01
 1.003121755E+00 -6.326632660E-02 2.757665441E-01
 9.876663323E-01 7.654589646E-02 9.022465917E-02
 9.815480207E-01 1.692862899E-02 1.935365053E-01
 6.848127259E-01 3.821844364E-01 -2.354655323E-01
 6.628179251E-01 -8.872839888E-02 -2.725044776E-02
 5.297432487E-01 1.018249920E-01 -5.094219106E-01
 5.138001675E-01 6.767331687E-02 -5.540744891E-01
 5.622453038E-01 9.785052374E-02 -4.949171234E-01
 5.639385293E-01 7.227274146E-02 -5.205622597E-01
 8.989978647E-01 -5.484625084E-02 2.951168997E-01
 8.641297271E-01 -5.450549977E-02 2.692605323E-01
 4.634809306E-01 -1.695199734E-01 -5.069274214E-01
 4.650566116E-01 -7.527434239E-02 -5.953047763E-01
 4.279878119E-01 -1.398528980E-01 -6.346062700E-01
 1.441167377E-01 4.513882490E-01 -4.832986183E-02
 4.705516520E-01 -1.220358030E-01 -5.282302372E-01
 4.316662324E-01 3.998541185E-01 -2.577154655E-01
 -8.983842293E-03 -6.129806744E-02 4.552021452E-01
 1.054271447E-02 -2.034118119E-02 4.229722468E-01
 1.870495819E-02 -2.760753493E-02 2.839037868E-01
 2.727155690E-02 -7.555395990E-02 1.710511692E-01
 5.310280054E-02 -4.637071915E-02 -6.018187973E-02
 8.899652580E-01 -1.456045414E-02 3.387766026E-01
 6.654764004E-01 8.807511352E-02 -3.789394516E-01
 6.751718429E-01 5.405060403E-02 -3.837731245E-01
 7.009512470E-01 9.115522265E-02 -3.319314961E-01
 7.230007025E-01 1.218450336E-01 -2.873973386E-01
 7.396188479E-01 8.970519817E-02 -2.809303968E-01
 1.497740429E+00 1.142769777E-01 2.292264171E-02
 6.807742148E-02 -9.237860572E-02 -7.085882483E-02
 1.027038932E-01 -6.064767489E-02 -2.573992274E-01
 8.051949724E-02 -1.398921977E-01 -4.691422771E-02
 1.121604277E-01 -1.115332627E-01 -2.151171830E-01
 1.573334830E-01 -6.958680012E-02 -3.927166884E-01
 3.624866461E-01 9.982099055E-02 -4.613856013E-01
 3.829662644E-01 6.531667132E-02 -5.115036724E-01
 3.988194141E-01 1.029133598E-01 -4.829707739E-01
 7.636100772E-01 4.927111434E-02 -2.659714403E-01
 8.821184979E-01 -3.231918258E-02 3.054972689E-01
 5.614093586E-01 -6.617872106E-02 -2.532425358E-01
 5.530585363E-01 -8.041977798E-02 -2.726963425E-01
 5.357124288E-01 -7.995622250E-02 -3.247014338E-01
 5.737843464E-01 -8.004375331E-02 -2.176929922E-01
 5.208919305E-01 -7.113748761E-02 -3.758264877E-01
 5.146673801E-01 -8.667438121E-02 -3.814529888E-01
 4.963580338E-01 -8.501278037E-02 -4.582853065E-01
 5.060975544E-01 -1.100073432E-01 -3.963445356E-01
 8.049836147E-01 -5.916639685E-02 1.910047464E-01
 8.183445529E-01 -2.614173709E-02 2.355197351E-01
 8.327099141E-01 -4.132391197E-02 2.430026671E-01
 1.807778597E-02 6.155602726E-02 8.690609794E-02
 5.730144110E-02 7.447580023E-02 -9.568505687E-02
 3.557335176E-01 6.572935335E-02 -4.883177333E-01
 1.329599134E+00 -2.663379819E-01 5.734087814E-02
 1.006191182E+00 -6.427670923E-01 2.391162223E-02
 1.454859355E+00 5.438364497E-01 -1.076208125E-02
 6.389386450E-01 5.812093443E-02 -4.365558956E-01
 6.466948267E-01 7.101216127E-02 -4.159268161E-01
 6.285642741E-01 7.257445724E-02 -4.399070355E-01
 6.096909962E-01 7.844409522E-02 -4.610350108E-01
 5.945727411E-01 1.095787924E-01 -4.534935705E-01
 5.842697094E-01 8.300764490E-02 -4.892079076E-01
 8.614082343E-01 -3.039642496E-02 2.859141533E-01
 8.999813421E-01 -2.546471405E-02 3.290057854E-01
 9.186562692E-01 -2.642524314E-02 3.376363319E-01
 5.330705943E-01 -6.681895488E-02 -3.371442469E-01
 6.251334111E-01 -5.679246215E-02 -9.688657207E-02
 6.378399562E-01 -7.276583963E-02 -7.262778185E-02
 6.141900726E-01 -7.535697966E-02 -1.217758129E-01
 4.934470936E-01 -7.159621684E-02 -4.829241108E-01
 7.555161641E-01 6.817657483E-02 -2.688771375E-01
 7.774280254E-01 6.220057254E-02 -2.447241025E-01
 6.627347475E-01 5.992722796E-02 -3.993375008E-01
 6.126019491E-01 -5.720426113E-02 -1.232623820E-01
 8.033825681E-01 -3.705801213E-02 2.058454604E-01
 5.642403127E-01 5.153589548E-01 -2.252767828E-01
 3.949337219E-01 6.762748344E-02 -5.175429449E-01
 5.480097889E-01 -1.058051500E-01 -2.724970826E-01
 6.873545719E-01 5.551783484E-02 -3.670173152E-01
 6.808352414E-01 6.962917692E-02 -3.685187910E-01
 7.164455125E-01 6.841071986E-02 -3.198087669E-01
 1.021006154E+00 3.837046519E-02 1.798960267E-01
 1.043412888E+00 -1.114109986E-02 2.233373377E-01
 9.733475526E-01 4.563960863E-02 8.699855495E-02
 9.459620770E-01 3.911447928E-02 2.952441022E-02
 9.258491230E-01 3.867879552E-02 -2.431841865E-02
 9.056596813E-01 4.705612948E-02 -6.621621274E-02
 8.822509299E-01 5.394269805E-02 -1.145889687E-01
 8.593275780E-01 5.829013335E-02 -1.502714261E-01
 9.503911068E-01 -3.617725739E-02 3.348394656E-01
 6.050877837E-01 6.154787823E-02 -4.805634414E-01
 5.785510345E-01 6.453977002E-02 -5.111401991E-01
 9.005517219E-01 2.922601587E-02 -8.836624584E-02
 7.872447254E-01 4.542769832E-02 -2.364093324E-01
 7.953563860E-01 5.772688850E-02 -2.253095745E-01
 8.134128405E-01 5.814122986E-02 -2.031220316E-01
 8.767489235E-01 3.385023068E-02 -1.381944178E-01
 7.754121174E-01 4.518912659E-02 -2.510334595E-01
 9.230151031E-01 2.446629343E-02 -3.344984243E-02
 6.655784915E-01 -4.905172130E-02 -1.431246607E-02
 6.767319121E-01 -6.074576090E-02 -8.000569620E-05
 7.096993561E-01 -4.482750997E-02 6.228385837E-02
 7.013456541E-01 -6.890474783E-02 4.133182374E-02
 6.557475368E-01 -6.317567006E-02 -3.556282332E-02
 4.578819549E-01 1.013893124E-01 -5.147215483E-01
 8.571856997E-01 3.321528002E-01 -1.321596792E-01
 5.729837702E-01 -6.231337627E-02 -2.209028653E-01
 4.196716231E-01 6.995083538E-02 -5.316632703E-01
 5.504205423E-01 6.466751798E-02 -5.402818704E-01
 5.448160316E-01 8.058086627E-02 -5.259026466E-01
 5.259485376E-01 7.872490199E-02 -5.380214731E-01
 5.046061575E-01 8.571887600E-02 -5.331291091E-01
 4.804601746E-01 9.075887754E-02 -5.289817812E-01
 4.276432335E-01 8.891366054E-02 -5.144638525E-01
 4.643087633E-01 7.473477974E-02 -5.447933286E-01
 8.258930435E-01 3.921013591E-02 -1.988877995E-01
 8.349856310E-01 5.321820871E-02 -1.810132930E-01
 7.209918848E-01 -3.827255977E-02 8.585449989E-02
 7.297591065E-01 -5.242241817E-02 9.204731558E-02
 7.376283913E-01 -8.365460427E-02 8.977139349E-02
 7.551202215E-01 -5.838800184E-02 1.277708632E-01
 7.767918750E-01 -4.808954856E-02 1.638846021E-01
 7.563500549E-01 -1.275408771E-01 9.557669768E-02
 4.336107414E-01 6.831345878E-02 -5.397885445E-01
 6.527089275E-01 -4.881315742E-02 -3.785085241E-02
 8.643936403E-01 -1.546758269E-02 3.077704687E-01
 8.997660054E-01 -1.182860151E-02 3.505132049E-01
 9.195334786E-01 -1.035950133E-02 3.631699165E-01
 6.912259895E-01 -4.740700986E-02 3.239876380E-02
 9.508348084E-01 -1.464445246E-02 3.672213990E-01
 8.490754344E-01 3.939867265E-02 -1.709832107E-01
 5.254299439E-01 6.479329755E-02 -5.523189848E-01
 8.546029274E-01 -1.757779756E-02 2.947771634E-01
 -1.177478756E-01 2.666100011E-01 1.285853818E-01
 7.438007577E-01 -3.856201451E-02 1.203307986E-01
 6.271058261E-01 5.891805083E-02 -4.516166449E-01
 2.563449148E+00 2.029330320E-01 2.002897353E-03
 -1.944426422E-02 -3.213811150E-02 5.744340409E-01
 4.018407774E-03 -1.550471011E-02 6.477175343E-01
 -1.981594731E-02 -7.711118405E-03 8.235688929E-01
 -5.309029550E-03 -1.464650698E-02 8.045753776E-01
 1.045530870E-03 -4.191694091E-02 5.068670719E-01
 -4.449200485E-04 -1.063132649E-02 8.228763602E-01
 -1.218306199E-02 1.551220251E-02 6.657427585E-01
 1.821416417E-02 -5.213898299E-02 2.792486532E-01
 8.061943669E-01 -2.372254673E-02 2.223072184E-01
 7.967178202E-01 -2.461245689E-02 2.076558115E-01
 9.362557710E-01 6.699489525E-02 4.867452945E-03
 4.819948645E-01 -7.504688533E-02 -5.246014329E-01
 8.305233091E-01 -2.261536298E-02 2.549706618E-01
 6.008470927E-01 -6.092875911E-02 -1.488593589E-01
 7.134936962E-01 5.166406055E-02 -3.316472656E-01
 2.456885041E-03 3.735423421E-02 2.333034644E-01
 9.434249632E-03 1.266586592E-02 -2.150523976E-02
 1.410192506E+00 -9.045682288E-02 4.381365823E-02
 1.602358501E+00 -7.872348866E-02 2.324518044E-02
 7.364180500E-01 5.016221654E-02 -2.992559468E-01
 7.932601581E-01 7.974869222E-02 -2.195880345E-01
 1.314804163E-01 -1.557315557E-01 -2.181410997E-01
 1.567128484E-01 -1.139821070E-01 -3.263188801E-01
 1.851209853E-01 -1.536807179E-01 -3.375392493E-01
 1.973469581E-01 -1.143623759E-01 -4.135131411E-01
 2.288268251E-01 -1.359722102E-01 -4.497386556E-01
 2.163493626E-01 -7.633501263E-02 -5.115599626E-01
 2.251712065E-01 -1.051306047E-01 -4.860019994E-01
 2.030754592E-01 -8.974553086E-02 -4.676456077E-01
 1.802917096E-01 -9.142903734E-02 -4.096316755E-01
 2.561771859E-01 -1.117009436E-01 -5.363542829E-01
 2.789564192E-01 -1.425636652E-01 -5.205995339E-01
 3.162241263E-01 -1.170881599E-01 -6.455281192E-01
 3.518949628E-01 -1.197100571E-01 -6.939311903E-01
 2.841843595E-01 -1.096277628E-01 -6.029421744E-01
 9.286698859E-01 -1.210332445E-02 3.656009535E-01
 4.323392694E-01 -1.064239014E-01 -6.927025021E-01
 4.042894871E-01 -1.117399981E-01 -7.365352133E-01
 4.522392786E-01 -8.904474799E-02 -6.411617118E-01
 4.115071279E-01 -9.145962747E-02 -7.809074509E-01
 3.774679165E-01 -1.072545647E-01 -7.501732360E-01
 3.397358440E-01 -1.006541317E-01 -7.204836244E-01
 3.853629044E-01 -1.394749771E-01 -6.756643342E-01
 3.715467857E-01 -8.470727629E-02 -8.042036687E-01
 3.587969767E-01 -9.991887843E-02 -7.525704170E-01
 8.684325794E-01 8.343243824E-02 -1.289274239E-01
 4.053205562E-01 7.984328557E-02 -5.114499819E-01
 3.857316308E-01 8.029657302E-02 -4.963195221E-01
 8.404563340E-02 -2.704406597E-01 -3.201866453E-02
 2.216978425E-01 -2.856870473E-01 -2.661202855E-01
 2.829343300E-01 -4.375552253E-01 -2.090097952E-01
 5.825748922E-01 -5.809487895E-01 -1.257451932E-01
 5.946203871E-01 -7.715762480E-02 -1.630237186E-01
 9.730328951E-01 -4.232366120E-02 3.185165089E-01
 9.956029993E-01 -2.389712433E-02 3.583860070E-01
 9.867137228E-01 -8.041030707E-03 3.819698406E-01
 1.854640174E-03 -2.715522119E-02 5.596523093E-01
 1.337191764E-01 -8.983883594E-02 -2.989507225E-01
 2.879877702E-01 4.014495554E-01 -1.989518399E-01
 7.716931043E-01 -3.079108346E-02 1.652470126E-01
 8.126409537E-01 3.979678797E-02 -2.129995272E-01
 2.275559380E-01 -1.914490961E-01 -3.753500721E-01
 6.313956680E-01 -9.526890133E-02 -8.800821126E-02
 3.501618250E-01 8.429784166E-02 -4.613266214E-01
 3.244825688E-01 8.373490537E-02 -4.380655988E-01
 2.959280445E-01 9.328497400E-02 -4.045502209E-01
 2.646063394E-01 9.089462992E-02 -3.772909216E-01
 2.615638616E-01 6.707941456E-02 -3.957735015E-01
 2.735424667E-01 6.143520645E-02 -4.136351630E-01
 2.482334211E-01 6.044680490E-02 -3.872768511E-01
 2.404546780E-01 8.263914278E-02 -3.584385385E-01
 2.122869867E-01 5.853344151E-02 -3.496341287E-01
 2.065992539E-01 1.041374314E-01 -2.997827233E-01
 1.706252905E-01 9.005039465E-02 -2.698581015E-01
 1.315494740E-01 8.579771544E-02 -2.244032100E-01
 2.198749659E-01 7.299877442E-02 -3.457677841E-01
 1.999080212E-01 7.390536989E-02 -3.194182882E-01
 2.233586619E-01 5.730879079E-02 -3.632449598E-01
 2.007239690E-01 5.516767035E-02 -3.402750374E-01
 1.891665655E-01 5.725439637E-02 -3.247228384E-01
 1.786796313E-01 6.849693131E-02 -3.057945532E-01