TITLE     = "Visualization of the solution"
VARIABLES = "x"
"y"
"Pressure_Coefficient"
ZONE T="Zone"
 STRANDID=0, SOLUTIONTIME=0
 Nodes=703, Elements=1191, ZONETYPE=FEQuadrilateral
 DATAPACKING=POINT
 DT=(DOUBLE DOUBLE DOUBLE )
 1.000061989E+00 5.049439496E-04 3.160906723E-01
 9.850845337E-01 3.359781113E-03 2.689586934E-01
 9.711532593E-01 6.059503183E-03 1.572232106E-01
 9.542370439E-01 9.357968345E-03 1.180851129E-01
 9.391541481E-01 1.228240412E-02 6.517216291E-02
 9.250631332E-01 1.498047542E-02 3.034622344E-02
 9.133903980E-01 1.725902408E-02 -3.854166290E-03
 9.011467695E-01 1.956402697E-02 -4.101737315E-02
 8.894833922E-01 2.182458527E-02 -7.287059878E-02
 8.769877553E-01 2.408327349E-02 -9.736034999E-02
 8.648253679E-01 2.632926218E-02 -1.209138421E-01
 8.522574902E-01 2.853184752E-02 -1.494703074E-01
 8.405063152E-01 3.065967560E-02 -1.801975807E-01
 8.292034864E-01 3.258397430E-02 -1.997269015E-01
 8.177665472E-01 3.452387825E-02 -2.209262633E-01
 8.055875301E-01 3.652547300E-02 -2.451567736E-01
 7.933168411E-01 3.853313997E-02 -2.666956734E-01
 7.813687921E-01 4.040047526E-02 -2.824241445E-01
 7.693701386E-01 4.226148501E-02 -3.045972151E-01
 7.581506968E-01 4.397776723E-02 -3.270894258E-01
 7.456680536E-01 4.583774880E-02 -3.508610399E-01
 7.326600552E-01 4.773623869E-02 -3.730573869E-01
 7.221288681E-01 4.921387881E-02 -3.965726587E-01
 7.112551928E-01 5.073105171E-02 -4.210874952E-01
 6.997951269E-01 5.226148292E-02 -4.428692708E-01
 6.867772341E-01 5.394363031E-02 -4.719370135E-01
 6.743373871E-01 5.550550669E-02 -5.069921379E-01
 6.640682817E-01 5.676523596E-02 -5.308653906E-01
 6.525224447E-01 5.808383226E-02 -5.586220449E-01
 6.414949894E-01 5.933605507E-02 -5.928888646E-01
 6.299881339E-01 6.056501716E-02 -6.225590255E-01
 6.186105013E-01 6.171511859E-02 -6.563027017E-01
 6.081950665E-01 6.272277981E-02 -6.903629952E-01
 5.963536501E-01 6.379718333E-02 -7.235635245E-01
 5.849263072E-01 6.477657706E-02 -7.428500186E-01
 5.714684129E-01 6.580232084E-02 -7.606181985E-01
 5.590453744E-01 6.669570506E-02 -7.777219369E-01
 5.466232896E-01 6.748738140E-02 -7.931662109E-01
 5.356150866E-01 6.815753132E-02 -7.989718972E-01
 5.238345265E-01 6.875628978E-02 -7.940298215E-01
 5.113955140E-01 6.932543218E-02 -7.887591289E-01
 5.004518032E-01 6.974948198E-02 -7.843760982E-01
 4.875556529E-01 7.020348310E-02 -7.798151879E-01
 4.744848907E-01 7.055638731E-02 -7.660352096E-01
 4.605641365E-01 7.082628459E-02 -7.475726420E-01
 4.470235407E-01 7.098781317E-02 -7.309658175E-01
 4.341810644E-01 7.107125223E-02 -7.206214312E-01
 4.212767780E-01 7.108683884E-02 -7.099417404E-01
 4.087605476E-01 7.101879269E-02 -6.957224692E-01
 3.957497776E-01 7.085761428E-02 -6.846490966E-01
 3.834605515E-01 7.064858079E-02 -6.750568112E-01
 3.717398047E-01 7.038016617E-02 -6.614822816E-01
 3.583433926E-01 6.999446452E-02 -6.452260206E-01
 3.455713689E-01 6.953310221E-02 -6.320656875E-01
 3.326540589E-01 6.902028620E-02 -6.250606783E-01
 3.219213188E-01 6.852501631E-02 -6.102362374E-01
 3.093391061E-01 6.786663085E-02 -5.941495599E-01
 2.963171005E-01 6.710678339E-02 -5.793290196E-01
 2.825302482E-01 6.622350216E-02 -5.673526623E-01
 2.701278031E-01 6.533857435E-02 -5.558144844E-01
 2.582980394E-01 6.443066150E-02 -5.399129953E-01
 2.458421141E-01 6.337761879E-02 -5.202163001E-01
 2.332408875E-01 6.222765520E-02 -5.056459495E-01
 2.209583968E-01 6.104285643E-02 -4.896391378E-01
 2.090609819E-01 5.978182331E-02 -4.738878429E-01
 1.972902268E-01 5.847513303E-02 -4.563968857E-01
 1.848481894E-01 5.697119236E-02 -4.366474060E-01
 1.730146408E-01 5.544963107E-02 -4.198260393E-01
 1.613416374E-01 5.385368317E-02 -4.055765597E-01
 1.496231556E-01 5.215099081E-02 -3.893947134E-01
 1.387146115E-01 5.045359209E-02 -3.691413490E-01
 1.272693425E-01 4.855612665E-02 -3.489407115E-01
 1.160756648E-01 4.658869281E-02 -3.291620272E-01
 1.054785401E-01 4.459233209E-02 -3.065643365E-01
 9.558103234E-02 4.260791838E-02 -2.785690046E-01
 8.486062288E-02 4.030837864E-02 -2.481778220E-01
 7.347432524E-02 3.767195717E-02 -2.271200697E-01
 6.373742968E-02 3.522827104E-02 -1.949833622E-01
 5.414804444E-02 3.261870146E-02 -1.463284258E-01
 4.535211995E-02 3.000702523E-02 -9.176181125E-02
 3.779922053E-02 2.755383588E-02 -4.603732803E-02
 3.106954321E-02 2.516952716E-02 -5.138820446E-03
 2.536364086E-02 2.294780314E-02 1.849803415E-02
 2.118936926E-02 2.116863616E-02 1.008534486E-01
 1.716464013E-02 1.931191608E-02 1.410850098E-01
 1.407163404E-02 1.774456166E-02 1.868023596E-01
 1.130780205E-02 1.621502079E-02 2.495176591E-01
 9.272535332E-03 1.499041077E-02 2.665680278E-01
 7.450911682E-03 1.379696280E-02 3.704414774E-01
 5.764978472E-03 1.258682460E-02 4.037544175E-01
 3.599924501E-03 1.081469748E-02 4.469256157E-01
 1.791177667E-03 9.042575955E-03 7.277330433E-01
 3.025167389E-04 7.212684490E-03 6.922680747E-01
 -1.126331044E-03 4.673059564E-03 7.706761856E-01
 -1.720441738E-03 2.739771968E-03 9.427611035E-01
 -1.900143339E-03 1.189461793E-03 1.326573772E+00
 -1.782148029E-03 -5.946004530E-04 8.662873806E-01
 -1.301260432E-03 -2.490758896E-03 8.336230161E-01
 -2.753072185E-04 -4.723580554E-03 8.328516559E-01
 1.291987835E-03 -7.040862460E-03 8.301140120E-01
 3.430088516E-03 -9.423246607E-03 4.482989789E-01
 5.359478761E-03 -1.119553484E-02 3.389696394E-01
 7.570292335E-03 -1.295421645E-02 3.040702929E-01
 9.288580157E-03 -1.418246422E-02 1.623859301E-01
 1.141923293E-02 -1.558147371E-02 1.696962718E-01
 1.384845562E-02 -1.703434251E-02 1.264933887E-01
 1.712579094E-02 -1.881508343E-02 9.073684289E-02
 2.018678561E-02 -2.033490688E-02 2.713504166E-02
 2.412320673E-02 -2.212378755E-02 -7.956007793E-03
 2.945322357E-02 -2.431599610E-02 -5.384359411E-02
 3.512869775E-02 -2.642589994E-02 -8.726513373E-02
 4.200643674E-02 -2.872622386E-02 -1.328673561E-01
 4.949996248E-02 -3.099237941E-02 -1.671946705E-01
 5.828109011E-02 -3.341224045E-02 -1.982303997E-01
 6.694763154E-02 -3.558024392E-02 -2.297749843E-01
 7.707234472E-02 -3.790220246E-02 -2.496152030E-01
 8.687602729E-02 -3.997751325E-02 -2.789723254E-01
 9.728826582E-02 -4.201877490E-02 -3.024009867E-01
 1.083781943E-01 -4.402697831E-02 -3.227655698E-01
 1.196596995E-01 -4.593241587E-02 -3.429085345E-01
 1.312484890E-01 -4.774950817E-02 -3.621985826E-01
 1.417064071E-01 -4.929401726E-02 -3.813390364E-01
 1.527828872E-01 -5.081908405E-02 -3.980785762E-01
 1.646619737E-01 -5.235747248E-02 -4.146730937E-01
 1.762116402E-01 -5.374805257E-02 -4.335592974E-01
 1.878397167E-01 -5.506198481E-02 -4.531006933E-01
 1.983798891E-01 -5.616264418E-02 -4.706415313E-01
 2.096851021E-01 -5.726917088E-02 -4.868966207E-01
 2.219348699E-01 -5.838218704E-02 -5.073408181E-01
 2.341475934E-01 -5.937192962E-02 -5.271412984E-01
 2.460486591E-01 -6.026102602E-02 -5.447730070E-01
 2.582240403E-01 -6.108578667E-02 -5.670013454E-01
 2.691600621E-01 -6.172372401E-02 -5.911296477E-01
 2.816189528E-01 -6.235457212E-02 -6.074437809E-01
 2.937240601E-01 -6.286280602E-02 -6.230750026E-01
 3.065438867E-01 -6.328807026E-02 -6.385711000E-01
 3.182016313E-01 -6.357681006E-02 -6.575803256E-01
 3.307559192E-01 -6.376174092E-02 -6.714131302E-01
 3.414471745E-01 -6.381891668E-02 -6.812209733E-01
 3.529776335E-01 -6.377974898E-02 -6.853349714E-01
 3.638981879E-01 -6.364019960E-02 -6.869959752E-01
 3.747642636E-01 -6.341625005E-02 -6.870182057E-01
 3.864501715E-01 -6.305284053E-02 -6.816059094E-01
 3.994462788E-01 -6.250964850E-02 -6.638313853E-01
 4.118816555E-01 -6.186434999E-02 -6.392467803E-01
 4.245598018E-01 -6.106094643E-02 -6.066231431E-01
 4.369927347E-01 -6.015144661E-02 -5.680311870E-01
 4.495592415E-01 -5.912056565E-02 -5.333927287E-01
 4.615983069E-01 -5.800927430E-02 -4.974378871E-01
 4.740087986E-01 -5.675602332E-02 -4.512361708E-01
 4.859558940E-01 -5.546138063E-02 -4.043782055E-01
 4.986094534E-01 -5.401187390E-02 -3.609845515E-01
 5.124410987E-01 -5.233928189E-02 -3.200639236E-01
 5.258226991E-01 -5.063784122E-02 -2.820326866E-01
 5.387201905E-01 -4.891858622E-02 -2.445238929E-01
 5.518583655E-01 -4.710990191E-02 -2.058070146E-01
 5.650405288E-01 -4.523112252E-02 -1.682558121E-01
 5.781573057E-01 -4.334576055E-02 -1.334231206E-01
 5.909354687E-01 -4.149775580E-02 -1.052041174E-01
 6.038711667E-01 -3.960369900E-02 -7.910388025E-02
 6.176409125E-01 -3.754560277E-02 -4.854147781E-02
 6.319506764E-01 -3.543727100E-02 -2.093345972E-02
 6.461758018E-01 -3.328894824E-02 5.433103111E-03
 6.591569185E-01 -3.133538738E-02 3.394449658E-02
 6.726762056E-01 -2.931791544E-02 5.771432018E-02
 6.852685809E-01 -2.747792006E-02 7.540751158E-02
 6.975989342E-01 -2.565670758E-02 9.475801062E-02
 7.124173641E-01 -2.349801920E-02 1.164872592E-01
 7.252396345E-01 -2.160037868E-02 1.409883810E-01
 7.369082570E-01 -1.994065568E-02 1.616569850E-01
 7.502075434E-01 -1.807984710E-02 1.773103930E-01
 7.631702423E-01 -1.633632183E-02 1.928133005E-01
 7.764917612E-01 -1.452497300E-02 2.098072925E-01
 7.884929180E-01 -1.292364206E-02 2.320308484E-01
 8.014264107E-01 -1.126854308E-02 2.488429949E-01
 8.125132918E-01 -9.889700450E-03 2.643759246E-01
 8.238739371E-01 -8.525391109E-03 2.785974349E-01
 8.364020586E-01 -7.077430841E-03 2.960844356E-01
 8.490067720E-01 -5.716805346E-03 3.124236379E-01
 8.612238765E-01 -4.470193293E-03 3.276830594E-01
 8.723438382E-01 -3.420609748E-03 3.430372271E-01
 8.838558793E-01 -2.454218455E-03 3.543703725E-01
 8.968956470E-01 -1.496655983E-03 3.619715741E-01
 9.072377682E-01 -8.402634412E-04 3.710021520E-01
 9.177011251E-01 -2.685776562E-04 3.771477455E-01
 9.278811812E-01 1.629330218E-04 3.821323588E-01
 9.374923110E-01 4.822525661E-04 3.810090758E-01
 9.495238066E-01 7.617237279E-04 3.845180023E-01
 9.627682567E-01 9.114563582E-04 3.819819141E-01
 9.769139290E-01 8.985188906E-04 3.937801765E-01
 9.890630841E-01 7.391659310E-04 3.994491047E-01
 -5.000000000E-01 -1.000000000E+00 5.474195574E-02
 3.500000000E+00 -1.000000000E+00 1.384158097E-02
 3.500000000E+00 1.000000000E+00 -2.531797764E-03
 -5.000000000E-01 1.000000000E+00 5.184804595E-02
 -5.000000000E-01 5.000000000E-01 1.090853849E-01
 -5.000000000E-01 2.752797990E-12 1.658174346E-01
 -5.000000000E-01 -5.000000000E-01 1.106032601E-01
 -9.421907698E-13 -1.000000000E+00 2.985531849E-02
 5.000000000E-01 -1.000000000E+00 -2.157294560E-02
 1.000000000E+00 -1.000000000E+00 3.640588337E-03
 1.500000000E+00 -1.000000000E+00 3.441610984E-02
 2.000000000E+00 -1.000000000E+00 3.186660325E-02
 2.500000000E+00 -1.000000000E+00 2.169225148E-02
 3.000000000E+00 -1.000000000E+00 1.574221201E-02
 3.500000000E+00 -5.000000000E-01 1.411533808E-02
 3.500000000E+00 -2.752797990E-12 1.313385560E-02
 3.500000000E+00 5.000000000E-01 5.255768705E-03
 3.000000000E+00 1.000000000E+00 -8.701625303E-03
 2.500000000E+00 1.000000000E+00 -1.792349299E-02
 2.000000000E+00 1.000000000E+00 -3.576313247E-02
 1.500000000E+00 1.000000000E+00 -8.119826972E-02
 1.000000000E+00 1.000000000E+00 -1.462772841E-01
 5.000000000E-01 1.000000000E+00 -9.684395753E-02
 1.733724275E-12 1.000000000E+00 1.353437228E-02
 6.808186068E-01 -4.104253180E-02 6.427295557E-02
 7.844156056E-01 -2.367640054E-02 2.175608579E-01
 9.033346660E-01 -1.397330564E-02 3.533375978E-01
 5.873765349E-01 -5.596537647E-02 -1.162073906E-01
 7.055768343E-01 6.371514499E-02 -4.235147726E-01
 2.748356804E-01 7.949553349E-02 -5.431839256E-01
 3.613322139E-01 8.587198178E-02 -6.294040811E-01
 9.085929796E-01 2.955704423E-02 -2.437974645E-02
 2.370060055E-01 -7.410333846E-02 -5.088261367E-01
 8.000737488E-01 5.133580955E-02 -2.482345050E-01
 5.916815734E-01 7.576937161E-02 -7.162059740E-01
 4.023369759E-01 -7.487758747E-02 -6.336729521E-01
 4.955773091E-01 7.967998481E-02 -7.700257388E-01
 1.784636937E+00 -5.258907759E-01 3.060539441E-02
 1.784032241E+00 6.683483019E-01 -2.474572488E-02
 3.031174205E+00 2.156846958E-01 5.622904861E-03
 7.500000000E-01 -5.669872981E-01 -1.238969096E-03
 4.802589021E-01 -6.835503681E-02 -4.156140852E-01
 2.863341145E-01 -6.985021296E-01 -5.251934410E-02
 1.235384322E-01 -5.815082839E-02 -3.274614232E-01
 3.356791028E-01 -7.386368433E-02 -6.556004592E-01
 7.172966080E-01 5.177961177E-01 -2.541975518E-01
 3.406336719E-01 6.162006225E-01 -1.864760432E-01
 1.188042122E-01 5.862858143E-02 -3.126714649E-01
 1.753495476E-01 7.043895348E-02 -4.009683514E-01
 2.734850936E+00 -5.326885574E-01 1.344348059E-02
 1.126438100E+00 5.897505933E-01 -6.811122993E-02
 9.868133288E-01 3.442352269E-01 -5.559067536E-02
 1.276941138E+00 -6.041866949E-01 5.922105000E-02
 1.527436068E+00 -2.607565178E-01 3.775360166E-02
 2.240319920E+00 -5.763703298E-01 1.869844255E-02
 2.020262396E+00 -1.874332626E-01 1.307553368E-02
 2.420208444E+00 -1.843039254E-01 8.448151845E-03
 2.184629633E+00 1.582488590E-01 2.143699766E-03
 1.832982422E+00 9.486211943E-02 5.077553084E-03
 -2.710175460E-01 -2.366995422E-01 1.791078115E-01
 -6.882162587E-02 -6.055735326E-01 4.037096059E-02
 1.050374517E-01 -3.621754834E-01 -4.185647237E-02
 1.811675579E-01 -6.728643528E-02 -4.246493267E-01
 -2.700125700E-01 2.402865842E-01 1.819851625E-01
 -1.355279794E-01 6.541092132E-01 4.491070715E-02
 2.455117121E-02 3.302493933E-01 2.675441861E-02
 4.460354920E-02 3.879994704E-02 -6.492132419E-02
 2.239901316E+00 5.576208036E-01 -9.725668296E-03
 2.746147519E+00 5.965890091E-01 -3.405602041E-03
 -2.344284069E-01 9.118875131E-05 2.483962801E-01
 -1.190221425E-01 -1.410076420E-01 2.434323083E-01
 7.017533147E-02 -4.474109577E-02 -2.028817682E-01
 4.438142155E-02 -3.838626243E-02 -1.082430431E-01
 -6.883089086E-02 -3.220572583E-01 1.076242470E-01
 4.137927122E-03 -1.816101234E-01 1.184765968E-01
 1.636782263E-01 -2.290631353E-01 -2.038556138E-01
 -3.714446690E-02 -9.794526418E-02 3.483883902E-01
 2.055976863E-02 -2.539767465E-02 5.509146247E-02
 -9.486677176E-02 -6.644472180E-03 4.391375587E-01
 3.987457343E-02 -1.073087536E-01 3.819327231E-02
 3.109362161E+00 -2.612721830E-01 1.190957352E-02
 1.441150254E-02 -7.054807813E-02 1.926605545E-01
 9.284476646E-03 -1.758643302E-02 2.234099339E-01
 -2.112649253E-02 -1.332918115E-02 7.498787659E-01
 -9.105634914E-03 -4.321560051E-02 3.658752140E-01
 2.879220457E-03 -1.341901611E-02 2.738128832E-01
 2.563039058E+00 2.045308003E-01 4.013516142E-04
 4.364080527E-02 -7.414730944E-02 -4.690803423E-03
 8.847002771E-02 -1.033778139E-01 -1.663108736E-01
 1.002459528E-01 -5.622395149E-02 -2.752506275E-01
 1.583815253E-02 -4.431926717E-02 2.061746191E-01
 3.128599030E-02 -3.304918043E-02 -2.720305835E-02
 7.188066064E-02 -7.473677570E-02 -1.381778808E-01
 8.310254738E-02 -5.840539586E-02 -2.292148620E-01
 9.986441464E-02 -7.842373987E-02 -2.407645014E-01
 1.282511520E-01 -1.079105782E-01 -2.611272244E-01
 9.619573393E-02 -1.601249128E-01 -1.265792577E-01
 5.217998590E-02 -5.517784484E-02 -1.089713322E-01
 3.362297635E-02 -5.260465707E-02 2.445256849E-02
 7.006991682E-02 -2.603907745E-01 -1.110368225E-02
 2.545324829E-01 -2.964268142E-01 -2.469160178E-01
 2.922021406E-01 -2.018757842E-01 -3.887554887E-01
 3.639130581E-01 -2.448897461E-01 -3.516634832E-01
 2.720741921E-01 -7.492483007E-02 -5.703457860E-01
 3.001189721E-01 -7.114814748E-02 -6.169223202E-01
 3.763681826E-01 -1.646696933E-01 -4.796490361E-01
 4.556510401E-01 -2.012433695E-01 -3.442095406E-01
 5.344269575E-01 -6.771151946E-02 -2.484598073E-01
 4.441344275E-01 -7.112197731E-02 -5.298799171E-01
 3.697133748E-01 -7.595252689E-02 -6.585068724E-01
 4.722529767E-01 -3.098616419E-01 -2.353041274E-01
 5.591612606E-01 -2.270853184E-01 -1.522895815E-01
 2.073816856E-01 -1.476769206E-01 -3.495519247E-01
 5.246161665E-01 -1.460563075E-01 -2.447493728E-01
 6.368579657E-01 -1.726259158E-01 -3.761368398E-02
 7.316845663E-01 -3.517329647E-02 1.440168695E-01
 7.573903215E-01 -3.266929642E-02 1.771218808E-01
 6.398756409E-01 -4.803041307E-02 -8.612006383E-03
 6.553777818E-01 -2.410560448E-01 -1.602314781E-02
 7.141232078E-01 -1.693647075E-01 6.265120389E-02
 8.449140282E-01 -1.882844455E-02 2.969508839E-01
 8.194208794E-01 -2.310132073E-02 2.640379687E-01
 8.683125267E-01 -1.696397480E-02 3.230686616E-01
 7.529301760E-01 -2.608266866E-01 7.365852892E-02
 8.522390128E-01 -2.106538903E-01 1.524598448E-01
 9.713397799E-01 -9.147369559E-03 3.777622220E-01
 9.437257708E-01 -8.750716911E-03 3.704592882E-01
 8.742266836E-01 -2.835148001E-01 1.315170814E-01
 9.500933456E-01 -1.926506214E-01 1.947007739E-01
 9.118383442E-01 -1.149889894E-01 2.497263039E-01
 1.006032392E+00 -1.234682581E-01 2.254801666E-01
 1.067458889E+00 -1.991860742E-01 1.587049566E-01
 1.129208703E+00 -1.106482633E-01 1.408403054E-01
 8.233473630E-01 -1.043802298E-01 2.047259020E-01
 1.171457912E+00 -2.100453241E-01 1.131071776E-01
 1.238394459E+00 -8.994678967E-02 9.427087337E-02
 1.160375606E+00 8.297175509E-03 1.092426044E-01
 1.309781270E+00 3.244527776E-02 5.828648978E-02
 1.193443204E+00 1.374827806E-01 7.298315046E-02
 1.354834975E+00 2.123271232E-01 2.838859608E-02
 1.078388825E+00 -4.711989736E-02 1.758565908E-01
 1.083973879E+00 2.167410661E-02 1.595569631E-01
 9.829999986E-01 1.701897816E-02 2.163777378E-01
 6.765985143E-01 -1.137919026E-01 3.664233136E-02
 6.188469880E-01 -1.058803232E-01 -5.466963980E-02
 6.139502538E-01 -5.238216728E-02 -5.934232653E-02
 9.667671034E-01 -8.029987617E-02 2.850193071E-01
 4.672949823E-01 -1.342106648E-01 -3.811446868E-01
 3.145143280E-01 -1.398151761E-01 -5.019659773E-01
 1.139752231E+00 -3.731601310E-01 9.587535445E-02
 5.047308762E-01 -1.062851581E-01 -3.131980233E-01
 5.060891046E-01 -6.614154834E-02 -3.284119212E-01
 1.065914472E+00 1.687108961E-01 6.122634902E-02
 1.026275650E+00 1.049991700E-01 1.093242443E-01
 7.575948506E-01 -1.103708376E-01 1.359543048E-01
 7.162615690E-01 -7.964895931E-02 1.027368248E-01
 7.064383746E-01 -3.812188442E-02 1.034600313E-01
 6.382290333E-01 -3.542684975E-01 -6.652418938E-02
 1.048807663E+00 -4.833194761E-03 2.048810248E-01
 5.674637248E-01 -1.103830413E-01 -1.546580456E-01
 5.614356969E-01 -5.962937874E-02 -1.767487855E-01
 1.152603439E+00 3.015908469E-01 1.480068369E-02
 9.070945401E-01 2.324221202E-01 -8.226942994E-02
 8.469267819E-01 3.874952749E-02 -1.623067333E-01
 8.746167935E-01 3.554394999E-02 -9.996380085E-02
 8.285409887E-01 3.417065338E-01 -1.902227717E-01
 7.544863162E-01 2.372536898E-01 -2.807446325E-01
 6.492089454E-01 6.740941897E-02 -5.634988499E-01
 7.543090276E-01 5.630586043E-02 -3.279266488E-01
 7.767766604E-01 5.369981090E-02 -2.875552382E-01
 8.073440986E-01 1.510902871E-01 -2.164201129E-01
 6.926556120E-01 3.240659069E-01 -3.485963004E-01
 6.244719580E-01 2.506132115E-01 -4.784247329E-01
 4.287915047E-01 8.694772775E-02 -6.967232477E-01
 4.015003062E-01 8.767174783E-02 -6.692011652E-01
 4.556035903E-01 8.416141228E-02 -7.239663085E-01
 5.412523245E-01 7.986449828E-02 -7.759973552E-01
 5.645857973E-01 8.116715378E-02 -7.516476364E-01
 6.719925311E-01 1.647556687E-01 -4.654569050E-01
 5.674102995E-01 3.590889882E-01 -4.222914696E-01
 4.533792296E-01 2.721656800E-01 -4.925044109E-01
 5.302681510E-01 1.723441486E-01 -6.413928638E-01
 4.151522211E-01 3.858971735E-01 -3.528317802E-01
 3.364570667E-01 2.639237428E-01 -4.148883059E-01
 3.999733912E-01 1.895507177E-01 -5.379268652E-01
 2.977160177E-01 1.730449933E-01 -4.596890561E-01
 2.264429872E-01 7.488710862E-02 -4.785017951E-01
 2.021898005E-01 7.167048611E-02 -4.455348993E-01
 3.268587725E-01 7.806747689E-02 -6.048455606E-01
 3.018023021E-01 7.882182655E-02 -5.706781324E-01
 2.337389607E-01 2.448563762E-01 -3.104227648E-01
 2.051905159E-01 1.694139273E-01 -3.330282908E-01
 2.648021829E-01 3.956801040E-01 -2.397968421E-01
 3.535363956E-01 1.500397707E-01 -5.479750958E-01
 2.540410401E-01 1.384893276E-01 -4.433491589E-01
 1.418339584E-01 2.293981354E-01 -1.611009456E-01
 1.168031790E-01 1.522590573E-01 -1.854374124E-01
 7.626824438E-02 5.208177870E-02 -1.935798283E-01
 1.701004879E-01 1.244183441E-01 -3.144172098E-01
 1.535314462E+00 2.842685003E-02 2.478226738E-02
 6.536181180E-01 -8.476527729E-02 4.762826761E-03
 6.787583129E-01 -7.410346645E-02 4.929185146E-02
 1.336599645E+00 4.308232794E-01 -4.748094224E-03
 1.324491614E+00 -3.055064746E-01 6.750459364E-02
 1.015479624E+00 -5.715224650E-01 7.716078289E-02
 6.217123078E-02 1.923390147E-01 -3.351967830E-02
 3.788695328E-02 1.235164244E-01 4.996921893E-02
 1.686775406E-02 2.368055409E-02 1.812547315E-01
 -2.630004551E-02 1.932466755E-01 1.522797404E-01
 -3.703888425E-02 9.700035991E-02 3.857836106E-01
 8.702358547E-02 1.013771869E-01 -1.438764952E-01
 1.117027376E-02 7.784313621E-02 1.668067417E-01
 4.738217844E-01 -1.023600304E-01 -3.972142373E-01
 4.370667854E-01 -1.101296724E-01 -4.928991119E-01
 4.263723577E-01 -1.461336629E-01 -4.691761810E-01
 4.772022833E-01 -4.799840792E-01 -1.365605497E-01
 -1.383524117E-02 2.522757629E-02 6.971157086E-01
 6.556090333E-01 -4.551626152E-02 2.136592358E-02
 1.606801589E+00 3.583505829E-01 -2.261742942E-03
 1.740126457E+00 -1.701583174E-01 2.261240085E-02
 5.347846993E-01 -9.661617523E-02 -2.315109996E-01
 5.188822830E-01 -6.341787364E-02 -2.931522868E-01
 5.156894534E-01 -8.023257327E-02 -2.896402452E-01
 4.941830441E-01 -8.131072908E-02 -3.574138893E-01
 4.639603095E-01 -8.141089450E-02 -4.620691397E-01
 5.477119689E-01 -5.998693632E-02 -2.128588353E-01
 5.568901315E-01 -7.963856352E-02 -1.832949296E-01
 5.886575797E-01 -8.638667091E-02 -1.189904462E-01
 -1.293659480E-01 1.336909683E-01 2.410768214E-01
 5.270412346E-01 5.289981117E-01 -2.960906482E-01
 1.543528083E-01 -1.537835452E-01 -2.782119099E-01
 1.744724953E-01 -1.097135720E-01 -3.527304134E-01
 2.151730898E-01 -1.107933375E-01 -4.244738723E-01
 2.050036895E-01 -7.071123420E-02 -4.616168941E-01
 1.515097108E-01 -8.268081219E-02 -3.473339393E-01
 1.451355868E-01 -6.314366900E-02 -3.639567780E-01
 1.585208775E-01 -6.445774718E-02 -3.878083922E-01
 1.277071250E-01 -7.346022051E-02 -3.106360236E-01
 2.552272096E-01 -1.368884984E-01 -4.447417327E-01
 2.872589302E-01 -1.118531222E-01 -5.299642305E-01
 3.130532466E-01 -1.028463665E-01 -5.737258383E-01
 3.169055183E-01 -8.525163253E-02 -6.114812988E-01
 3.510807197E-01 -1.141628975E-01 -5.774122827E-01
 3.944549046E-01 -1.209051187E-01 -5.517037847E-01
 1.338672080E-01 -5.835964867E-02 -3.503004312E-01
 2.864325645E-01 -8.941259802E-02 -5.671310008E-01
 2.659063496E-01 -9.770767279E-02 -5.228778222E-01
 2.398913824E-01 -9.548204403E-02 -4.820279000E-01
 2.535835041E-01 -7.850160251E-02 -5.303467811E-01
 3.344167858E-01 -8.891967286E-02 -6.201727992E-01
 3.537807453E-01 -8.553299417E-02 -6.356767261E-01
 3.766123156E-01 -9.595145885E-02 -6.165985621E-01
 3.863952582E-01 -8.153158764E-02 -6.408689804E-01
 4.061643715E-01 -9.201213850E-02 -5.917030446E-01
 4.282235228E-01 -8.568473712E-02 -5.487891366E-01
 6.027072795E-01 -7.490947014E-01 -6.734006970E-02
 3.755361681E-01 -3.706629121E-01 -2.515867017E-01
 2.553762411E-01 -4.619302974E-01 -9.733703438E-02
 6.703261029E-01 -5.518744781E-02 4.303895036E-02
 6.520473924E-01 -6.312689288E-02 1.234601610E-02
 6.303072024E-01 -6.775898589E-02 -2.952236041E-02
 6.959882928E-01 -5.425219732E-02 8.215270254E-02
 7.188898335E-01 -4.857266040E-02 1.183503870E-01
 7.425082292E-01 -5.085185191E-02 1.487230649E-01
 7.877160258E-01 -7.473992218E-02 1.907830165E-01
 8.264926226E-01 -6.174030799E-02 2.415536270E-01
 7.677958683E-01 -5.074480125E-02 1.832024977E-01
 8.735777386E-01 -8.564965674E-02 2.575236392E-01
 8.634057165E-01 -5.124041945E-02 2.856159640E-01
 9.000677597E-01 -5.746130749E-02 3.030436598E-01
 9.344773621E-01 -4.560198819E-02 3.237334551E-01
 9.240652104E-01 -1.009499883E-02 3.660910613E-01
 8.815389738E-01 -3.280130346E-02 3.171064105E-01
 9.082748182E-01 -3.416865869E-02 3.318281433E-01
 8.912861245E-01 -2.017592877E-02 3.384681520E-01
 9.142768938E-01 -9.702443402E-03 3.632864508E-01
 8.583773749E-01 -2.935114273E-02 3.007250106E-01
 8.372524169E-01 -3.474909583E-02 2.726787752E-01
 7.561178533E-01 -7.585789993E-02 1.511660824E-01
 8.159896785E-01 -3.899511307E-02 2.446142059E-01
 8.060963701E-01 -2.888418691E-02 2.409175981E-01
 7.909388445E-01 -4.219941868E-02 2.163723096E-01
 9.264551215E-01 -8.106557199E-02 2.844684315E-01
 9.711675228E-01 -4.506947070E-02 3.297475077E-01
 1.001778323E+00 -6.601290728E-02 2.768238159E-01
 9.988141787E-01 -3.427217341E-02 3.055753934E-01
 9.947441114E-01 -1.369491261E-02 3.994573291E-01
 9.825247637E-01 -8.991063111E-03 3.771069011E-01
 6.034952847E-01 -7.088941455E-02 -8.012276783E-02
 9.164966719E-01 5.098083278E-01 -1.322244056E-01
 4.673961283E-01 1.852994083E-01 -5.950291330E-01
 4.975075903E-01 1.342970429E-01 -6.839187352E-01
 4.434879479E-01 1.367631619E-01 -6.404766428E-01
 5.488566549E-01 1.236480958E-01 -7.030961192E-01
 5.923292631E-01 1.630225215E-01 -5.989908543E-01
 6.334189469E-01 1.246452970E-01 -5.699672153E-01
 6.927651335E-01 1.093689819E-01 -4.248663065E-01
 6.712834121E-01 6.425157310E-02 -5.085360089E-01
 7.242518974E-01 1.645363776E-01 -3.354748224E-01
 7.339028062E-01 1.004351442E-01 -3.397663211E-01
 7.290286187E-01 5.753675114E-02 -3.755720538E-01
 5.187755724E-01 1.072270598E-01 -7.357486093E-01
 5.176181876E-01 8.480978525E-02 -7.682972128E-01
 6.597946480E-01 1.022996335E-01 -5.107069798E-01
 6.232093106E-01 7.123324765E-02 -6.334292817E-01
 4.715500967E-01 1.135179172E-01 -6.991691276E-01
 7.403611415E-01 5.878735071E-02 -3.524592426E-01
 7.508187060E-01 7.484095474E-02 -3.293372483E-01
 7.686995550E-01 6.621036578E-02 -3.000296429E-01
 7.888879142E-01 6.698452087E-02 -2.628996645E-01
 8.109573294E-01 6.858221955E-02 -2.242524616E-01
 7.761995744E-01 9.066935222E-02 -2.812799422E-01
 8.249140415E-01 4.315013022E-02 -2.045691080E-01
 5.062908965E-01 7.901498865E-02 -7.737168927E-01
 6.593489910E-01 6.665026563E-02 -5.324262257E-01
 6.822656891E-01 6.469525586E-02 -4.783973863E-01
 6.746856418E-01 8.017140916E-02 -4.890201734E-01
 6.940930671E-01 7.688473637E-02 -4.426753938E-01
 7.148127700E-01 7.929847057E-02 -3.968106648E-01
 8.145020642E-01 4.925900009E-02 -2.226292501E-01
 8.356688869E-01 4.359461953E-02 -1.837008235E-01
 8.482622973E-01 5.628205392E-02 -1.537308993E-01
 7.190947005E-01 6.255722523E-02 -3.951917717E-01
 5.321706495E-01 9.354786911E-02 -7.545921228E-01
 5.522462340E-01 9.219008507E-02 -7.497880911E-01
 5.729026849E-01 1.000977094E-01 -7.156473935E-01
 4.972362447E-01 9.686457310E-02 -7.407629632E-01
 6.937015903E-01 6.230005009E-02 -4.504290851E-01
 7.707596598E-01 1.322608060E-01 -2.741956604E-01
 8.092754241E-01 1.131040889E-01 -2.190516610E-01
 8.636504041E-01 1.290863170E-01 -1.250668008E-01
 9.600542359E-01 1.340755282E-01 1.260093532E-02
 9.058225107E-01 9.190385424E-02 -5.051365203E-02
 8.342136174E-01 8.550152593E-02 -1.801998082E-01
 8.698762502E-01 7.904085472E-02 -1.127429684E-01
 9.003291871E-01 6.112278500E-02 -5.260897499E-02
 9.384715555E-01 5.969729746E-02 4.071022317E-02
 9.500982047E-01 2.820698002E-02 8.339776375E-02
 9.890367255E-01 6.891427746E-02 1.168575375E-01
 9.331100543E-01 3.082589255E-02 3.693135682E-02
 1.035424791E+00 4.537141056E-02 1.815390254E-01
 1.003761490E+00 2.979961294E-02 2.086251210E-01
 5.770200545E-01 -6.938382152E-02 -1.396603060E-01
 1.395752131E+00 -1.001038166E-01 5.496029556E-02
 7.736498976E-01 1.790825843E-01 -2.589041386E-01
 7.189339546E-01 -3.339324783E-02 1.250625982E-01
 7.733671072E-01 -3.002520195E-02 1.994772082E-01
 6.937044539E-01 -3.825668468E-02 8.458016631E-02
 9.817767859E-01 2.235814413E-01 -5.419208983E-03
 2.886141935E-01 -7.387879921E-02 -5.978571872E-01
 4.472309487E-01 1.003401382E-01 -6.941521481E-01
 4.184649549E-01 1.047489380E-01 -6.600007553E-01
 3.927848210E-01 1.054807948E-01 -6.348372282E-01
 4.701103936E-01 9.292905025E-02 -7.253588612E-01
 3.947234453E-01 1.330848913E-01 -6.064830333E-01
 3.611623418E-01 1.116017089E-01 -6.004100892E-01
 3.252837078E-01 1.176417399E-01 -5.528919325E-01
 3.444877998E-01 9.414376696E-02 -6.019592967E-01
 2.864428207E-01 1.126774960E-01 -5.138738668E-01
 3.811042595E-01 8.607322779E-02 -6.509174495E-01
 2.594388072E-01 9.743818439E-02 -4.991763708E-01
 2.504374708E-01 7.743711852E-02 -5.098779633E-01
 2.209502069E-01 1.166439202E-01 -4.169497737E-01
 2.351140171E-01 8.841856460E-02 -4.749258489E-01
 1.927535586E-01 1.009567894E-01 -3.881749992E-01
 1.639979985E-01 9.049387382E-02 -3.499872622E-01
 1.426997234E-01 6.106786701E-02 -3.628124354E-01
 1.597834507E-01 7.384403954E-02 -3.708743691E-01
 1.425352700E-01 7.470611972E-02 -3.334113708E-01
 1.540574656E-01 6.280917380E-02 -3.784496133E-01
 1.321156516E-01 6.138016802E-02 -3.395094530E-01
 1.245785726E-01 7.273619848E-02 -2.993390260E-01
 9.859799224E-02 5.463367790E-02 -2.611931921E-01
 1.231322701E-01 1.007832585E-01 -2.665792099E-01
 1.067047430E-01 7.154243175E-02 -2.559375709E-01
 8.709678998E-02 6.595481455E-02 -2.037312797E-01
 6.608339386E-02 7.147092873E-02 -1.086480238E-01
 8.830835780E-02 5.037404548E-02 -2.367510787E-01
 3.693760548E-02 6.509831064E-02 2.896118571E-02
 3.251648732E-02 3.177491149E-02 2.862422822E-03
 5.847260436E-02 5.087079670E-02 -1.080428963E-01
 1.091322305E-01 5.519714320E-02 -2.925137871E-01
 2.113742035E-01 8.651375055E-02 -4.402500885E-01
 1.936736834E-01 -8.326350648E-02 -4.218390623E-01
 9.160260901E-01 4.133656888E-02 -9.318754987E-03
 8.940301455E-01 4.073824317E-02 -5.954796312E-02
 7.437397835E-01 -3.134298951E-02 1.620405347E-01
 8.673389392E-01 -1.436011889E-01 2.123871776E-01
 7.929378309E-01 -1.532837458E-01 1.425867475E-01
 8.605849577E-01 3.807415621E-02 -1.330705738E-01
 8.746166052E-01 5.180034050E-02 -1.013258450E-01
 9.754188570E-01 -2.193745597E-02 3.503056796E-01
 3.148253012E-01 7.923595889E-02 -5.874633390E-01
 3.070465534E-01 9.506828954E-02 -5.598410057E-01
 3.262369245E-01 9.079253047E-02 -5.872818718E-01
 5.952373504E-01 1.216697353E-01 -6.600422967E-01
 6.141716836E-01 1.017670936E-01 -6.299284790E-01
 6.332867678E-01 9.067932759E-02 -5.861531641E-01
 6.127098204E-01 8.205085214E-02 -6.554677591E-01
 5.956528739E-01 9.121038908E-02 -6.862538689E-01
 2.876882641E-01 9.124018543E-02 -5.423735591E-01
 9.190456994E-01 -2.333507144E-02 3.500725662E-01