TITLE     = "Visualization of the solution"
VARIABLES = "x"
"y"
"Pressure_Coefficient"
ZONE T="Zone"
 STRANDID=0, SOLUTIONTIME=0
 Nodes=693, Elements=1171, ZONETYPE=FEQuadrilateral
 DATAPACKING=POINT
 DT=(DOUBLE DOUBLE DOUBLE )
 9.998291135E-01 5.133849336E-04 3.364762234E-01
 9.863063097E-01 3.298340365E-03 2.837271987E-01
 9.740219712E-01 5.867499392E-03 1.873447704E-01
 9.585570693E-01 9.028374217E-03 1.339908917E-01
 9.442371726E-01 1.189613715E-02 8.797634035E-02
 9.312846661E-01 1.448133681E-02 4.266399646E-02
 9.204373956E-01 1.673461124E-02 -8.419853376E-03
 9.088745713E-01 1.901257783E-02 -3.179594472E-02
 8.971419334E-01 2.120902762E-02 -5.603896466E-02
 8.853688836E-01 2.347906865E-02 -1.022126441E-01
 8.735842109E-01 2.572837472E-02 -1.286299767E-01
 8.610535860E-01 2.790421806E-02 -1.464113805E-01
 8.486768007E-01 3.010875173E-02 -1.801055632E-01
 8.374634385E-01 3.206638992E-02 -1.981853201E-01
 8.255479336E-01 3.402284160E-02 -2.165623644E-01
 8.128958344E-01 3.613070026E-02 -2.439198313E-01
 7.999345064E-01 3.821044415E-02 -2.630100412E-01
 7.877179384E-01 4.011170939E-02 -2.823135155E-01
 7.753372192E-01 4.201206565E-02 -3.067206941E-01
 7.638909221E-01 4.374742508E-02 -3.317911311E-01
 7.509985566E-01 4.562763497E-02 -3.557482148E-01
 7.373014688E-01 4.758426920E-02 -3.779635968E-01
 7.265134454E-01 4.906849191E-02 -3.959043939E-01
 7.155000567E-01 5.056507885E-02 -4.206573220E-01
 7.038961649E-01 5.210885033E-02 -4.464803556E-01
 6.906603575E-01 5.380100757E-02 -4.744423890E-01
 6.777423024E-01 5.537544563E-02 -5.025304728E-01
 6.673232317E-01 5.661871657E-02 -5.310340946E-01
 6.558536291E-01 5.792296678E-02 -5.557320516E-01
 6.444576383E-01 5.916538835E-02 -5.850751683E-01
 6.326293349E-01 6.041431800E-02 -6.189280159E-01
 6.212337613E-01 6.155372784E-02 -6.549809229E-01
 6.108323336E-01 6.256289780E-02 -6.810134229E-01
 5.983986259E-01 6.365296245E-02 -7.041182598E-01
 5.867604017E-01 6.463436782E-02 -7.254765870E-01
 5.729663372E-01 6.567916274E-02 -7.474273526E-01
 5.601955056E-01 6.658438593E-02 -7.688147605E-01
 5.474362969E-01 6.739628315E-02 -7.795863415E-01
 5.363529325E-01 6.802942604E-02 -7.771905973E-01
 5.242487192E-01 6.862510741E-02 -7.758947968E-01
 5.116116405E-01 6.920282543E-02 -7.759623262E-01
 5.005671978E-01 6.962933391E-02 -7.649644225E-01
 4.871501327E-01 7.004422694E-02 -7.555378503E-01
 4.738721251E-01 7.039938122E-02 -7.429314349E-01
 4.596766233E-01 7.064815611E-02 -7.278959011E-01
 4.456176758E-01 7.080067694E-02 -7.199961673E-01
 4.324931204E-01 7.088061422E-02 -7.109574522E-01
 4.192746878E-01 7.085543871E-02 -6.966331736E-01
 4.065978527E-01 7.075069100E-02 -6.835856157E-01
 3.936639428E-01 7.057126611E-02 -6.747222506E-01
 3.816508651E-01 7.036115229E-02 -6.629853141E-01
 3.700179458E-01 7.006084174E-02 -6.450371325E-01
 3.563372791E-01 6.963812560E-02 -6.317029365E-01
 3.437713981E-01 6.917930394E-02 -6.206240752E-01
 3.307513595E-01 6.863642484E-02 -6.061296139E-01
 3.199560046E-01 6.809454411E-02 -5.918481050E-01
 3.074363768E-01 6.743093580E-02 -5.826245123E-01
 2.945697606E-01 6.666793674E-02 -5.715854246E-01
 2.806264758E-01 6.574641913E-02 -5.589615629E-01
 2.682853639E-01 6.483718008E-02 -5.438038289E-01
 2.563375533E-01 6.389287114E-02 -5.265177576E-01
 2.439256907E-01 6.282350421E-02 -5.110367905E-01
 2.314551920E-01 6.167781353E-02 -4.970973437E-01
 2.194349766E-01 6.048282981E-02 -4.817746732E-01
 2.076372802E-01 5.922412500E-02 -4.639759691E-01
 1.963119805E-01 5.793688074E-02 -4.457453076E-01
 1.841970682E-01 5.647569895E-02 -4.284151057E-01
 1.725129932E-01 5.497001112E-02 -4.099949384E-01
 1.612865031E-01 5.343849957E-02 -3.919523596E-01
 1.496992856E-01 5.175771192E-02 -3.737610343E-01
 1.392203718E-01 5.013492331E-02 -3.518032325E-01
 1.279561520E-01 4.828422144E-02 -3.315056514E-01
 1.168414578E-01 4.634725675E-02 -3.100469094E-01
 1.064341441E-01 4.441244155E-02 -2.908975297E-01
 9.682910144E-02 4.251685739E-02 -2.657572542E-01
 8.614382148E-02 4.027562216E-02 -2.364781938E-01
 7.452969253E-02 3.764072806E-02 -1.985381888E-01
 6.460225582E-02 3.520179912E-02 -1.598255854E-01
 5.478182808E-02 3.259311989E-02 -1.251143141E-01
 4.573187232E-02 2.997239493E-02 -9.022633802E-02
 3.794709966E-02 2.750588953E-02 -5.393337298E-02
 3.111526929E-02 2.513775043E-02 -1.059849782E-02
 2.521512844E-02 2.289741300E-02 4.515096990E-02
 2.093787678E-02 2.111623809E-02 8.125426173E-02
 1.683592051E-02 1.925852895E-02 8.573181572E-02
 1.377567835E-02 1.774999872E-02 1.253618375E-01
 1.104013715E-02 1.626846567E-02 1.314734980E-01
 9.010585956E-03 1.507389639E-02 1.595553443E-01
 7.195721846E-03 1.391295530E-02 2.203323807E-01
 5.541582126E-03 1.275456231E-02 3.968665315E-01
 3.402282251E-03 1.105618663E-02 4.588578050E-01
 1.591622829E-03 9.336487390E-03 3.729524792E-01
 6.301835674E-05 7.529400755E-03 8.823480426E-01
 -1.416501938E-03 5.006345920E-03 7.830273284E-01
 -2.051277552E-03 3.071805928E-03 8.329403382E-01
 -2.257716144E-03 1.527525019E-03 9.400749523E-01
 -2.174821217E-03 -2.699642791E-04 8.073623364E-01
 -1.718465704E-03 -2.223927993E-03 1.112413424E+00
 -6.908288924E-04 -4.555893596E-03 7.184251929E-01
 9.150799015E-04 -7.007510867E-03 8.228693494E-01
 3.119407920E-03 -9.536560625E-03 5.249608189E-01
 5.086061079E-03 -1.139098685E-02 4.448552015E-01
 7.372282445E-03 -1.326878741E-02 3.803951073E-01
 9.097735398E-03 -1.453954633E-02 3.131775611E-01
 1.127584092E-02 -1.601916738E-02 2.917679047E-01
 1.378813945E-02 -1.757684536E-02 2.343455084E-01
 1.718753576E-02 -1.949040033E-02 1.783943185E-01
 2.035246044E-02 -2.112054639E-02 1.158701495E-01
 2.452534623E-02 -2.308514714E-02 6.371667924E-02
 3.009310551E-02 -2.545071207E-02 9.933956712E-03
 3.601524234E-02 -2.771824971E-02 -4.678246098E-02
 4.330685362E-02 -3.024086542E-02 -8.623682113E-02
 5.089830607E-02 -3.262384608E-02 -1.417017081E-01
 5.986878648E-02 -3.516763821E-02 -1.847310226E-01
 6.859263778E-02 -3.742872551E-02 -2.236945276E-01
 7.904585451E-02 -3.991266340E-02 -2.505581194E-01
 8.887889981E-02 -4.205910116E-02 -2.799520111E-01
 9.925066680E-02 -4.416638240E-02 -3.045941005E-01
 1.103291065E-01 -4.624778405E-02 -3.268728565E-01
 1.215690672E-01 -4.821107537E-02 -3.483313439E-01
 1.332381517E-01 -5.011295527E-02 -3.697459150E-01
 1.433357000E-01 -5.165681243E-02 -3.916083063E-01
 1.543291807E-01 -5.322770402E-02 -4.095299120E-01
 1.660463959E-01 -5.479888245E-02 -4.286153356E-01
 1.774366498E-01 -5.622429028E-02 -4.487979485E-01
 1.888055056E-01 -5.754927546E-02 -4.671999602E-01
 1.991274208E-01 -5.867235735E-02 -4.847129995E-01
 2.100306302E-01 -5.979281291E-02 -5.054859467E-01
 2.218356431E-01 -6.089566275E-02 -5.256796107E-01
 2.339521199E-01 -6.192938238E-02 -5.425450593E-01
 2.457998246E-01 -6.284911931E-02 -5.629339192E-01
 2.580417395E-01 -6.371169537E-02 -5.861282082E-01
 2.688024938E-01 -6.437584013E-02 -6.116939922E-01
 2.811949551E-01 -6.503307819E-02 -6.309452508E-01
 2.932113707E-01 -6.555236876E-02 -6.481620751E-01
 3.060947657E-01 -6.602660567E-02 -6.698231274E-01
 3.176358044E-01 -6.630695611E-02 -6.925837055E-01
 3.302310407E-01 -6.653166562E-02 -7.112603837E-01
 3.407825828E-01 -6.658985466E-02 -7.297948180E-01
 3.522535861E-01 -6.657782197E-02 -7.419410398E-01
 3.630767465E-01 -6.644323468E-02 -7.504864303E-01
 3.738627434E-01 -6.623467803E-02 -7.542455340E-01
 3.853884041E-01 -6.587892771E-02 -7.519660719E-01
 3.986614943E-01 -6.535600126E-02 -7.369343407E-01
 4.108634293E-01 -6.471326947E-02 -7.110315751E-01
 4.237182736E-01 -6.390073895E-02 -6.650901064E-01
 4.366699159E-01 -6.297480315E-02 -6.172621436E-01
 4.493737519E-01 -6.189458445E-02 -5.723390572E-01
 4.617296159E-01 -6.074638292E-02 -5.263519211E-01
 4.742971957E-01 -5.947420001E-02 -4.815792532E-01
 4.862336814E-01 -5.817681178E-02 -4.424190811E-01
 4.991169572E-01 -5.666680261E-02 -3.972760511E-01
 5.132173896E-01 -5.493898317E-02 -3.495731199E-01
 5.270830393E-01 -5.312741548E-02 -3.049032570E-01
 5.401629806E-01 -5.135687813E-02 -2.621891589E-01
 5.535691977E-01 -4.947619513E-02 -2.219152692E-01
 5.670370460E-01 -4.756233469E-02 -1.864593403E-01
 5.804428458E-01 -4.559628665E-02 -1.538651453E-01
 5.931804180E-01 -4.369115829E-02 -1.204550074E-01
 6.059281230E-01 -4.176281020E-02 -8.814167979E-02
 6.199311614E-01 -3.963287920E-02 -5.832269053E-02
 6.342083216E-01 -3.746809065E-02 -3.023259631E-02
 6.485521793E-01 -3.528680280E-02 -7.199469668E-03
 6.614462137E-01 -3.326061741E-02 2.271073903E-02
 6.751033068E-01 -3.117748536E-02 4.963380097E-02
 6.876329184E-01 -2.928198129E-02 6.736333054E-02
 6.999323964E-01 -2.741464786E-02 8.566096382E-02
 7.147479653E-01 -2.514937334E-02 1.107930735E-01
 7.278320193E-01 -2.318565547E-02 1.356452582E-01
 7.395379543E-01 -2.145452239E-02 1.532747573E-01
 7.527606487E-01 -1.952821016E-02 1.702240666E-01
 7.653146982E-01 -1.770163327E-02 1.916734247E-01
 7.787373066E-01 -1.581797190E-02 2.113158551E-01
 7.909302711E-01 -1.413629577E-02 2.286702020E-01
 8.037889004E-01 -1.239591371E-02 2.459540047E-01
 8.146631122E-01 -1.094819233E-02 2.658441442E-01
 8.261280060E-01 -9.520139545E-03 2.800022012E-01
 8.382824063E-01 -7.997590117E-03 2.974041491E-01
 8.508979082E-01 -6.578678731E-03 3.148578677E-01
 8.627616763E-01 -5.254891701E-03 3.298115211E-01
 8.740788698E-01 -4.127718974E-03 3.460065599E-01
 8.851757646E-01 -3.075197339E-03 3.589835431E-01
 8.981787562E-01 -2.035986399E-03 3.696532592E-01
 9.081929922E-01 -1.323601580E-03 3.774864511E-01
 9.181080461E-01 -7.056906470E-04 3.849838722E-01
 9.275152087E-01 -2.306570241E-04 3.892991607E-01
 9.365906119E-01 1.412844867E-04 3.913512736E-01
 9.480020404E-01 5.001773243E-04 3.935741048E-01
 9.614914656E-01 7.454486331E-04 3.928879665E-01
 9.762618542E-01 8.172009257E-04 4.007470314E-01
 9.894546270E-01 7.046632236E-04 4.046262921E-01
 -5.000000000E-01 -1.000000000E+00 5.534093370E-02
 3.500000000E+00 -1.000000000E+00 1.341223321E-02
 3.500000000E+00 1.000000000E+00 -1.331696223E-03
 -5.000000000E-01 1.000000000E+00 5.111866651E-02
 -5.000000000E-01 5.000000000E-01 1.115057742E-01
 -5.000000000E-01 2.752797990E-12 1.706632899E-01
 -5.000000000E-01 -5.000000000E-01 1.123363887E-01
 -9.421907698E-13 -1.000000000E+00 2.993467989E-02
 5.000000000E-01 -1.000000000E+00 -2.841139009E-02
 1.000000000E+00 -1.000000000E+00 -9.518554694E-03
 1.500000000E+00 -1.000000000E+00 3.033098129E-02
 2.000000000E+00 -1.000000000E+00 3.100123273E-02
 2.500000000E+00 -1.000000000E+00 2.113825249E-02
 3.000000000E+00 -1.000000000E+00 1.534015583E-02
 3.500000000E+00 -5.000000000E-01 1.417778147E-02
 3.500000000E+00 -2.752797990E-12 1.394409663E-02
 3.500000000E+00 5.000000000E-01 6.463758051E-03
 3.000000000E+00 1.000000000E+00 -7.720158804E-03
 2.500000000E+00 1.000000000E+00 -1.684927734E-02
 2.000000000E+00 1.000000000E+00 -3.405576283E-02
 1.500000000E+00 1.000000000E+00 -7.830279217E-02
 1.000000000E+00 1.000000000E+00 -1.446619658E-01
 5.000000000E-01 1.000000000E+00 -9.558310375E-02
 1.733724275E-12 1.000000000E+00 1.989989834E-02
 6.839622415E-01 -4.437567679E-02 5.514881079E-02
 7.862901631E-01 -2.553655088E-02 2.140825070E-01
 9.023989398E-01 -1.205341142E-02 3.597597154E-01
 5.902976739E-01 -5.951682576E-02 -1.292287326E-01
 7.097950663E-01 6.108703246E-02 -4.267666007E-01
 2.840374404E-01 8.156167709E-02 -5.448219453E-01
 9.083451492E-01 3.251207493E-02 -3.331592724E-02
 8.079651001E-01 5.037333678E-02 -2.446799664E-01
 5.803073424E-01 7.636304107E-02 -7.234448615E-01
 4.168933606E-01 -7.680731035E-02 -6.675541714E-01
 4.124655178E-01 8.357923259E-02 -6.737737454E-01
 1.829811888E+00 -6.029658486E-01 2.992655514E-02
 1.775933738E+00 6.805694584E-01 -2.340582315E-02
 3.031182108E+00 2.156810219E-01 6.208363596E-03
 7.736312796E-01 -5.597609115E-01 2.084456734E-04
 2.866204143E-01 -7.815247018E-02 -6.160174170E-01
 3.436836001E-01 -7.764274815E-02 -7.080126857E-01
 4.931976489E-01 -6.852679048E-02 -4.111637270E-01
 3.596523606E-01 -6.824174809E-01 -7.221585148E-02
 1.243014323E-01 -5.979265870E-02 -3.308746736E-01
 1.929938458E-01 -6.704985714E-02 -4.609637729E-01
 7.303647290E-01 5.466722378E-01 -2.492204410E-01
 4.960221642E-01 8.212988856E-02 -7.444008298E-01
 3.128177726E-01 7.217629279E-01 -1.080165878E-01
 1.215267243E-01 6.192570247E-02 -2.935963597E-01
 1.896285909E-01 6.960221644E-02 -4.174755813E-01
 2.734831460E+00 -5.327080559E-01 1.317022815E-02
 1.166364661E+00 6.152741835E-01 -6.460197164E-02
 9.889252109E-01 3.604348299E-01 -5.869388139E-02
 9.721698493E-01 1.810127486E-02 1.543834399E-01
 1.189794677E+00 -6.345531866E-01 5.655591189E-02
 1.508569240E+00 -2.559152701E-01 4.307312935E-02
 2.247832005E+00 -5.892428486E-01 1.820839546E-02
 1.982234979E+00 -2.203328039E-01 1.494318586E-02
 2.412905030E+00 -1.881126513E-01 8.603320987E-03
 2.184563918E+00 1.580934964E-01 3.444848014E-03
 1.792895360E+00 1.268996253E-01 4.788463880E-03
 -2.711311933E-01 -2.366971187E-01 1.894594760E-01
 -1.458708688E-01 -6.017145141E-01 5.785994741E-02
 9.526964205E-02 -4.091792729E-01 -3.009906836E-02
 7.120936259E-02 -5.019527370E-02 -1.879462433E-01
 -2.803477978E-01 2.193956776E-01 1.906751478E-01
 -1.892139328E-01 6.923402720E-01 5.386716479E-02
 1.062998395E-01 3.293950871E-01 -6.616274242E-02
 6.682139735E-02 4.715576456E-02 -1.421563587E-01
 2.225233805E+00 5.711824897E-01 -9.324719040E-03
 2.743706494E+00 5.988477311E-01 -3.057205255E-03
 -2.356735837E-01 -2.747516716E-03 2.374914927E-01
 -1.097705097E-01 -1.267431499E-01 2.686738163E-01
 -7.989394654E-02 -3.262857708E-01 1.083501699E-01
 8.720946019E-03 -1.813722020E-01 1.211452452E-01
 3.767095344E-02 -3.473191838E-02 -2.664879095E-02
 1.594265451E-01 -2.171186606E-01 -2.103745929E-01
 2.388681328E-01 -7.671196730E-02 -5.307088607E-01
 2.625892658E-01 -7.651939222E-02 -5.757032371E-01
 -2.217807094E-02 -9.843812740E-02 3.132932675E-01
 -1.079771407E-01 -1.101339635E-02 4.406381980E-01
 3.289091442E-02 -1.153642521E-01 1.003169512E-01
 3.109351255E+00 -2.612892675E-01 1.220957807E-02
 -5.199351161E-02 -4.944700511E-02 4.032708139E-01
 -8.241472242E-03 -6.013874004E-02 4.069200317E-01
 9.031687396E-03 -1.713246877E-02 2.956478749E-01
 2.111971241E-02 -2.724440944E-02 1.176042153E-01
 2.889875611E-02 -7.306712869E-02 1.298925888E-01
 5.491165056E-02 -4.423410203E-02 -1.165976484E-01
 6.874163213E-02 -9.104739366E-02 -1.096381385E-01
 8.980434215E-02 -5.473157583E-02 -2.492041834E-01
 8.230117706E-02 -1.374476903E-01 -7.394331504E-02
 1.099204079E-01 -1.011364664E-01 -2.388724622E-01
 1.564924205E-01 -6.545687226E-02 -3.953697494E-01
 -1.239882222E-02 -2.376007852E-02 6.159573764E-01
 -2.348849483E-02 4.731048615E-03 7.988858992E-01
 2.200956260E-03 -1.421930914E-02 5.880132143E-01
 2.558951787E+00 2.064930188E-01 6.068994587E-04
 2.045374786E-03 -3.908327971E-02 3.582806475E-01
 1.801606873E-02 -5.029306947E-02 2.153377432E-01
 1.324365505E-01 -1.524836580E-01 -2.277661724E-01
 1.545851659E-01 -1.088222939E-01 -3.271639995E-01
 1.850941913E-01 -1.553159046E-01 -3.253530144E-01
 2.367804783E-01 -2.058386106E-01 -3.421654963E-01
 2.773063862E-01 -1.503882265E-01 -4.683949470E-01
 3.185750969E-01 -2.064508948E-01 -4.357684090E-01
 3.072582232E-01 -2.773464369E-01 -3.414398958E-01
 3.959508799E-01 -2.605889989E-01 -3.677395015E-01
 4.268840627E-01 -1.765150710E-01 -4.585186752E-01
 4.942643323E-01 -2.457422621E-01 -2.833311941E-01
 4.585385255E-01 -7.745585649E-02 -5.166471250E-01
 3.791128285E-01 -7.737822736E-02 -7.296952387E-01
 4.965453669E-01 -3.314939738E-01 -2.653183167E-01
 5.978277637E-01 -2.829320829E-01 -1.109578156E-01
 6.058984488E-01 -1.792360392E-01 -9.132510415E-02
 6.925387163E-01 -2.191027285E-01 2.096753943E-02
 7.349618423E-01 -3.109957764E-02 1.424553919E-01
 5.348123278E-01 -6.335425524E-02 -2.763666271E-01
 5.641901383E-01 -6.387897822E-02 -1.922694005E-01
 6.426392489E-01 -5.101063833E-02 -1.769445621E-02
 6.935628826E-01 -1.360926058E-01 4.401584087E-02
 7.770802741E-01 -1.632457273E-01 1.220485946E-01
 8.572688504E-01 -1.823398921E-02 3.115098627E-01
 8.337979276E-01 -1.997499008E-02 2.820764765E-01
 8.114596728E-01 -2.454784120E-02 2.501367540E-01
 8.814302610E-01 -1.675774212E-02 3.385020221E-01
 8.016949121E-01 -2.665522752E-01 9.867206238E-02
 9.698703260E-01 -1.203569950E-02 3.825932819E-01
 9.433626744E-01 -9.526853921E-03 3.786517291E-01
 8.740221249E-01 -1.831330553E-01 1.853962023E-01
 9.291619376E-01 -3.062364001E-01 1.300345238E-01
 1.023929935E+00 -2.154448946E-01 1.683591823E-01
 8.426576708E-01 -1.080950458E-01 2.188542855E-01
 9.395724615E-01 -1.309932544E-01 2.365915919E-01
 1.046498969E+00 -1.286509270E-01 2.010594768E-01
 1.112393608E+00 -1.741392340E-01 1.475136039E-01
 1.161832462E+00 -9.190559120E-02 1.248887646E-01
 1.094325281E+00 -2.397028826E-02 1.524687087E-01
 7.827639397E-01 -9.856482869E-02 1.687480233E-01
 5.317204669E-01 -1.461522925E-01 -2.513392827E-01
 8.931383345E-01 -6.652682041E-02 2.900414808E-01
 6.264254433E-01 -1.205188579E-01 -5.948690242E-02
 9.894003932E-01 -8.227814227E-02 2.772114417E-01
 4.674815819E-01 -1.310046214E-01 -4.298606133E-01
 1.232441620E+00 -1.907326570E-01 1.002367730E-01
 1.294080187E+00 -6.418725242E-02 7.559962064E-02
 1.199059352E+00 2.122429027E-02 1.024510846E-01
 1.097969192E+00 7.786423179E-02 1.283745516E-01
 1.202474873E+00 1.731407164E-01 6.489683598E-02
 8.200036903E-01 -7.013555125E-02 2.249002675E-01
 3.334519963E-01 -1.417568823E-01 -5.557404017E-01
 3.852572399E-01 -1.368821911E-01 -5.872815599E-01
 1.097275358E+00 -3.373918506E-01 1.091172282E-01
 4.227353064E-01 -1.212722198E-01 -5.684082171E-01
 9.612343952E-01 -5.036756668E-01 7.721597694E-02
 1.059757902E+00 2.512860334E-02 1.796996858E-01
 7.833436545E-01 -6.009697778E-02 1.884652599E-01
 7.618129832E-01 -3.059655979E-02 1.800636199E-01
 7.444021467E-01 -7.321201146E-02 1.374336991E-01
 7.085144784E-01 -3.887177825E-02 9.695237994E-02
 1.944002130E-01 -1.117121007E-01 -3.969590066E-01
 2.148749821E-01 -7.476189094E-02 -4.910879612E-01
 1.341117739E+00 8.682238721E-02 4.867529784E-02
 1.352999786E+00 2.798835974E-01 1.788816221E-02
 1.460128143E+00 -5.555063065E-02 4.007220360E-02
 2.937012821E-01 -1.163542856E-01 -5.583453782E-01
 3.121146721E-01 -7.707278097E-02 -6.581226505E-01
 2.574440339E-01 -1.124240535E-01 -5.069157549E-01
 1.040571007E+00 2.166160458E-01 3.081428980E-02
 9.987833119E-01 1.257648233E-01 8.179709773E-02
 1.023979683E+00 5.921106889E-02 1.718419550E-01
 9.445640282E-01 8.718342149E-02 2.831003304E-02
 8.582829707E-01 4.260653550E-02 -1.539402306E-01
 8.334078476E-01 4.576064716E-02 -2.003036386E-01
 9.461943365E-01 1.598848416E-01 -1.596575069E-02
 9.393349155E-01 2.502224313E-02 6.350121582E-02
 8.429699256E-01 2.863401070E-01 -1.723625361E-01
 6.518685819E-01 7.454516807E-02 -5.568615986E-01
 6.117387946E-01 7.149675432E-02 -6.679654326E-01
 8.016515703E-01 1.730418614E-01 -2.266091024E-01
 7.598377048E-01 5.636226932E-02 -3.327423073E-01
 7.829442818E-01 5.367444731E-02 -2.880046337E-01
 8.650423565E-01 1.091138271E-01 -1.380308986E-01
 8.976709819E-01 7.714103664E-02 -6.653524147E-02
 8.826621601E-01 3.825823532E-02 -1.031562101E-01
 1.181179362E+00 3.549199530E-01 9.248752263E-03
 3.470619469E-01 -4.064876212E-01 -2.054584010E-01
 7.469828070E-01 -3.222736690E-02 1.584233560E-01
 7.582023016E-01 -4.732299198E-02 1.644638444E-01
 7.762246361E-01 -3.821002372E-02 1.939084611E-01
 1.310773067E+00 -3.635167328E-01 6.892712133E-02
 7.424398528E-01 -1.106147618E-01 1.092612063E-01
 7.236185675E-01 -3.574965661E-02 1.229647949E-01
 7.210763586E-01 -5.498894619E-02 1.103049972E-01
 7.003778792E-01 -5.372284407E-02 7.725280655E-02
 6.781874419E-01 -6.210961870E-02 4.363052034E-02
 7.096192664E-01 -8.263755473E-02 7.940746125E-02
 3.951410183E-01 -1.061605101E-01 -6.525169368E-01
 4.388879887E-01 -9.361548011E-02 -5.499311692E-01
 3.621737703E-01 -1.090818846E-01 -6.514401606E-01
 4.692510771E-01 -9.881369886E-02 -4.627389096E-01
 4.788295754E-01 -8.068369288E-02 -4.403575183E-01
 4.989939831E-01 -9.930598532E-02 -3.607330313E-01
 5.382378199E-01 -1.038503912E-01 -2.521414085E-01
 5.167903554E-01 -8.197370873E-02 -3.206427653E-01
 3.626782380E-01 -8.147577790E-02 -7.136869155E-01
 3.288609646E-01 -1.059619489E-01 -6.223081688E-01
 4.439491157E-01 -7.333992616E-02 -5.748123483E-01
 4.296104731E-01 -7.789260839E-02 -6.185198358E-01
 1.692089284E+00 -1.108512917E-01 2.301522686E-02
 8.073657937E-01 -4.600079895E-02 2.326281904E-01
 8.318545926E-01 -4.695572871E-02 2.552154157E-01
 1.764007054E-01 -9.244522433E-02 -3.924555828E-01
 6.680726463E-01 -4.869727581E-02 2.942664387E-02
 6.565877162E-01 -6.541891939E-02 3.978929417E-03
 6.326874179E-01 -6.452804527E-02 -3.805103554E-02
 6.162005729E-01 -5.440018845E-02 -7.049359545E-02
 6.083799480E-01 -7.665678835E-02 -8.908656974E-02
 5.788044721E-01 -7.643697468E-02 -1.533845697E-01
 6.739301908E-01 -8.962306765E-02 2.759879260E-02
 6.291333446E-01 -4.940796838E-02 -4.322358438E-02
 5.575286713E-01 -8.610254846E-02 -2.035875351E-01
 5.781421815E-01 -1.127076989E-01 -1.501277555E-01
 5.950358327E-01 -4.571438730E-01 -1.101219472E-01
 7.382073373E-01 -4.576675846E-02 1.388080937E-01
 7.040122180E-01 -3.333041127E-01 1.346227830E-03
 6.102440009E-01 -6.823124669E-01 -7.150425696E-02
 1.536154614E+00 1.374609895E-01 1.683211318E-02
 8.249549356E-01 -3.201853421E-02 2.588034599E-01
 8.469903072E-01 -3.220348938E-02 2.875054039E-01
 8.666642331E-01 -2.810757450E-02 3.101656673E-01
 8.867132509E-01 -3.391783980E-02 3.213902098E-01
 8.563853672E-01 -5.403998714E-02 2.748728866E-01
 9.303343827E-01 -4.705581314E-02 3.269935113E-01
 9.249751251E-01 -8.146582128E-03 3.775565693E-01
 9.091181275E-01 -3.022563689E-02 3.421536062E-01
 9.374081018E-01 -8.101157526E-02 2.834525220E-01
 1.354614518E-01 -8.633281996E-02 -3.079498450E-01
 6.960839828E-01 -3.873338565E-02 7.572836337E-02
 9.629133730E-01 -5.248543970E-02 3.310605597E-01
 9.942874572E-01 -4.150282931E-02 3.143686204E-01
 9.491663721E-01 -3.397765259E-02 3.482125612E-01
 8.455594844E-01 -1.706366040E-02 2.995078545E-01
 8.072800212E-02 -2.723313864E-01 -2.898932470E-02
 -8.021000335E-02 3.851748292E-01 9.158187679E-02
 2.137619636E-02 2.845185446E-02 1.117122570E-01
 2.068338219E-02 2.235573443E-01 7.587685834E-02
 1.680831460E-01 2.230981177E-01 -2.226912835E-01
 3.496162015E-01 8.221844949E-02 -6.111674848E-01
 3.748786153E-01 8.179422768E-02 -6.381250034E-01
 3.211835471E-01 8.038024938E-02 -5.819833248E-01
 2.362076544E-01 7.615190011E-02 -4.856893603E-01
 2.648005711E-01 7.729203303E-02 -5.265908062E-01
 2.477000095E-01 3.190931069E-01 -2.552643106E-01
 3.080324310E-01 2.088740495E-01 -4.283724832E-01
 3.858921278E-01 2.809496432E-01 -4.265679550E-01
 3.929241469E-01 1.903798105E-01 -5.268995757E-01
 4.860553946E-01 2.259604971E-01 -5.448689036E-01
 4.541721077E-01 8.135806454E-02 -7.098080275E-01
 4.930176621E-01 3.237307728E-01 -4.419855103E-01
 6.030005310E-01 2.844848935E-01 -4.731175761E-01
 5.810517223E-01 1.858084784E-01 -5.869411901E-01
 5.296455484E-01 7.795449513E-02 -7.626364968E-01
 5.578105588E-01 8.415843705E-02 -7.441588523E-01
 6.796347465E-01 2.121207144E-01 -4.357969730E-01
 2.417990477E-01 1.551297824E-01 -4.073051718E-01
 6.437886774E-01 1.418025518E-01 -5.395607241E-01
 9.825907236E-02 1.676532191E-01 -1.013363338E-01
 1.544086950E-01 6.036155517E-02 -3.688781418E-01
 5.106924182E-01 1.572180929E-01 -6.431561297E-01
 4.466230771E-01 1.424497351E-01 -6.219109607E-01
 3.437685227E-01 1.527600630E-01 -5.178479942E-01
 -1.235531125E-01 1.494535042E-01 2.403424467E-01
 -2.233908949E-02 1.272845337E-01 2.374388219E-01
 4.647614647E-02 1.184102272E-01 2.397924781E-02
 3.643473672E-02 3.743586788E-02 -1.009849203E-02
 5.928761957E-01 1.288497938E-01 -6.381980773E-01
 3.898162041E-01 1.300354333E-01 -5.952036972E-01
 7.251366439E-01 1.520189694E-01 -3.494598047E-01
 6.855436097E-01 1.093354253E-01 -4.548837395E-01
 6.761746210E-01 6.468951393E-02 -5.014627743E-01
 7.103524774E-01 3.214112225E-01 -3.212800968E-01
 5.860750419E-01 4.207854603E-01 -3.728350655E-01
 4.322552334E-03 7.706914596E-02 2.467167790E-01
 -5.191529779E-02 6.853001945E-02 4.272076607E-01
 1.042357178E-01 1.129286914E-01 -1.802888220E-01
 1.538426646E-01 1.386810250E-01 -2.689226427E-01
 2.037353463E-01 1.178258304E-01 -3.815538115E-01
 2.082211542E-01 7.171508396E-02 -4.472623744E-01
 6.236078930E-01 1.075390783E-01 -6.054508324E-01
 6.517263383E-01 9.987842440E-02 -5.407198939E-01
 4.884264817E-01 1.193726880E-01 -6.841607661E-01
 5.280493374E-01 1.180405995E-01 -7.032898630E-01
 1.380009178E-01 9.621944139E-02 -2.801986153E-01
 1.692959424E-01 9.878673682E-02 -3.452507654E-01
 1.337634173E-01 7.341743238E-02 -3.046123926E-01
 4.226275388E-01 1.160723871E-01 -6.424950420E-01
 1.726147441E-01 7.682215887E-02 -3.824966881E-01
 3.570851349E-01 1.153769386E-01 -5.781880513E-01
 3.169799558E-01 1.199007120E-01 -5.327729833E-01
 4.669902645E-01 8.284281893E-02 -7.194430472E-01
 4.541797371E-01 1.023376633E-01 -6.825211154E-01
 6.642800612E-01 6.665359128E-02 -5.298077471E-01
 6.696797254E-01 8.188156675E-02 -5.054626118E-01
 6.894087981E-01 7.675059080E-02 -4.579323550E-01
 7.164672160E-01 9.609743624E-02 -3.899207562E-01
 7.617187795E-01 1.146582660E-01 -3.065578331E-01
 7.322922490E-01 5.701675550E-02 -3.816168565E-01
 7.484369246E-01 8.799490651E-02 -3.468300295E-01
 7.801112706E-01 8.639015237E-02 -2.840732223E-01
 7.456133734E-01 5.684996177E-02 -3.609084178E-01
 4.397001140E-01 8.395141927E-02 -6.977970887E-01
 1.436030839E-01 6.109427188E-02 -3.462619982E-01
 4.362148777E-02 7.415418267E-02 9.551793861E-03
 7.773706250E-02 8.223812340E-02 -1.324061867E-01
 9.576445328E-02 5.303366500E-02 -2.421575204E-01
 8.103043523E-02 5.938222021E-02 -1.787087754E-01
 1.650618450E-01 6.393247282E-02 -3.824417886E-01
 7.222878181E-01 5.924416242E-02 -4.029190811E-01
 1.326447384E-01 5.877040296E-02 -3.258975391E-01
 5.952991929E-01 1.013326098E-01 -6.680810237E-01
 5.642498778E-01 1.102537064E-01 -7.002715181E-01
 6.346250739E-01 8.576944536E-02 -5.946740592E-01
 5.947883882E-01 7.988223878E-02 -6.913297867E-01
 7.312386179E-01 7.232713679E-02 -3.788962684E-01
 8.106505703E-01 1.239912845E-01 -2.175027277E-01
 8.198342485E-01 8.590969697E-02 -2.123801708E-01
 8.570705692E-01 7.741042156E-02 -1.510911066E-01
 1.768030483E-01 6.436051164E-02 -4.030029813E-01
 1.090784082E-01 8.011818556E-02 -2.355714212E-01
 7.519490727E-01 2.289865749E-01 -2.921522225E-01
 5.359553043E-01 6.475699683E-01 -2.314442343E-01
 5.690130210E-01 7.720248520E-02 -7.412565274E-01
 5.438340206E-01 9.810370513E-02 -7.336180140E-01
 2.678164600E-02 5.183334319E-02 1.164445662E-01
 -8.558598719E-03 3.123347684E-02 4.696980832E-01
 4.802999191E-02 5.274748612E-02 -3.805325969E-02
 6.392718330E-02 6.191819450E-02 -1.008688880E-01
 3.845836882E-01 4.499725237E-01 -2.779288789E-01
 9.747326845E-01 6.213643111E-02 1.129122684E-01
 7.736759574E-01 -2.557254791E-02 1.982966132E-01
 9.900268167E-01 -1.493201508E-01 2.215251883E-01
 5.362626249E-01 -7.717793850E-02 -2.649317312E-01
 4.174350167E-01 -9.329288625E-02 -6.321988304E-01
 4.013419532E-01 -8.400918876E-02 -6.902460497E-01
 8.703441778E-01 1.726624403E-01 -1.183561180E-01
 5.553839103E-01 1.400341342E-01 -6.665770812E-01
 1.586120384E+00 4.027926076E-01 -6.420144679E-03
 8.727118030E-01 5.433392004E-02 -1.207177418E-01
 8.955290108E-01 4.706606414E-02 -6.873903482E-02
 9.196548897E-01 5.446419554E-02 -8.624570466E-03
 8.482414915E-01 5.541788122E-02 -1.704126927E-01
 9.453398421E-01 5.004516535E-02 6.026710697E-02
 9.263816159E-01 3.493856231E-02 1.192501688E-02
 8.447701474E-01 4.331729624E-01 -1.760397682E-01
 7.990202350E-01 -2.684840257E-02 2.332269939E-01
 7.736560901E-01 6.575583307E-02 -3.011331524E-01
 7.977724739E-01 6.514318922E-02 -2.577675657E-01
 8.257747619E-01 6.157558086E-02 -2.096202161E-01
 6.145698740E-01 8.773563774E-02 -6.435767890E-01
 6.998400421E-01 6.472298516E-02 -4.459144955E-01
 4.029534363E-01 1.026133283E-01 -6.440820199E-01
 3.988770213E-01 8.636607424E-02 -6.578033036E-01
 8.684407781E-01 -1.449638330E-02 3.270478907E-01
 1.022489883E+00 2.381861297E-02 2.215878358E-01
 1.036970070E+00 -3.935591823E-03 2.378705233E-01
 1.038849603E+00 -5.590497881E-02 2.425468381E-01
 1.500411278E+00 -4.953916143E-01 4.562683344E-02
 2.293473735E-01 -1.392666052E-01 -4.188936914E-01
 2.267217599E-01 -9.548521405E-02 -4.781847734E-01
 1.981334722E-01 -8.330422352E-02 -4.457510034E-01
 1.762913884E-01 -6.986715731E-02 -4.266586788E-01
 2.509852967E-01 -8.906472158E-02 -5.335907577E-01
 2.750065182E-01 -9.156450403E-02 -5.689362980E-01
 3.011695990E-01 -9.232362336E-02 -6.127603472E-01
 3.283489969E-01 -8.568907398E-02 -6.664405340E-01
 3.133974596E+00 6.339745962E-01 -9.304484068E-04
 2.996523419E-01 -7.601202347E-02 -6.384039628E-01
 4.827520920E-01 8.063470454E-02 -7.366964132E-01
 4.851542688E-01 9.476563691E-02 -7.177067265E-01
 5.070173294E-01 9.556728531E-02 -7.305308672E-01
 6.027973472E-01 -5.520555421E-02 -9.891936469E-02
 7.953873304E-01 4.967910294E-02 -2.673069097E-01
 9.549415014E-01 -1.930241672E-02 3.695872110E-01
 9.322890720E-01 -2.074247835E-02 3.614626991E-01
 9.431782207E-02 -1.968718403E-01 -9.372561155E-02
 2.044208063E-01 -2.980503314E-01 -1.985417903E-01
 5.761544352E-01 -5.859828000E-02 -1.615645625E-01
 3.906609430E-01 -7.651201846E-02 -7.236958868E-01
 8.211182955E-01 4.557262133E-02 -2.234210252E-01
 3.133974596E+00 -6.339745962E-01 1.255324132E-02
 5.477543234E-01 -6.522446561E-02 -2.360704800E-01
 2.971703505E-01 1.510357847E-01 -4.692526523E-01
 2.752717951E-01 1.185143164E-01 -4.895202580E-01
 2.938562344E-01 9.930656328E-02 -5.323643177E-01
 3.371189842E-01 9.558736416E-02 -5.795169816E-01
 3.615238846E-01 9.390127865E-02 -6.099400212E-01
 1.529655622E-01 7.359818396E-02 -3.457436442E-01
 9.908175833E-01 2.870380722E-02 2.148451310E-01
 3.624747852E-01 7.952258463E-02 -6.267121385E-01
 8.222007308E-01 -1.940193947E-02 2.676457111E-01
 9.696697441E-01 -2.966805118E-02 3.440077429E-01