TITLE     = "Visualization of the solution"
VARIABLES = "x"
"y"
"Pressure_Coefficient"
ZONE T="Zone"
 STRANDID=0, SOLUTIONTIME=0
 Nodes=707, Elements=1199, ZONETYPE=FEQuadrilateral
 DATAPACKING=POINT
 DT=(DOUBLE DOUBLE DOUBLE )
 9.996500611E-01 5.215679412E-04 2.726882345E-01
 9.868222475E-01 2.880035900E-03 2.146191559E-01
 9.743309617E-01 5.095805973E-03 1.453561211E-01
 9.601806402E-01 7.659505587E-03 8.654061147E-02
 9.469823837E-01 1.010137796E-02 3.509848573E-02
 9.335805178E-01 1.238583773E-02 9.480804508E-03
 9.226176739E-01 1.434642170E-02 -4.599922832E-02
 9.103679657E-01 1.651870273E-02 -8.493482730E-02
 8.984819055E-01 1.846930012E-02 -1.068196784E-01
 8.859017491E-01 2.047494985E-02 -1.398556007E-01
 8.738118410E-01 2.240244672E-02 -1.723206585E-01
 8.616297245E-01 2.421551384E-02 -1.825001412E-01
 8.485756516E-01 2.604208700E-02 -1.961105282E-01
 8.369188309E-01 2.770221978E-02 -2.144536277E-01
 8.249394298E-01 2.932559326E-02 -2.241122349E-01
 8.119469881E-01 3.104196861E-02 -2.373319930E-01
 7.988110185E-01 3.275051713E-02 -2.550917439E-01
 7.868164778E-01 3.428585455E-02 -2.702054152E-01
 7.741635442E-01 3.585213423E-02 -2.829783031E-01
 7.618007064E-01 3.735540062E-02 -2.995293630E-01
 7.487585545E-01 3.891797736E-02 -3.171179794E-01
 7.346806526E-01 4.054659605E-02 -3.362869214E-01
 7.238199711E-01 4.179093987E-02 -3.512527981E-01
 7.125573158E-01 4.302616790E-02 -3.649342720E-01
 7.008529305E-01 4.429568723E-02 -3.873308194E-01
 6.873281002E-01 4.574136436E-02 -4.065538883E-01
 6.740885973E-01 4.705167189E-02 -4.233977896E-01
 6.640590429E-01 4.804515094E-02 -4.418035791E-01
 6.525073051E-01 4.912977293E-02 -4.604548746E-01
 6.415666342E-01 5.013001338E-02 -4.794554270E-01
 6.297035217E-01 5.115603283E-02 -4.997400611E-01
 6.187203526E-01 5.207073316E-02 -5.202456732E-01
 6.078944802E-01 5.292177200E-02 -5.351338734E-01
 5.953519344E-01 5.384039879E-02 -5.528029971E-01
 5.835476518E-01 5.465846509E-02 -5.700200682E-01
 5.700259805E-01 5.551289022E-02 -5.850031676E-01
 5.573917031E-01 5.624194071E-02 -5.975382910E-01
 5.449419618E-01 5.688698217E-02 -6.100708058E-01
 5.339602232E-01 5.741318315E-02 -6.170617764E-01
 5.221132636E-01 5.789815262E-02 -6.193626422E-01
 5.091422796E-01 5.836279690E-02 -6.233330897E-01
 4.981858432E-01 5.869949982E-02 -6.207913697E-01
 4.849848747E-01 5.901972204E-02 -6.173334396E-01
 4.719602764E-01 5.927189812E-02 -6.113514117E-01
 4.574675262E-01 5.944605544E-02 -6.039601335E-01
 4.436370730E-01 5.952799693E-02 -5.947751385E-01
 4.304847121E-01 5.952189490E-02 -5.850613508E-01
 4.173240960E-01 5.944953114E-02 -5.767435068E-01
 4.049897492E-01 5.931412429E-02 -5.660783986E-01
 3.925369680E-01 5.910727009E-02 -5.551677513E-01
 3.804435134E-01 5.884722620E-02 -5.452631431E-01
 3.694577813E-01 5.855539814E-02 -5.346450490E-01
 3.565351367E-01 5.815854669E-02 -5.254886613E-01
 3.445746601E-01 5.772127956E-02 -5.129150186E-01
 3.322842419E-01 5.721344799E-02 -5.015035292E-01
 3.218351901E-01 5.672767386E-02 -4.889577218E-01
 3.095543087E-01 5.610125512E-02 -4.761418852E-01
 2.965870798E-01 5.538304150E-02 -4.630924621E-01
 2.826507390E-01 5.452718958E-02 -4.485337098E-01
 2.698333561E-01 5.366980657E-02 -4.370778694E-01
 2.577267289E-01 5.280227214E-02 -4.254902249E-01
 2.450067997E-01 5.182519183E-02 -4.126770492E-01
 2.318788320E-01 5.073532462E-02 -3.998392973E-01
 2.195125222E-01 4.964476079E-02 -3.865774325E-01
 2.076598406E-01 4.852483049E-02 -3.717070054E-01
 1.963265538E-01 4.739337415E-02 -3.586433564E-01
 1.837332249E-01 4.607396573E-02 -3.463269316E-01
 1.717853248E-01 4.474157840E-02 -3.337039813E-01
 1.599852890E-01 4.335375503E-02 -3.203996314E-01
 1.480358392E-01 4.186479002E-02 -3.085492677E-01
 1.370438188E-01 4.042276368E-02 -2.950361747E-01
 1.256853193E-01 3.883835673E-02 -2.805067814E-01
 1.140717790E-01 3.712800890E-02 -2.669938700E-01
 1.033462062E-01 3.544967249E-02 -2.559659861E-01
 9.343582392E-02 3.381620720E-02 -2.399855635E-01
 8.228038251E-02 3.184777126E-02 -2.151875732E-01
 7.032200694E-02 2.957385965E-02 -1.952036778E-01
 6.052915752E-02 2.755767293E-02 -1.693923863E-01
 5.078526214E-02 2.538314089E-02 -1.402641490E-01
 4.189713299E-02 2.320764400E-02 -1.092066212E-01
 3.443638980E-02 2.119570225E-02 -7.683555678E-02
 2.795450576E-02 1.927485690E-02 -4.318471286E-02
 2.249933593E-02 1.747083291E-02 -1.848770618E-02
 1.863422804E-02 1.607430540E-02 1.231543309E-02
 1.500909962E-02 1.462795492E-02 5.845449653E-02
 1.243233774E-02 1.349687111E-02 9.986229643E-02
 1.017190516E-02 1.241191011E-02 1.332749430E-01
 8.513879962E-03 1.154899225E-02 1.504941828E-01
 6.984469015E-03 1.068325061E-02 1.760432021E-01
 5.565259140E-03 9.806716815E-03 2.471083293E-01
 3.686025273E-03 8.490081877E-03 3.079412574E-01
 2.066958230E-03 7.147432771E-03 3.682285878E-01
 6.514839479E-04 5.693548825E-03 5.575898326E-01
 -7.027293905E-04 3.757076105E-03 7.174090113E-01
 -1.367231016E-03 2.212701365E-03 7.681532697E-01
 -1.639908296E-03 9.977234295E-04 1.094686494E+00
 -1.685962663E-03 -4.669998307E-04 1.090164699E+00
 -1.360406983E-03 -2.195192035E-03 8.708057449E-01
 -5.130019854E-04 -4.150135443E-03 8.687818956E-01
 9.185078670E-04 -6.227483042E-03 7.922386830E-01
 3.006600775E-03 -8.410606533E-03 6.054541015E-01
 4.848922137E-03 -9.961791337E-03 4.950306298E-01
 7.062805817E-03 -1.155460253E-02 3.799121473E-01
 8.657393046E-03 -1.257761661E-02 2.182252521E-01
 1.069107652E-02 -1.377009414E-02 1.845141546E-01
 1.308462303E-02 -1.504429523E-02 1.458554540E-01
 1.634242758E-02 -1.661738381E-02 1.207626374E-01
 1.947010495E-02 -1.798569597E-02 7.491569345E-02
 2.349805273E-02 -1.959372684E-02 1.463302640E-02
 2.899508923E-02 -2.156931907E-02 -2.589211916E-02
 3.484679386E-02 -2.345162630E-02 -7.014473362E-02
 4.235647991E-02 -2.563506737E-02 -9.065200146E-02
 5.006586015E-02 -2.765458636E-02 -1.351058802E-01
 5.904061720E-02 -2.978578955E-02 -1.656446046E-01
 6.789267063E-02 -3.170787916E-02 -1.903150851E-01
 7.837069035E-02 -3.381216899E-02 -2.173936290E-01
 8.841191977E-02 -3.566431627E-02 -2.325546567E-01
 9.904903173E-02 -3.749120981E-02 -2.509149969E-01
 1.100406274E-01 -3.925315663E-02 -2.685984070E-01
 1.216887832E-01 -4.100003839E-02 -2.863045161E-01
 1.331459135E-01 -4.260985926E-02 -3.047109952E-01
 1.438099146E-01 -4.401960224E-02 -3.220008184E-01
 1.549328566E-01 -4.540418088E-02 -3.375357853E-01
 1.668299437E-01 -4.680170119E-02 -3.536262739E-01
 1.785582006E-01 -4.808868468E-02 -3.712895635E-01
 1.904761940E-01 -4.931356758E-02 -3.872757129E-01
 2.009637356E-01 -5.033087358E-02 -4.056524135E-01
 2.123275399E-01 -5.136292055E-02 -4.233692483E-01
 2.246036381E-01 -5.238930881E-02 -4.401782895E-01
 2.371142358E-01 -5.335952714E-02 -4.597951695E-01
 2.494186908E-01 -5.422640592E-02 -4.809057243E-01
 2.620575726E-01 -5.500964820E-02 -4.982717328E-01
 2.731001675E-01 -5.562580749E-02 -5.151121424E-01
 2.858209312E-01 -5.624566227E-02 -5.332130588E-01
 2.983287275E-01 -5.676163733E-02 -5.563136614E-01
 3.110656142E-01 -5.715794489E-02 -5.747138616E-01
 3.226476908E-01 -5.744700134E-02 -5.918944699E-01
 3.349204063E-01 -5.765245482E-02 -6.132921998E-01
 3.453454077E-01 -5.770739913E-02 -6.273226206E-01
 3.565147519E-01 -5.771202967E-02 -6.320125512E-01
 3.674465716E-01 -5.761042610E-02 -6.421888412E-01
 3.778919876E-01 -5.741230026E-02 -6.439697733E-01
 3.891705275E-01 -5.711184442E-02 -6.371865535E-01
 4.016064703E-01 -5.665486306E-02 -6.226131416E-01
 4.136227369E-01 -5.607637018E-02 -5.988830510E-01
 4.267282486E-01 -5.533273146E-02 -5.700936869E-01
 4.391582310E-01 -5.447282642E-02 -5.382016291E-01
 4.518587291E-01 -5.347727612E-02 -4.949024942E-01
 4.641225934E-01 -5.241078883E-02 -4.568075028E-01
 4.764000773E-01 -5.121972784E-02 -4.186695937E-01
 4.879212677E-01 -5.002872646E-02 -3.803404252E-01
 5.003055334E-01 -4.865180701E-02 -3.381172784E-01
 5.138736367E-01 -4.707668722E-02 -2.973885238E-01
 5.275977850E-01 -4.537413269E-02 -2.575704262E-01
 5.408623219E-01 -4.366553947E-02 -2.161560547E-01
 5.546311140E-01 -4.185212404E-02 -1.813271961E-01
 5.673570633E-01 -4.011408612E-02 -1.478187977E-01
 5.807024837E-01 -3.828056529E-02 -1.162959569E-01
 5.926856995E-01 -3.659031913E-02 -8.685658427E-02
 6.050255895E-01 -3.486680612E-02 -6.030888480E-02
 6.184148788E-01 -3.297356889E-02 -3.469525234E-02
 6.329584122E-01 -3.091954440E-02 -8.611819003E-03
 6.466336250E-01 -2.895888872E-02 1.935089587E-02
 6.602138877E-01 -2.705718577E-02 4.234884297E-02
 6.735818386E-01 -2.515674010E-02 6.468408065E-02
 6.863990426E-01 -2.338940464E-02 8.553577330E-02
 6.987403035E-01 -2.167030983E-02 1.039950895E-01
 7.134584785E-01 -1.966538653E-02 1.268462113E-01
 7.266631722E-01 -1.791836321E-02 1.440778952E-01
 7.381222248E-01 -1.639840752E-02 1.601852073E-01
 7.505247593E-01 -1.479278132E-02 1.771976345E-01
 7.628741860E-01 -1.320227329E-02 1.958671125E-01
 7.758196592E-01 -1.161024999E-02 2.129664423E-01
 7.878821492E-01 -1.017599925E-02 2.255734872E-01
 8.000752926E-01 -8.711718954E-03 2.454297644E-01
 8.115825653E-01 -7.452986203E-03 2.623277924E-01
 8.231565952E-01 -6.202821620E-03 2.733213823E-01
 8.358736634E-01 -4.916484468E-03 2.886407580E-01
 8.482345939E-01 -3.726650029E-03 3.050156889E-01
 8.603416681E-01 -2.660568338E-03 3.180336534E-01
 8.721868992E-01 -1.703577931E-03 3.306632903E-01
 8.843200207E-01 -8.400436491E-04 3.415027575E-01
 8.978250623E-01 -3.956242654E-05 3.499028475E-01
 9.079424143E-01 4.641454143E-04 3.579071671E-01
 9.182369709E-01 8.681039326E-04 3.611470748E-01
 9.277537465E-01 1.151689212E-03 3.620894430E-01
 9.368616939E-01 1.342479954E-03 3.643513290E-01
 9.493241310E-01 1.478549209E-03 3.585995998E-01
 9.628971815E-01 1.466306043E-03 3.645334384E-01
 9.774284363E-01 1.271518995E-03 3.564273210E-01
 9.896975756E-01 9.394736844E-04 3.654114653E-01
 -5.000000000E-01 -1.000000000E+00 4.541073175E-02
 3.500000000E+00 -1.000000000E+00 1.122897536E-02
 3.500000000E+00 1.000000000E+00 -8.761834157E-05
 -5.000000000E-01 1.000000000E+00 4.460418782E-02
 -5.000000000E-01 5.000000000E-01 8.582892422E-02
 -5.000000000E-01 2.752797990E-12 1.304856435E-01
 -5.000000000E-01 -5.000000000E-01 9.622769982E-02
 -9.421907698E-13 -1.000000000E+00 2.160288877E-02
 5.000000000E-01 -1.000000000E+00 -2.503250845E-02
 1.000000000E+00 -1.000000000E+00 -1.432914970E-03
 1.500000000E+00 -1.000000000E+00 3.044551143E-02
 2.000000000E+00 -1.000000000E+00 2.684875325E-02
 2.500000000E+00 -1.000000000E+00 1.859545449E-02
 3.000000000E+00 -1.000000000E+00 1.339488214E-02
 3.500000000E+00 -5.000000000E-01 1.213778433E-02
 3.500000000E+00 -2.752797990E-12 1.203972636E-02
 3.500000000E+00 5.000000000E-01 6.266859850E-03
 3.000000000E+00 1.000000000E+00 -6.338084763E-03
 2.500000000E+00 1.000000000E+00 -1.523772821E-02
 2.000000000E+00 1.000000000E+00 -3.166400526E-02
 1.500000000E+00 1.000000000E+00 -6.937444283E-02
 1.000000000E+00 1.000000000E+00 -1.242350685E-01
 5.000000000E-01 1.000000000E+00 -7.957080975E-02
 1.733724275E-12 1.000000000E+00 1.060664814E-02
 6.825818909E-01 -3.867193872E-02 7.326409652E-02
 7.817299868E-01 -2.016216184E-02 2.145974139E-01
 9.028921973E-01 -1.033776791E-02 3.403827830E-01
 7.067111691E-01 5.607406772E-02 -3.687322450E-01
 2.799676222E-01 -6.791246049E-02 -5.089371844E-01
 2.778968767E-01 6.578602689E-02 -4.338320011E-01
 9.084007315E-01 2.914952784E-02 -8.003797753E-02
 8.065659473E-01 4.726602299E-02 -2.388250524E-01
 5.615500076E-01 -5.354471124E-02 -1.615502034E-01
 6.062688820E-01 6.458047404E-02 -5.269105211E-01
 3.965707607E-01 -6.844932552E-02 -6.032273098E-01
 4.227814061E-01 7.289590066E-02 -5.660924123E-01
 1.702547409E+00 -5.225088595E-01 3.056442537E-02
 1.772603034E+00 5.755729124E-01 -1.610691856E-02
 3.031187568E+00 2.156784039E-01 5.407194731E-03
 7.335638302E-01 -5.745820401E-01 -2.936655102E-02
 4.673167559E-01 -6.264520457E-02 -4.302318059E-01
 7.373365778E-01 5.445223809E-01 -1.974913474E-01
 5.039004306E-01 7.142447274E-02 -6.064399744E-01
 2.734818663E+00 -5.327210211E-01 1.166975884E-02
 1.163828918E+00 6.917948529E-01 -8.156321531E-02
 9.824933333E-01 3.445738068E-01 -6.302576815E-02
 1.273067640E+00 -6.826104311E-01 4.875218429E-02
 1.504752949E+00 -2.684000018E-01 3.611326712E-02
 3.329409091E-01 6.148732543E-01 -1.219909022E-01
 1.072043770E-01 4.802841535E-02 -2.400871776E-01
 1.646122311E-01 5.561429362E-02 -3.118001720E-01
 2.193032631E-01 -5.449372540E-01 -5.626466144E-02
 8.151629584E-02 -4.722418205E-02 -1.901712274E-01
 1.332909106E-01 -5.333877171E-02 -2.877368809E-01
 1.948920606E-01 -6.135656651E-02 -3.800196581E-01
 2.226610047E+00 -5.758506677E-01 1.498454096E-02
 2.002825686E+00 -2.017335681E-01 1.126041500E-02
 2.412786547E+00 -1.828095559E-01 7.451557006E-03
 2.184522106E+00 1.579909903E-01 -2.715890565E-04
 1.751915248E+00 1.414978855E-01 3.534613383E-03
 -2.694635818E-01 2.391995296E-01 1.430452097E-01
 -1.002802684E-01 6.176894323E-01 2.806278686E-02
 1.951819687E-02 3.257824966E-01 1.929332715E-02
 5.205647122E-02 3.628234512E-02 -1.050570649E-01
 -2.174388204E-01 -2.624024096E-01 1.418971961E-01
 -1.441434196E-01 -6.047377842E-01 4.619206818E-02
 2.203692436E+00 5.860606482E-01 -9.867213577E-03
 2.740118906E+00 6.013262918E-01 -2.888930529E-03
 -2.392759000E-01 -1.349916962E-03 2.021429410E-01
 -1.409458562E-01 1.239309082E-01 2.065654931E-01
 -1.238665685E-01 -1.234916170E-01 2.321126165E-01
 3.519286828E-02 -3.527100424E-02 -5.577400073E-03
 3.231324441E-02 -3.706259840E-01 2.969290017E-02
 2.613551666E-01 -3.315174550E-01 -1.971147903E-01
 3.403237172E-01 -6.727493395E-02 -6.030269458E-01
 -1.028838005E-01 -4.027644727E-03 3.209027316E-01
 -5.369267422E-02 6.505606948E-02 3.414661186E-01
 2.257858449E-02 2.400175632E-02 2.758954277E-02
 -3.907443904E-02 1.761825669E-01 1.506779883E-01
 6.084715008E-03 9.538789744E-02 1.622613012E-01
 4.432513460E-02 1.748831119E-01 7.168917774E-03
 1.800046328E-01 2.612107262E-01 -1.664759013E-01
 3.529194267E-01 6.996591834E-02 -5.081427820E-01
 3.860958670E-01 6.882594538E-02 -5.377047652E-01
 3.138837552E-01 6.670439770E-02 -4.682636325E-01
 2.238680413E-01 6.202486847E-02 -3.777059753E-01
 1.586314289E-01 1.625751840E-01 -2.059042737E-01
 6.685347688E-02 1.030804731E-01 -6.205371661E-02
 1.293312295E-01 1.013055061E-01 -2.110284932E-01
 1.421685842E-01 5.229141813E-02 -2.881000300E-01
 -1.070980353E-02 5.185568354E-02 3.729524022E-01
 -5.475805410E-02 1.328989034E-02 4.701766244E-01
 1.939863001E-02 6.105431710E-02 1.511770191E-01
 3.784322571E-02 2.949836941E-02 -5.804451482E-02
 5.199317371E-02 7.075866485E-02 -1.302964982E-02
 7.340911792E-02 4.088237375E-02 -1.732165455E-01
 1.494956204E-01 4.315826877E-01 -6.331833911E-02
 3.093762106E-01 3.346900441E-01 -2.570975519E-01
 2.751040736E-01 2.036584524E-01 -3.124814311E-01
 4.234394441E-01 2.468207780E-01 -3.932691118E-01
 5.472441268E-01 4.887667158E-01 -2.631887059E-01
 3.740553157E-01 1.661990024E-01 -4.297441202E-01
 3.109344129E+00 -2.613007308E-01 1.065996612E-02
 -2.693858070E-02 2.901790683E-02 5.116825621E-01
 -3.109382304E-03 3.172404221E-02 3.969512305E-01
 1.302771611E-02 1.646581658E-02 1.084932103E-01
 8.779765240E-03 1.460324538E-02 1.837849172E-01
 8.622065096E-02 4.431867496E-02 -2.028357254E-01
 7.645097013E-02 6.217800827E-02 -1.577210224E-01
 9.723501436E-02 5.783499431E-02 -2.075011880E-01
 1.152783213E-01 6.408812091E-02 -2.264946331E-01
 1.184510194E-01 4.747725442E-02 -2.571864136E-01
 9.758428403E-02 8.864195075E-02 -1.723259803E-01
 9.748841450E-02 4.388959286E-02 -2.296203856E-01
 1.380954972E-02 4.284843092E-02 1.900124684E-01
 5.891421159E-01 6.876551974E-01 -1.806072563E-01
 7.162373357E-01 2.924798704E-01 -2.709488505E-01
 5.678086504E-01 2.890192807E-01 -3.721274004E-01
 5.508157822E-01 7.064746718E-02 -5.887817848E-01
 2.554731919E+00 2.102432678E-01 5.791553207E-04
 1.287547341E-01 5.127128764E-02 -2.686982267E-01
 1.374733161E-01 6.999254395E-02 -2.546004340E-01
 1.582180957E-01 8.621166650E-02 -2.693318991E-01
 2.021465281E-01 1.308189699E-01 -2.845685305E-01
 1.898277075E-01 5.907915207E-02 -3.390674783E-01
 1.891800756E-01 9.623454822E-02 -3.011169586E-01
 1.757401779E-01 7.144043139E-02 -3.090718014E-01
 2.053507828E-01 7.284122442E-02 -3.441303203E-01
 2.236716118E-01 1.022213210E-01 -3.383408960E-01
 2.492876816E-01 6.505408791E-02 -4.044015199E-01
 2.455672618E-01 1.412555435E-01 -3.298801976E-01
 2.149642117E-01 1.801256423E-01 -2.603693621E-01
 2.609487425E-01 1.008352154E-01 -3.832942181E-01
 2.947826155E-01 1.310122766E-01 -3.885845980E-01
 3.426473675E-01 1.221797247E-01 -4.424959772E-01
 2.959863674E-01 9.582683840E-02 -4.236002833E-01
 2.940473149E-01 7.373923928E-02 -4.423548129E-01
 3.247929473E-01 9.583604659E-02 -4.494809961E-01
 3.313939374E-01 7.620458368E-02 -4.807268857E-01
 3.496831800E-01 9.210964711E-02 -4.836425418E-01
 3.793399581E-01 1.089984235E-01 -4.926076554E-01
 4.272811100E-01 1.468634382E-01 -4.794965126E-01
 4.660147490E-01 6.979483688E-02 -5.939705158E-01
 4.904921274E-01 2.020958541E-01 -4.602484179E-01
 6.024593867E-01 1.877735956E-01 -4.271872632E-01
 6.603302533E-01 5.981660118E-02 -4.402460050E-01
 6.358951316E-01 6.389728617E-02 -4.797844788E-01
 6.817055494E-01 5.647235194E-02 -4.100976396E-01
 7.442070683E-01 1.951189020E-01 -2.699044747E-01
 7.575290836E-01 5.036034613E-02 -3.009511818E-01
 4.792161920E-01 1.340341698E-01 -5.198571938E-01
 3.679984885E-01 8.081862387E-02 -5.120846615E-01
 4.497347862E-01 1.125751171E-01 -5.366261327E-01
 4.195086770E-01 1.089695679E-01 -5.247637417E-01
 4.520631693E-01 7.327501607E-02 -5.829763858E-01
 4.787094311E-01 7.137911963E-02 -5.984287934E-01
 4.705073720E-01 9.237111109E-02 -5.696301241E-01
 4.942058307E-01 8.401350005E-02 -5.900431014E-01
 5.142744614E-01 8.166387119E-02 -5.925669497E-01
 5.272919258E-01 6.983733549E-02 -6.031885509E-01
 5.353184186E-01 8.610171301E-02 -5.794842564E-01
 5.635132638E-01 8.657211370E-02 -5.589482870E-01
 5.461511301E-01 1.154453357E-01 -5.421137380E-01
 5.820098342E-01 1.141735853E-01 -5.146253284E-01
 5.762527277E-01 6.979602688E-02 -5.623650412E-01
 4.366416950E-01 8.917270429E-02 -5.550439079E-01
 5.691425234E-01 1.526523644E-01 -4.853955948E-01
 6.466416152E-01 1.375139745E-01 -4.132644989E-01
 4.035626104E-01 8.374419378E-02 -5.352508550E-01
 5.384656623E-01 6.817733620E-02 -6.005525067E-01
 6.768978166E-01 1.966318734E-01 -3.579155070E-01
 8.401013673E-01 2.570012271E-01 -1.579250284E-01
 8.504507468E-01 1.564807649E-01 -1.579817514E-01
 9.567234929E-01 2.139531905E-02 6.412044371E-02
 8.691333809E-01 3.671948058E-02 -1.658564202E-01
 8.458551214E-01 3.902192040E-02 -1.947027544E-01
 7.876487414E-01 1.205939124E-01 -2.386765788E-01
 8.290067497E-01 3.977856072E-01 -1.723094157E-01
 9.705340425E-01 2.167442025E-01 -3.682974918E-02
 1.101193095E+00 2.503610086E-01 1.357179329E-02
 9.450199275E-01 1.199768189E-01 -1.747729244E-02
 2.644206350E-01 6.715786871E-02 -4.188435184E-01
 1.047827130E+00 1.550467329E-01 5.250769183E-02
 1.189148053E+00 1.230342844E-01 6.187743974E-02
 1.301221599E+00 3.090652265E-01 9.496818562E-03
 1.015850786E+00 8.147882456E-02 9.100350244E-02
 1.416476307E+00 1.274583433E-01 2.544914570E-02
 1.275078181E+00 -2.982365761E-02 6.194302351E-02
 1.143456373E+00 -8.898121140E-03 1.022212860E-01
 1.159950142E+00 -1.287641529E-01 1.088436207E-01
 9.740712143E-01 -1.316291680E-02 3.330484761E-01
 1.071999993E+00 -7.256169426E-02 1.631547028E-01
 1.051965722E+00 -1.680993363E-01 1.584257325E-01
 9.776839896E-01 -1.093164937E-01 2.305141009E-01
 8.415475875E-01 -1.359598781E-02 2.887842847E-01
 8.163346850E-01 -1.949155776E-02 2.558094753E-01
 8.681738969E-01 -1.112917044E-02 3.155178317E-01
 9.508915286E-01 -2.024905700E-01 1.703547643E-01
 8.687962102E-01 -1.455635822E-01 1.940813978E-01
 8.501032915E-01 -2.435203711E-01 1.252256069E-01
 7.736672587E-01 -1.660379084E-01 1.251340343E-01
 6.288156958E-01 -4.596489664E-02 -1.861740855E-02
 6.010265086E-01 -5.032468834E-02 -6.961954137E-02
 7.349574683E-01 -2.855957500E-02 1.502095046E-01
 7.570433472E-01 -2.603405533E-02 1.812552241E-01
 9.400944661E-01 -3.309530577E-01 1.190914218E-01
 7.221708430E-01 -2.787034626E-01 3.299171510E-02
 6.362532953E-01 -2.081008298E-01 -3.299471846E-02
 6.077107833E-01 -3.051698615E-01 -6.403019078E-02
 5.421127698E-01 -2.237858035E-01 -1.594311729E-01
 5.097113490E-01 -3.483740955E-01 -1.556160876E-01
 5.804730394E-01 -1.458039817E-01 -1.127073931E-01
 5.085504591E-01 -6.370046013E-02 -3.022929936E-01
 4.895935733E-01 -1.610756804E-01 -2.781576378E-01
 4.336879394E-01 -6.566745949E-02 -5.325515537E-01
 6.442833771E-01 -1.267549732E-01 -1.043607796E-02
 4.470344520E-01 -2.337025659E-01 -2.822556957E-01
 4.004603488E-01 -1.596091552E-01 -4.278383391E-01
 8.093245563E-01 -9.730520988E-02 1.876446974E-01
 7.311362046E-01 -1.027764642E-01 1.099198240E-01
 1.149954663E+00 -2.707200564E-01 9.582049918E-02
 8.604476029E-01 -8.096211361E-02 2.436296446E-01
 5.288403856E-01 -1.137473325E-01 -2.187167669E-01
 5.369730211E-01 -5.789699719E-02 -2.227188228E-01
 4.460981862E-01 -1.251787042E-01 -4.059409300E-01
 6.062658801E-01 -9.813190499E-02 -6.551753032E-02
 1.071054614E+00 -1.649198754E-03 1.524832622E-01
 1.084080787E+00 6.389635102E-02 1.160161490E-01
 1.038990366E+00 3.679426040E-02 1.602494243E-01
 1.013726626E+00 -5.738180211E-02 2.312156693E-01
 7.635483612E-01 -7.697305453E-02 1.603787074E-01
 9.675827407E-01 6.367427184E-02 5.455405722E-02
 1.036376634E+00 -2.526869768E-02 2.090360001E-01
 8.300099944E-01 -5.732235835E-02 2.388449709E-01
 7.939409761E-01 -5.247305076E-02 2.086154119E-01
 1.540566272E+00 3.539828118E-01 -3.487111364E-03
 6.405694642E-01 -8.726867865E-02 -7.010574942E-03
 6.563653909E-01 -4.084402875E-02 3.173397752E-02
 3.599113489E-01 -2.367823282E-01 -3.339884865E-01
 3.137526670E-01 -1.632898413E-01 -4.120383666E-01
 3.547824143E-01 -1.322444340E-01 -4.837782404E-01
 1.319462437E+00 -1.950774570E-01 6.211593144E-02
 6.850359008E-01 -8.704899358E-02 5.748317294E-02
 1.078035433E+00 -4.436096202E-01 9.113249258E-02
 1.163323637E+00 4.567753417E-01 -2.258709928E-02
 8.554347855E-01 -4.498731100E-02 2.724544510E-01
 8.964220627E-01 -4.768551141E-02 2.920568237E-01
 9.336037899E-01 -6.367254966E-03 3.540939488E-01
 9.113942152E-01 -9.514680762E-02 2.482930909E-01
 9.399051661E-01 -5.349585394E-02 2.978861913E-01
 9.232196020E-01 -3.549866668E-02 3.156310503E-01
 9.424410296E-01 -8.961435433E-03 3.509545816E-01
 9.782007602E-01 -4.556254683E-02 2.886095109E-01
 1.496144234E+00 -5.937741214E-02 3.061646343E-02
 1.709180285E+00 -1.319195852E-01 1.903457576E-02
 6.430989575E-01 -4.080240601E-02 7.456938426E-03
 6.486927587E-01 -6.040254808E-02 1.342451972E-02
 6.185130900E-01 -6.523240909E-02 -3.983686899E-02
 5.906176969E-01 -6.915768103E-02 -9.550884282E-02
 6.737690957E-01 -5.388466139E-02 5.496154962E-02
 6.965837486E-01 -5.549491409E-02 8.850602239E-02
 7.086221947E-01 -3.046059688E-02 1.135454667E-01
 5.656913367E-01 -9.146756828E-02 -1.452071169E-01
 6.143591525E-01 -4.587247382E-02 -4.470516826E-02
 8.550862047E-01 -1.896812350E-02 2.963015026E-01
 8.793663658E-01 -1.168901858E-02 3.259247648E-01
 8.741690971E-01 -2.634058647E-02 3.029276776E-01
 8.930445830E-01 -2.105371910E-02 3.227246727E-01
 6.987578133E-01 -1.615704386E-01 5.847821563E-02
 1.531812011E-01 6.476067221E-02 -2.882082394E-01
 1.433221670E+00 5.898973273E-01 -2.035879760E-02
 8.914896458E-01 -8.792022334E-03 3.359912275E-01
 5.881843642E-01 -4.800091987E-02 -9.736434628E-02
 5.766396478E-01 -5.265251270E-02 -1.255763071E-01
 5.691638935E-01 -6.713193192E-02 -1.420906741E-01
 5.517797955E-01 -6.785343469E-02 -1.827807010E-01
 5.310443456E-01 -7.750983439E-02 -2.308383882E-01
 5.045023066E-01 -8.568759373E-02 -2.971260048E-01
 4.931979568E-01 -7.046000586E-02 -3.437919232E-01
 4.782445736E-01 -8.055153253E-02 -3.772038974E-01
 4.561107150E-01 -7.465492786E-02 -4.473011495E-01
 4.379616913E-01 -8.728300318E-02 -4.795604649E-01
 4.195457931E-01 -7.887170855E-02 -5.415837574E-01
 4.168621904E-01 -1.038957205E-01 -5.028100633E-01
 3.825114931E-01 -1.045272710E-01 -5.393356501E-01
 3.631586095E-01 -6.595543344E-02 -6.198309377E-01
 4.614173846E-01 -9.537726069E-02 -4.112159469E-01
 4.872544749E-01 -1.096013530E-01 -3.291547555E-01
 3.503849136E-01 -9.947520895E-02 -5.471320858E-01
 3.192856389E-01 -1.123780238E-01 -4.888307415E-01
 2.715025231E-01 -1.301031892E-01 -3.969457304E-01
 2.305175413E-01 -6.625252637E-02 -4.328253365E-01
 3.031789618E-01 -6.917526121E-02 -5.426444971E-01
 2.494353329E-01 -2.070881156E-01 -3.010248093E-01
 2.209230646E-01 -1.465030571E-01 -3.173654173E-01
 1.702149037E-01 -2.652386014E-01 -1.440056669E-01
 8.573657839E-02 -1.845039638E-01 -4.549280311E-02
 1.350332932E-01 -1.233278092E-01 -2.128313972E-01
 2.315862930E-01 -1.087568377E-01 -3.838112995E-01
 2.556690096E-01 -6.705371558E-02 -4.717503787E-01
 -4.349615219E-02 -2.151101581E-01 1.498729318E-01
 -8.786247754E-03 -1.297108009E-01 2.022455519E-01
 2.869937378E-01 -9.774282826E-02 -4.769074142E-01
 2.606118727E-01 -1.000718524E-01 -4.361215913E-01
 -5.753949065E-02 -7.415199294E-02 3.458616683E-01
 -4.017797069E-02 -2.816467929E-02 5.183199037E-01
 1.614832421E-02 -2.084907876E-02 1.538456542E-01
 4.958309666E-03 -7.582485943E-02 2.554182312E-01
 4.465934860E-02 -1.031757146E-01 3.238744625E-02
 -2.362197274E-02 3.802627780E-03 7.202879534E-01
 2.684073592E-01 -6.557538428E-02 -4.933102671E-01
 2.417343853E-01 -8.148111698E-02 -4.310498317E-01
 2.195022103E-01 -8.423116598E-02 -3.923979316E-01
 2.161714053E-01 -6.494887853E-02 -4.118326773E-01
 2.428907725E-01 -6.447465840E-02 -4.551242599E-01
 1.897166001E-01 -1.091576517E-01 -3.138153381E-01
 1.584189627E-01 -8.321130859E-02 -2.932571631E-01
 1.232020554E-01 -8.694617968E-02 -2.225079969E-01
 1.110045509E-01 -5.266076287E-02 -2.470673520E-01
 1.576574274E-01 -5.996070044E-02 -3.234824889E-01
 3.749461743E-01 -6.618389562E-02 -6.231958748E-01
 2.024346152E-01 -7.554647175E-02 -3.780723513E-01
 1.833802149E-01 -7.409773154E-02 -3.500426705E-01
 1.424553155E-01 -6.906884537E-02 -2.826022768E-01
 1.713473814E-01 -6.164539261E-02 -3.453106108E-01
 2.360587993E-01 7.915051967E-02 -3.764661047E-01
 9.350398451E-01 -2.103367664E-02 3.327109963E-01
 9.549840571E-01 -2.052309520E-02 3.356351182E-01
 9.946299394E-01 -2.213943264E-02 3.348795183E-01
 -8.125631833E-03 1.504109026E-02 6.903291553E-01
 5.634424513E-04 7.981284837E-03 4.195142719E-01
 2.687508796E-03 1.158391850E-02 4.027981984E-01
 6.122127375E-02 4.903898914E-02 -1.279622278E-01
 3.733464777E-02 4.609375619E-02 -1.841352990E-02
 3.644361120E-01 -8.031661484E-02 -5.899235257E-01
 3.840901156E-01 -7.838779910E-02 -5.956664539E-01
 3.594302267E-02 -6.388712075E-02 4.387593911E-02
 6.078692617E-02 -3.981119241E-02 -1.278166417E-01
 9.237188909E-01 -9.092698332E-03 3.493301082E-01
 1.008831556E-01 1.395224487E-01 -1.292520016E-01
 5.874875764E-01 8.860614280E-02 -5.294853187E-01
 6.151196456E-01 1.065447247E-01 -4.775874338E-01
 6.030746010E-01 1.397316489E-01 -4.631843859E-01
 6.563257572E-01 9.782407164E-02 -4.252124394E-01
 6.937936815E-01 1.276972661E-01 -3.493891187E-01
 6.848754148E-01 8.885093815E-02 -3.831126514E-01
 7.232195150E-01 9.862354131E-02 -3.345394217E-01
 7.333420062E-01 5.402961496E-02 -3.330894771E-01
 7.450240641E-01 4.975197016E-02 -3.194335548E-01
 7.505632856E-01 6.478453188E-02 -3.062085373E-01
 7.692608091E-01 6.102295526E-02 -2.810898145E-01
 7.811713361E-01 4.780417061E-02 -2.713787683E-01
 7.933049148E-01 6.401920646E-02 -2.518639249E-01
 8.178918992E-01 6.490583561E-02 -2.181016511E-01
 8.242983474E-01 4.745661661E-02 -2.187685383E-01
 8.404265916E-01 5.725312024E-02 -1.933224470E-01
 8.359422528E-01 8.459528621E-02 -1.887983578E-01
 8.667569671E-01 7.181898286E-02 -1.548600701E-01
 8.038684261E-01 9.155797627E-02 -2.286231790E-01
 7.935808931E-01 4.497070287E-02 -2.573868074E-01
 7.687850959E-01 4.647900137E-02 -2.865911647E-01
 7.629269856E-01 8.941621876E-02 -2.807017452E-01
 7.313170769E-01 7.327328096E-02 -3.267165469E-01
 7.101835720E-01 7.214952340E-02 -3.590423765E-01
 6.713094584E-01 7.383458792E-02 -4.133546298E-01
 7.196551852E-01 5.672393247E-02 -3.508012454E-01
 8.592530640E-01 4.875293479E-02 -1.723561140E-01
 8.806866341E-01 5.294244379E-02 -1.358105708E-01
 9.008577363E-01 7.593770596E-02 -9.382658182E-02
 9.321072827E-01 5.724307992E-02 -2.162616742E-02
 9.286975741E-01 2.233676494E-02 -2.018191732E-02
 9.405132977E-01 2.353815348E-02 1.324969401E-02
 9.496713210E-01 3.832490421E-02 3.444637444E-02
 9.701448490E-01 3.167884161E-02 9.368927813E-02
 9.825396886E-01 1.518842553E-02 1.897098790E-01
 1.000514194E+00 3.360150509E-02 1.626744641E-01
 9.687839265E-01 1.620357955E-02 1.088342514E-01
 8.761450304E-01 1.143564979E-01 -1.285735480E-01
 9.086526433E-01 1.704983138E-01 -9.630499016E-02
 9.194248131E-01 2.412750915E-02 -5.471798436E-02
 8.855498841E-01 3.705130000E-02 -1.356970142E-01
 9.036260231E-01 4.614188815E-02 -8.748672531E-02
 6.314555784E-01 8.324817936E-02 -4.725367538E-01
 6.083521627E-01 8.115445656E-02 -5.086339133E-01
 2.595866826E-02 3.243773440E-02 3.750737146E-02
 1.226410247E-02 2.793198170E-02 1.713631605E-01
 1.551694750E-03 2.065489545E-02 3.830259733E-01
 9.232578644E-03 1.953899608E-02 2.167848715E-01
 3.960740214E-03 1.567245959E-02 3.467426661E-01
 1.637275761E-02 2.024728150E-02 8.334963632E-02
 9.125189710E-01 -2.181075123E-02 3.292225408E-01
 3.306866994E-01 -8.854968258E-02 -5.489550651E-01
 3.286501204E-01 -7.200340905E-02 -5.749355602E-01
 3.109126767E-01 -8.390802400E-02 -5.286635008E-01
 9.624934621E-01 5.341842755E-01 -1.016088656E-01
 5.153444722E-01 6.783732579E-02 -6.096454473E-01
 5.920541656E-01 6.781413582E-02 -5.432086587E-01
 2.907441916E-01 -7.888561874E-02 -5.052238513E-01
 7.217528917E-01 -3.102202902E-02 1.323200464E-01
 7.323718388E-01 -4.599490850E-02 1.396926553E-01
 7.470492848E-01 -3.757950866E-02 1.614707023E-01
 7.653727454E-01 -4.444614908E-02 1.797145315E-01