TITLE     = "Visualization of the solution"
VARIABLES = "x"
"y"
"Pressure_Coefficient"
ZONE T="Zone"
 STRANDID=0, SOLUTIONTIME=0
 Nodes=691, Elements=1167, ZONETYPE=FEQuadrilateral
 DATAPACKING=POINT
 DT=(DOUBLE DOUBLE DOUBLE )
 9.997333288E-01 5.252361880E-04 3.291782483E-01
 9.875336289E-01 2.955878619E-03 2.542382031E-01
 9.759528637E-01 5.241173320E-03 1.768389479E-01
 9.617837667E-01 8.007524535E-03 1.046817414E-01
 9.484767914E-01 1.064916980E-02 5.397692828E-02
 9.355865717E-01 1.308044232E-02 1.312091462E-02
 9.246358871E-01 1.518470608E-02 -2.626504517E-02
 9.126718640E-01 1.739950106E-02 -6.384998782E-02
 9.015578628E-01 1.944726333E-02 -1.029204493E-01
 8.896621466E-01 2.154636942E-02 -1.340421366E-01
 8.774371147E-01 2.360672504E-02 -1.594467525E-01
 8.653427958E-01 2.557680011E-02 -1.774882448E-01
 8.525139093E-01 2.757541835E-02 -1.955567221E-01
 8.409068584E-01 2.936673723E-02 -2.110294531E-01
 8.288956285E-01 3.114330582E-02 -2.257593996E-01
 8.158226013E-01 3.306532651E-02 -2.484950113E-01
 8.025896549E-01 3.496300429E-02 -2.708043439E-01
 7.902713418E-01 3.668390960E-02 -2.846719035E-01
 7.773863673E-01 3.841052949E-02 -2.999261680E-01
 7.654545903E-01 4.001811892E-02 -3.170315209E-01
 7.521735430E-01 4.172806814E-02 -3.381280262E-01
 7.381097078E-01 4.353634268E-02 -3.618626593E-01
 7.270721793E-01 4.489008710E-02 -3.768896231E-01
 7.158433795E-01 4.623923078E-02 -3.966257295E-01
 7.040572166E-01 4.763669521E-02 -4.163702352E-01
 6.901176572E-01 4.920631647E-02 -4.406782986E-01
 6.770455241E-01 5.065986887E-02 -4.639389273E-01
 6.666275263E-01 5.174713209E-02 -4.824087319E-01
 6.550148129E-01 5.293558910E-02 -5.059265447E-01
 6.435681581E-01 5.405976251E-02 -5.244921972E-01
 6.313920617E-01 5.517705902E-02 -5.448133476E-01
 6.200824976E-01 5.619068816E-02 -5.662877493E-01
 6.091473699E-01 5.710516125E-02 -5.843618722E-01
 5.963869691E-01 5.810847878E-02 -6.075226552E-01
 5.844731927E-01 5.899425969E-02 -6.283594331E-01
 5.706068277E-01 5.992700905E-02 -6.461484667E-01
 5.577634573E-01 6.072288752E-02 -6.592542508E-01
 5.449902415E-01 6.141550094E-02 -6.648642562E-01
 5.338449478E-01 6.196044758E-02 -6.661901165E-01
 5.218484998E-01 6.247488409E-02 -6.701353415E-01
 5.090197921E-01 6.296645105E-02 -6.734293903E-01
 4.978420138E-01 6.330834329E-02 -6.701273611E-01
 4.845251441E-01 6.364952773E-02 -6.641823053E-01
 4.711735845E-01 6.389541924E-02 -6.567595784E-01
 4.567560554E-01 6.407003850E-02 -6.505907903E-01
 4.428502619E-01 6.415602565E-02 -6.397369594E-01
 4.295472503E-01 6.412509084E-02 -6.282242597E-01
 4.165793061E-01 6.404346228E-02 -6.196412973E-01
 4.040586352E-01 6.388075650E-02 -6.115469823E-01
 3.916309178E-01 6.366814673E-02 -6.005818024E-01
 3.794081509E-01 6.337388605E-02 -5.863102178E-01
 3.682686985E-01 6.305509061E-02 -5.755035247E-01
 3.551348150E-01 6.262562424E-02 -5.647231394E-01
 3.429015279E-01 6.214099750E-02 -5.523517705E-01
 3.302206993E-01 6.157547981E-02 -5.416682610E-01
 3.197148144E-01 6.106275693E-02 -5.254097026E-01
 3.071748912E-01 6.036140770E-02 -5.083838745E-01
 2.941247523E-01 5.957564339E-02 -4.959035151E-01
 2.801800370E-01 5.866876617E-02 -4.838729182E-01
 2.675727010E-01 5.776048079E-02 -4.688771155E-01
 2.555777133E-01 5.683216825E-02 -4.551029067E-01
 2.430527061E-01 5.579482019E-02 -4.395154912E-01
 2.302306145E-01 5.464629456E-02 -4.265673104E-01
 2.180615515E-01 5.349831283E-02 -4.141666316E-01
 2.062596083E-01 5.230848491E-02 -3.993221571E-01
 1.949715912E-01 5.110241845E-02 -3.824925497E-01
 1.826315969E-01 4.970266670E-02 -3.656931096E-01
 1.708071828E-01 4.828478023E-02 -3.483416806E-01
 1.593915373E-01 4.683129489E-02 -3.319719621E-01
 1.475159079E-01 4.524837434E-02 -3.199909152E-01
 1.369742006E-01 4.376091808E-02 -3.041785340E-01
 1.256293803E-01 4.206574336E-02 -2.866285479E-01
 1.142149717E-01 4.025441408E-02 -2.704061125E-01
 1.037986800E-01 3.850317001E-02 -2.570808911E-01
 9.412315488E-02 3.678272665E-02 -2.400114493E-01
 8.316417038E-02 3.471345082E-02 -2.148360838E-01
 7.135117054E-02 3.230694309E-02 -1.900342833E-01
 6.148784980E-02 3.013638780E-02 -1.620447376E-01
 5.172149464E-02 2.780224383E-02 -1.309900634E-01
 4.280251637E-02 2.547973208E-02 -1.110291955E-01
 3.528730199E-02 2.333354764E-02 -7.665046688E-02
 2.869411372E-02 2.125649713E-02 -4.236482461E-02
 2.313172817E-02 1.933310553E-02 -2.247183807E-02
 1.913364232E-02 1.780838706E-02 5.052282401E-03
 1.539428812E-02 1.624516211E-02 4.174042571E-02
 1.267777011E-02 1.499560941E-02 1.077275775E-01
 1.026108861E-02 1.378645003E-02 1.497758936E-01
 8.462963626E-03 1.280073449E-02 1.649810359E-01
 6.857560016E-03 1.184157748E-02 1.813556982E-01
 5.382381845E-03 1.087985560E-02 2.869104496E-01
 3.459639847E-03 9.462477639E-03 5.272124301E-01
 1.794716809E-03 7.993862964E-03 5.014274596E-01
 3.370530030E-04 6.386887748E-03 7.250481939E-01
 -1.035125228E-03 4.222650547E-03 7.030701295E-01
 -1.655398053E-03 2.526577329E-03 1.127230858E+00
 -1.873013098E-03 1.186617767E-03 8.677095489E-01
 -1.844048267E-03 -4.031913704E-04 1.029739857E+00
 -1.449708594E-03 -2.169670304E-03 7.889801750E-01
 -5.417049979E-04 -4.234578926E-03 8.276429440E-01
 9.311398608E-04 -6.432154682E-03 7.193853323E-01
 3.023747820E-03 -8.737627417E-03 5.574980213E-01
 4.884148482E-03 -1.040638890E-02 5.144384834E-01
 7.058888208E-03 -1.209727954E-02 4.084731558E-01
 8.665107191E-03 -1.321275812E-02 3.483796104E-01
 1.070084143E-02 -1.450896636E-02 2.996009491E-01
 1.311382651E-02 -1.591308415E-02 2.541124283E-01
 1.637991704E-02 -1.763164438E-02 1.913564532E-01
 1.945408247E-02 -1.910523698E-02 1.269447931E-01
 2.352045476E-02 -2.087682299E-02 8.697660790E-02
 2.900816314E-02 -2.303798497E-02 2.874533336E-02
 3.484457731E-02 -2.510703728E-02 -3.317795918E-02
 4.224567860E-02 -2.745735087E-02 -8.608680692E-02
 4.984887689E-02 -2.964556031E-02 -1.310751590E-01
 5.879499391E-02 -3.198131919E-02 -1.753901222E-01
 6.747531146E-02 -3.404487669E-02 -2.089718065E-01
 7.792334259E-02 -3.633057326E-02 -2.381804427E-01
 8.783948421E-02 -3.832102939E-02 -2.587444318E-01
 9.820989519E-02 -4.026903585E-02 -2.792978878E-01
 1.090951934E-01 -4.216125235E-02 -2.996790340E-01
 1.203848198E-01 -4.399987310E-02 -3.181161717E-01
 1.318392754E-01 -4.574191198E-02 -3.386045425E-01
 1.421439946E-01 -4.721555114E-02 -3.568261975E-01
 1.530703902E-01 -4.869637266E-02 -3.741136324E-01
 1.649096161E-01 -5.019369721E-02 -3.924539171E-01
 1.764326841E-01 -5.155490711E-02 -4.103168789E-01
 1.880453080E-01 -5.285336450E-02 -4.282843780E-01
 1.984479874E-01 -5.393086746E-02 -4.473391444E-01
 2.094124854E-01 -5.499747023E-02 -4.631157571E-01
 2.215649039E-01 -5.609565228E-02 -4.798100623E-01
 2.339983284E-01 -5.712806433E-02 -4.993851770E-01
 2.463019490E-01 -5.806059018E-02 -5.194672317E-01
 2.589353919E-01 -5.891797692E-02 -5.393202418E-01
 2.699587941E-01 -5.958275497E-02 -5.622442122E-01
 2.827093601E-01 -6.025630981E-02 -5.839043841E-01
 2.951942086E-01 -6.080082431E-02 -6.066692468E-01
 3.082546294E-01 -6.127022207E-02 -6.293550766E-01
 3.199618161E-01 -6.156824902E-02 -6.504928962E-01
 3.325867653E-01 -6.179322675E-02 -6.662646711E-01
 3.433689475E-01 -6.188870221E-02 -6.852197357E-01
 3.547140360E-01 -6.187454611E-02 -6.967018537E-01
 3.657842278E-01 -6.178471446E-02 -7.065763878E-01
 3.763643503E-01 -6.159271300E-02 -7.174765626E-01
 3.877703846E-01 -6.126710027E-02 -7.142575730E-01
 4.007258415E-01 -6.076775119E-02 -6.977874390E-01
 4.130578041E-01 -6.016866863E-02 -6.775331607E-01
 4.260340631E-01 -5.938035622E-02 -6.423987889E-01
 4.389415383E-01 -5.847328156E-02 -5.947726038E-01
 4.516400993E-01 -5.742967129E-02 -5.425833035E-01
 4.640403390E-01 -5.631580204E-02 -4.920977741E-01
 4.766761959E-01 -5.505646765E-02 -4.498726269E-01
 4.883227050E-01 -5.381253734E-02 -4.084515272E-01
 5.009903908E-01 -5.235058442E-02 -3.635399062E-01
 5.148097277E-01 -5.065356195E-02 -3.133334039E-01
 5.287778378E-01 -4.889847711E-02 -2.719613188E-01
 5.421749949E-01 -4.710285366E-02 -2.355304517E-01
 5.557928681E-01 -4.523375630E-02 -1.951447794E-01
 5.687742233E-01 -4.339644685E-02 -1.589392223E-01
 5.820021629E-01 -4.148728028E-02 -1.248806446E-01
 5.943639278E-01 -3.968527168E-02 -9.305503381E-02
 6.069563627E-01 -3.787064552E-02 -6.884619211E-02
 6.207416058E-01 -3.582167253E-02 -4.209195064E-02
 6.351066828E-01 -3.369698673E-02 -1.097724819E-02
 6.491840482E-01 -3.159616515E-02 1.700948088E-02
 6.624541283E-01 -2.963171341E-02 4.262135426E-02
 6.760838032E-01 -2.764031664E-02 6.229220341E-02
 6.885281205E-01 -2.579524741E-02 8.574198047E-02
 7.010056973E-01 -2.400617115E-02 1.058555561E-01
 7.155618072E-01 -2.188907377E-02 1.260855940E-01
 7.285262942E-01 -2.004567161E-02 1.508578563E-01
 7.403945327E-01 -1.841831207E-02 1.651548663E-01
 7.526942492E-01 -1.668023504E-02 1.849285818E-01
 7.654344440E-01 -1.498009078E-02 2.065382169E-01
 7.785188556E-01 -1.327402145E-02 2.203384215E-01
 7.905270457E-01 -1.175045315E-02 2.352057128E-01
 8.028959632E-01 -1.017265394E-02 2.562962760E-01
 8.141107559E-01 -8.833548985E-03 2.747231524E-01
 8.254381418E-01 -7.515201811E-03 2.890354578E-01
 8.383944035E-01 -6.146434695E-03 2.998440709E-01
 8.502768874E-01 -4.884713329E-03 3.162692129E-01
 8.625164628E-01 -3.723672125E-03 3.341328447E-01
 8.740857244E-01 -2.702397294E-03 3.457753012E-01
 8.859337568E-01 -1.770828152E-03 3.574613962E-01
 8.989059925E-01 -8.924650610E-04 3.673213687E-01
 9.086651802E-01 -3.218588536E-04 3.769720231E-01
 9.187032580E-01 1.498269703E-04 3.802033232E-01
 9.279540777E-01 4.990213201E-04 3.810810201E-01
 9.367031455E-01 7.529783761E-04 3.848739239E-01
 9.484461546E-01 9.836028330E-04 3.818237020E-01
 9.618167281E-01 1.088300603E-03 3.908763188E-01
 9.770538211E-01 1.021346310E-03 3.780239557E-01
 9.897837639E-01 8.027966833E-04 3.994981382E-01
 -5.000000000E-01 -1.000000000E+00 4.969670931E-02
 3.500000000E+00 -1.000000000E+00 1.250309807E-02
 3.500000000E+00 1.000000000E+00 -3.695775661E-04
 -5.000000000E-01 1.000000000E+00 4.932942260E-02
 -5.000000000E-01 5.000000000E-01 9.415431961E-02
 -5.000000000E-01 2.752797990E-12 1.490970412E-01
 -5.000000000E-01 -5.000000000E-01 1.008770688E-01
 -9.421907698E-13 -1.000000000E+00 2.562675782E-02
 5.000000000E-01 -1.000000000E+00 -2.716114991E-02
 1.000000000E+00 -1.000000000E+00 -4.948138269E-03
 1.500000000E+00 -1.000000000E+00 3.124608186E-02
 2.000000000E+00 -1.000000000E+00 2.863703703E-02
 2.500000000E+00 -1.000000000E+00 1.964550597E-02
 3.000000000E+00 -1.000000000E+00 1.437289019E-02
 3.500000000E+00 -5.000000000E-01 1.321577404E-02
 3.500000000E+00 -2.752797990E-12 1.256661185E-02
 3.500000000E+00 5.000000000E-01 6.283220310E-03
 3.000000000E+00 1.000000000E+00 -6.682054170E-03
 2.500000000E+00 1.000000000E+00 -1.606416706E-02
 2.000000000E+00 1.000000000E+00 -3.399346141E-02
 1.500000000E+00 1.000000000E+00 -7.300609388E-02
 1.000000000E+00 1.000000000E+00 -1.307697958E-01
 5.000000000E-01 1.000000000E+00 -8.106903570E-02
 1.733724275E-12 1.000000000E+00 1.223014407E-02
 6.833552589E-01 -4.218834036E-02 7.097374965E-02
 7.871597602E-01 -2.854615852E-02 2.219757247E-01
 9.045813016E-01 -1.022622243E-02 3.576332499E-01
 5.887666232E-01 -5.284495668E-02 -1.097909865E-01
 6.994863123E-01 6.061526040E-02 -4.170683401E-01
 2.769670802E-01 -7.156643068E-02 -5.529453986E-01
 2.855021535E-01 7.035084962E-02 -4.748714983E-01
 9.100212955E-01 3.119128263E-02 -7.081497646E-02
 7.972257889E-01 4.975188141E-02 -2.702947070E-01
 5.926044574E-01 7.041322233E-02 -6.037243235E-01
 4.071313371E-01 7.669155110E-02 -5.982803000E-01
 4.473250339E-01 -6.754596458E-02 -5.425165134E-01
 1.708450297E+00 -5.282589570E-01 3.162691297E-02
 1.766648906E+00 5.421210641E-01 -1.493616312E-02
 3.031188180E+00 2.156781516E-01 5.665041182E-03
 7.500000000E-01 -5.669872981E-01 5.592594253E-03
 3.620310326E-01 -7.222655114E-02 -6.810781229E-01
 3.156277060E-01 -6.883798823E-01 -6.208975829E-02
 1.122397937E-01 -5.175172227E-02 -2.847583845E-01
 1.806144564E-01 -6.692443068E-02 -3.955448625E-01
 7.332065818E-01 5.861767197E-01 -2.099790235E-01
 4.924504980E-01 7.559037615E-02 -6.501771465E-01
 3.331737017E-01 6.150076572E-01 -1.226206736E-01
 1.065012104E-01 5.197896157E-02 -2.388579585E-01
 1.623316269E-01 6.035423257E-02 -3.219020350E-01
 2.220923509E-01 6.538592856E-02 -4.047453174E-01
 2.734816926E+00 -5.327227048E-01 1.225205095E-02
 1.160965116E+00 6.836168728E-01 -6.936959957E-02
 9.917712916E-01 3.223028882E-01 -5.033623711E-02
 1.295060999E+00 -6.389420650E-01 5.090932090E-02
 1.510836040E+00 -2.374312228E-01 3.972498549E-02
 2.227592337E+00 -5.768114686E-01 1.621147298E-02
 2.002226810E+00 -2.154859857E-01 1.274176830E-02
 2.412848416E+00 -1.852654971E-01 8.369280047E-03
 2.184515772E+00 1.579772799E-01 1.022900057E-03
 1.793464072E+00 1.284331182E-01 2.859951989E-03
 -2.709557928E-01 -2.366465346E-01 1.647512655E-01
 -1.459619423E-01 -6.010912154E-01 5.222427542E-02
 1.053568527E-01 -3.757849196E-01 -4.416409774E-02
 -2.743508084E-01 2.320089432E-01 1.605083041E-01
 -1.010080911E-01 6.208304459E-01 3.351688587E-02
 2.807668965E-02 3.290729851E-01 2.463813918E-02
 4.558772613E-02 3.554690026E-02 -8.644466120E-02
 2.191533060E+00 6.007432018E-01 -1.122622842E-02
 2.738092555E+00 6.037732845E-01 -3.206688614E-03
 -2.351936603E-01 -4.576391252E-03 2.180338692E-01
 -1.279754620E-01 1.265098838E-01 2.284128044E-01
 -1.190127837E-01 -1.416472877E-01 2.294129056E-01
 6.334375767E-02 -4.266555344E-02 -1.563206978E-01
 3.170990781E-02 -3.041339972E-02 2.768698557E-02
 -7.988131354E-02 -3.236307130E-01 1.020825222E-01
 5.956578947E-03 -1.811348437E-01 1.200654512E-01
 1.605230849E-01 -2.289758861E-01 -1.774816775E-01
 2.274801682E-01 -6.955827726E-02 -4.702291157E-01
 -3.690126447E-02 -9.765322833E-02 3.320971107E-01
 -1.092839901E-01 -2.391014502E-02 3.573560401E-01
 -7.077458142E-02 5.546188155E-02 3.721004958E-01
 2.601535741E-02 -1.061707496E-01 1.227735832E-01
 3.109343144E+00 -2.613021684E-01 1.125361106E-02
 -4.625353689E-02 -3.633777749E-02 4.989835047E-01
 -5.105869753E-02 1.165157548E-02 5.420914322E-01
 -2.873219214E-02 5.044428311E-02 4.749387877E-01
 2.611670486E-02 2.662774586E-02 2.682637589E-04
 -3.717646646E-02 1.026587308E-01 2.548169505E-01
 3.388333648E-02 1.150955694E-01 8.478542130E-02
 7.480270321E-02 4.288548125E-02 -1.747900679E-01
 -2.143246717E-02 1.849393060E-01 1.440071227E-01
 8.776660362E-02 1.754632167E-01 -6.680301220E-02
 1.701397201E-01 2.994876470E-01 -1.582833893E-01
 3.485984724E-01 7.297764827E-02 -5.462245468E-01
 1.999517789E-01 1.771779668E-01 -2.699338008E-01
 2.799593903E-01 2.650773023E-01 -3.037223180E-01
 2.935219355E-01 1.644044547E-01 -3.928699546E-01
 3.643037150E-01 2.232208439E-01 -4.084805903E-01
 3.662616197E-01 1.459208929E-01 -4.851673764E-01
 4.334088938E-01 1.846393018E-01 -4.930888908E-01
 5.389096456E-01 7.091278935E-02 -6.547894680E-01
 5.648723574E-01 7.141477605E-02 -6.371482313E-01
 4.428954340E-01 2.757899511E-01 -4.039580383E-01
 5.267635520E-01 2.107841057E-01 -4.863370134E-01
 4.508476219E-01 7.838609953E-02 -6.279177666E-01
 5.395029619E-01 3.466030780E-01 -3.658353445E-01
 6.290028663E-01 2.631318603E-01 -3.913985646E-01
 6.514641527E-01 6.535611718E-02 -5.006925646E-01
 6.113399180E-01 1.680036630E-01 -4.875434286E-01
 7.063320908E-01 1.867326819E-01 -3.508507449E-01
 7.459775862E-01 5.581767204E-02 -3.433454385E-01
 7.230870357E-01 5.794620390E-02 -3.782417973E-01
 7.334261901E-01 2.715564400E-01 -2.885198495E-01
 8.159647119E-01 2.022771451E-01 -2.116333921E-01
 8.628274150E-01 4.068863397E-02 -1.739928241E-01
 8.384219840E-01 4.482610674E-02 -2.075737169E-01
 7.662347909E-01 1.347361565E-01 -2.845864373E-01
 8.530587839E-01 1.343905840E-01 -1.638393049E-01
 9.565913079E-01 2.208870246E-02 7.461699917E-02
 5.443662973E-01 1.435797208E-01 -5.638383954E-01
 6.669485182E-01 1.313016453E-01 -4.330356197E-01
 1.464558260E-01 1.279997860E-01 -2.241220041E-01
 2.318304230E-01 1.276333061E-01 -3.559789811E-01
 8.995433623E-01 1.971518861E-01 -9.421616678E-02
 9.445982934E-01 1.226848380E-01 -2.227777259E-02
 8.915296719E-01 8.547341196E-02 -1.058842502E-01
 8.869565228E-01 3.598241122E-02 -1.303880893E-01
 9.944723721E-01 2.044918288E-01 -1.760048941E-04
 1.112454489E+00 2.437820239E-01 2.316628673E-02
 1.036192826E+00 1.190978598E-01 8.184485466E-02
 1.185604499E+00 1.286303402E-01 7.289526276E-02
 1.289143381E+00 2.604365273E-01 2.079827820E-02
 1.340094023E+00 7.317040938E-02 4.260678426E-02
 1.243901868E+00 -8.656127279E-02 8.257373107E-02
 1.106515913E+00 3.720561905E-02 1.317302841E-01
 6.214376846E-01 1.151356924E-01 -5.130949939E-01
 6.301752469E-01 6.836287393E-02 -5.366375554E-01
 9.767857935E-01 7.700692736E-02 7.041653379E-02
 1.033995606E+00 5.248870600E-02 1.548613563E-01
 8.090986282E-01 9.798132475E-02 -2.345873349E-01
 3.173030746E-01 1.184795498E-01 -4.646805339E-01
 3.179199993E-01 7.140556248E-02 -5.132813684E-01
 9.237484812E-02 1.038799646E-01 -1.329948866E-01
 4.173924946E-01 1.283482713E-01 -5.453681650E-01
 4.775771424E-01 1.328192013E-01 -5.713727541E-01
 3.836758911E-01 1.082325818E-01 -5.414193069E-01
 3.723829848E-01 7.214215166E-02 -5.700150907E-01
 1.292282781E-01 8.851215860E-02 -2.332415242E-01
 1.399799205E-01 5.547583310E-02 -2.929663215E-01
 6.898814649E-01 3.985308210E-01 -2.750606765E-01
 5.146806094E-01 1.105802703E-01 -6.069230555E-01
 5.171086805E-01 7.425051714E-02 -6.553093014E-01
 1.426300323E-01 4.543987225E-01 -5.364863018E-02
 9.956134993E-01 4.193409783E-02 1.478121306E-01
 9.834586051E-01 2.003966153E-02 1.710739209E-01
 -6.054852488E-03 -6.015017686E-02 3.565375508E-01
 1.038569491E-02 -1.812595698E-02 3.232925370E-01
 5.517909276E-01 1.105133202E-01 -5.980851143E-01
 1.663735607E-01 9.598802112E-02 -2.889945577E-01
 1.913283565E-01 6.129393995E-02 -3.665750071E-01
 3.497231250E-01 1.055887458E-01 -5.114712614E-01
 4.243457719E-01 4.071385933E-01 -2.995862890E-01
 1.531103245E+00 2.501346162E-01 9.245629502E-03
 1.422366603E+00 4.716361604E-01 -8.430330064E-03
 8.508500826E-01 3.143845116E-01 -1.776613437E-01
 3.896115174E-02 -6.970325724E-02 5.238204610E-02
 4.654180352E-02 -3.714022835E-02 -7.582803887E-02
 6.853574363E-02 -8.830091501E-02 -9.034898497E-02
 7.869804603E-02 -4.860831215E-02 -2.020144336E-01
 8.311559374E-02 -1.419811889E-01 -1.084703029E-01
 1.366701687E-01 -1.073773654E-01 -2.535354331E-01
 1.438376054E-01 -6.087311674E-02 -3.366910859E-01
 3.919344828E-01 8.617985872E-02 -5.733436183E-01
 5.589210338E-01 5.236348894E-01 -2.721363351E-01
 1.649251540E-02 6.385538972E-02 1.642334861E-01
 1.388767083E+00 -9.209501751E-02 5.053585834E-02
 1.274101001E+00 -2.346634190E-01 7.349341155E-02
 1.112823030E+00 -1.993527274E-01 1.344240525E-01
 9.673614932E-01 -1.736943783E-02 3.601537362E-01
 1.176749009E+00 -3.903502642E-01 8.457604789E-02
 9.947675707E-01 -3.305331667E-01 1.194776892E-01
 9.673207369E-01 -1.788030325E-01 1.943587475E-01
 8.463780221E-01 -1.736586384E-02 3.008120321E-01
 8.210448962E-01 -1.748994510E-02 2.742130784E-01
 8.579980711E-01 -2.533760341E-01 1.331336103E-01
 8.691855435E-01 -1.323230912E-02 3.276308567E-01
 8.138455448E-01 -1.524270860E-01 1.685578904E-01
 7.371274237E-01 -3.133780211E-02 1.551836204E-01
 7.597568356E-01 -2.800085751E-02 1.897591096E-01
 7.349114449E-01 -2.102933760E-01 7.557258737E-02
 5.093079011E-01 -6.296653043E-02 -3.263728861E-01
 5.382445720E-01 -6.452434249E-02 -2.372986256E-01
 4.846438079E-01 -6.368072881E-02 -4.087009358E-01
 9.177936377E-01 -1.019983536E-01 2.611096986E-01
 1.048737310E+00 -1.040622855E-01 2.033438291E-01
 7.431971259E-01 -1.201773270E-01 1.153914435E-01
 6.596831849E-01 -1.550813580E-01 2.391852265E-03
 6.286318976E-01 -4.848599724E-02 -2.743649161E-02
 6.493797887E-01 -2.346559946E-01 -2.877689658E-02
 5.668226809E-01 -1.846622006E-01 -1.448835934E-01
 5.514619825E-01 -2.913209027E-01 -1.378004818E-01
 4.614094131E-01 -2.244320915E-01 -3.112171165E-01
 4.961563726E-01 -1.453274896E-01 -3.062737534E-01
 4.108485005E-01 -1.665866156E-01 -4.692053298E-01
 3.774921550E-01 -2.348328490E-01 -3.776097702E-01
 3.922567883E-01 -7.230402056E-02 -6.838298078E-01
 3.181742431E-01 -1.725972674E-01 -4.391383075E-01
 3.144455195E-01 -7.470604940E-02 -6.149105942E-01
 2.629853966E-01 -2.757818424E-01 -2.647863875E-01
 8.000370917E-01 -8.889112225E-02 1.957289421E-01
 6.010059881E-01 -1.276117450E-01 -8.448647186E-02
 9.956525027E-01 -5.756603348E-01 5.513925532E-02
 6.852555572E-01 -9.912697529E-02 5.291654444E-02
 4.516411617E-01 -3.335208551E-01 -2.370389566E-01
 3.623151983E-01 -1.332136148E-01 -5.470629009E-01
 7.240451394E-01 -7.574555426E-02 1.146496945E-01
 7.097662929E-01 -3.368669788E-02 1.134182972E-01
 4.474806426E-01 -1.235785144E-01 -4.630829610E-01
 2.723395057E-01 -4.424648656E-01 -1.434238518E-01
 5.653840814E-01 -4.407759931E-01 -9.499758398E-02
 5.707532779E-02 8.192753497E-02 -5.119322684E-02
 5.797634243E-01 6.907309282E-02 -6.253091614E-01
 5.820384137E-01 8.379804894E-02 -6.047692259E-01
 6.066434799E-01 8.235905061E-02 -5.646967766E-01
 6.038241910E-01 6.750605505E-02 -5.843678199E-01
 6.530889277E-01 9.845952801E-02 -4.734253554E-01
 6.744004464E-01 6.310109424E-02 -4.604059734E-01
 6.902821645E-01 9.627955201E-02 -4.121231233E-01
 7.130205338E-01 1.312298196E-01 -3.590430027E-01
 7.357968338E-01 9.542701836E-02 -3.425375813E-01
 6.287779441E-01 8.485164609E-02 -5.250224023E-01
 6.661817879E-01 7.779036494E-02 -4.657149605E-01
 7.160506928E-01 -3.407756184E-01 1.591733261E-02
 3.623947631E-01 7.171697904E-02 -5.603471517E-01
 3.345670305E-01 7.492945000E-02 -5.296331872E-01
 1.022334039E+00 2.029194543E-02 2.142832445E-01
 1.066182881E+00 -2.900361555E-02 1.765305134E-01
 1.002738952E+00 1.795411104E-02 2.572806426E-01
 6.866437764E-01 5.964167590E-02 -4.420491421E-01
 9.691451602E-01 1.802462904E-02 1.245354919E-01
 9.688474000E-01 3.311466071E-02 1.051590816E-01
 9.469562114E-01 3.822257522E-02 3.812437515E-02
 9.327265354E-01 2.646421353E-02 -1.565662073E-03
 9.256904533E-01 3.945052740E-02 -2.853029711E-02
 9.032710339E-01 4.942936368E-02 -8.660241575E-02
 8.790794825E-01 5.132127944E-02 -1.387342969E-01
 8.572128121E-01 5.945600712E-02 -1.741428112E-01
 8.278889254E-01 6.417910443E-02 -2.149123774E-01
 9.382253503E-01 6.628804858E-02 -4.552715435E-03
 1.033806253E+00 -5.863674992E-03 2.310177333E-01
 1.010855061E+00 -3.280046614E-02 3.035272271E-01
 9.788227925E-01 -8.937090522E-02 2.608159808E-01
 9.385780815E-01 -5.968789879E-02 3.106974298E-01
 9.328667053E-01 -7.039195155E-03 3.720873020E-01
 8.959548920E-01 -5.386725295E-02 3.008888755E-01
 8.581038859E-01 -8.493576516E-02 2.444257050E-01
 8.272787779E-01 -5.497801781E-02 2.475283308E-01
 9.211236968E-01 -3.456444051E-02 3.321584363E-01
 7.952668273E-01 -5.427120440E-02 2.144579269E-01
 9.469075073E-01 -2.888893818E-02 3.462357222E-01
 9.721778333E-01 -4.101517723E-02 3.068522787E-01
 9.163021702E-01 -1.773373996E-02 3.550956325E-01
 9.883067680E-01 -1.635736270E-02 3.805443269E-01
 9.422433374E-01 -1.093131227E-02 3.673023943E-01
 9.552158195E-01 -9.739678511E-03 3.675445728E-01
 7.720009441E-01 -2.509626850E-02 2.059733438E-01
 7.698191935E-01 -4.057773818E-02 1.938725980E-01
 8.067049463E-01 -3.556186105E-02 2.430974310E-01
 7.515198611E-01 -3.978528402E-02 1.699114344E-01
 7.594682183E-01 -6.666311120E-02 1.672156145E-01
 6.405030108E-01 6.432610423E-02 -5.217125258E-01
 9.211492071E-01 2.593804614E-02 -3.831041481E-02
 8.550834621E-01 -4.229346426E-01 7.996366182E-02
 8.124336424E-01 4.906741667E-02 -2.466186976E-01
 8.071386530E-01 6.961378092E-02 -2.520583280E-01
 7.740936882E-01 5.122983604E-02 -3.006297755E-01
 7.752188136E-01 8.596009042E-02 -2.872076894E-01
 7.854106024E-01 6.233193019E-02 -2.820931198E-01
 6.910606840E-01 -6.279947466E-02 7.429334002E-02
 6.574302879E-01 -4.846252766E-02 2.632351908E-02
 6.636334357E-01 -7.182291945E-02 3.072823818E-02
 1.551697938E+00 -8.132182569E-03 2.453432107E-02
 8.982937723E-01 3.151933806E-02 -1.042061233E-01
 4.771406052E-01 7.709261962E-02 -6.424943199E-01
 4.884264276E-01 9.598557927E-02 -6.225496540E-01
 4.664976918E-01 9.305962571E-02 -6.170022880E-01
 4.402503579E-01 9.708286990E-02 -5.951679825E-01
 4.644831117E-01 7.530076052E-02 -6.398484520E-01
 6.452842992E-01 7.713880176E-02 -5.040753076E-01
 4.105630373E-01 9.527988408E-02 -5.779423546E-01
 7.851138185E-01 4.797757334E-02 -2.874479888E-01
 7.603843907E-01 5.460760499E-02 -3.200626220E-01
 7.542676317E-01 7.193534555E-02 -3.237258577E-01
 7.346132535E-01 6.843542674E-02 -3.547866639E-01
 7.130527222E-01 7.365237862E-02 -3.883718114E-01
 8.807954827E-01 -1.222996393E-02 3.403782437E-01
 8.779648132E-01 -3.054083737E-02 3.174841804E-01
 8.958109598E-01 -2.434713847E-02 3.375032194E-01
 8.600299505E-01 -2.714183860E-02 3.046288420E-01
 8.599673765E-01 -4.773706322E-02 2.840329518E-01
 9.440674835E-01 2.210102066E-02 3.434508749E-02
 4.372978304E-01 7.577885151E-02 -6.201668902E-01
 8.246925563E-01 4.445625203E-02 -2.285495678E-01
 5.519291510E-01 7.125477080E-02 -6.481193455E-01
 6.420269047E-01 -4.498755309E-02 5.366945164E-04
 6.410049434E-01 -6.228490118E-02 -6.509251421E-03
 6.167387335E-01 -6.618975557E-02 -5.298035841E-02
 6.375684013E-01 -9.376065409E-02 -1.944351382E-02
 5.917795811E-01 -8.904277743E-02 -1.065203366E-01
 5.645061948E-01 -5.875037549E-02 -1.691104647E-01
 5.502187194E-01 -1.178559461E-01 -1.862246120E-01
 5.098426901E-01 -1.041905508E-01 -2.948906152E-01
 4.770680439E-01 -9.942609653E-02 -3.894462520E-01
 6.627377452E-01 6.218605951E-02 -4.830485485E-01
 4.235615199E-01 7.883361828E-02 -6.073184040E-01
 4.576827158E-01 -6.628299781E-02 -5.010251480E-01
 4.540069393E-01 -8.397320625E-02 -4.941934716E-01
 4.201016431E-01 -6.899153179E-02 -6.424121720E-01
 4.283858860E-01 -9.955390931E-02 -5.649911232E-01
 7.226318960E-01 -3.492718265E-02 1.338215532E-01
 7.345349679E-01 -5.064487274E-02 1.420383316E-01
 6.733426738E-01 -5.396584195E-02 4.993711417E-02
 8.743286662E-01 3.543516995E-02 -1.576783538E-01
 1.039290354E-01 -8.862883955E-02 -1.950186974E-01
 7.482985804E-01 -2.684449815E-02 1.728398973E-01
 8.932054987E-01 -9.893323610E-03 3.512855623E-01
 3.852784345E-01 7.353563044E-02 -5.797122471E-01
 3.960067615E-01 7.279118870E-02 -5.941199117E-01
 5.575669980E-01 -7.728235485E-02 -1.831010632E-01
 6.976888871E-01 -4.064770561E-02 9.333068269E-02
 8.503765958E-01 4.038258068E-02 -1.927532561E-01
 6.164417882E-01 6.939591251E-02 -5.597514138E-01
 6.034235321E-01 -5.179987864E-02 -7.783499273E-02
 6.152984263E-01 -4.803358990E-02 -5.396457497E-02
 -1.894790283E-02 -3.034804076E-02 5.801905192E-01
 -2.161877914E-04 -1.373582365E-02 6.082406956E-01
 -2.250517470E-02 -5.608303550E-03 7.556425928E-01
 -9.235679409E-03 1.495745531E-02 7.107356503E-01
 4.719381886E-01 -7.038560384E-02 -4.424047623E-01
 2.552376190E+00 2.126854266E-01 4.529720283E-04
 1.131101553E+00 -6.597085294E-02 1.298467298E-01
 8.416105280E-01 -3.317986483E-02 2.805349808E-01
 8.101124817E-02 7.314857766E-02 -1.506889137E-01
 5.591007374E-02 5.359841094E-02 -8.528683826E-02
 8.806625730E-02 5.488550680E-02 -1.938790401E-01
 4.973563081E-01 -6.578130155E-02 -3.653886328E-01
 5.043969537E-01 8.733104169E-02 -6.380607464E-01
 -1.206735363E-01 2.649779144E-01 1.371234964E-01
 4.917948576E-01 -8.091984283E-02 -3.684721691E-01
 5.315042717E-01 -8.461846570E-02 -2.468265496E-01
 2.340097209E-01 -1.815508527E-01 -3.424560499E-01
 2.701766929E-01 -1.237710538E-01 -4.555730903E-01
 2.156101103E-01 -1.208265587E-01 -3.808131565E-01
 2.440512462E-01 -9.982650664E-02 -4.547935229E-01
 2.525452624E-01 -7.031136996E-02 -5.112350832E-01
 2.653249047E-01 -6.892609507E-02 -5.360243892E-01
 2.639964904E-01 -8.567724949E-02 -5.049714699E-01
 2.886983355E-01 -9.058373056E-02 -5.445905180E-01
 3.160993516E-01 -1.151796644E-01 -5.409780976E-01
 3.466197223E-01 -1.045556311E-01 -5.974590098E-01
 3.386546315E-01 -7.387549558E-02 -6.502713867E-01
 3.723653511E-01 -1.033087258E-01 -6.163388586E-01
 4.024702238E-01 -1.197057767E-01 -5.682858633E-01
 3.761202749E-01 -8.046184842E-02 -6.690366259E-01
 3.507316561E-01 -7.147274158E-02 -6.724900829E-01
 3.261456536E-01 -8.867277825E-02 -6.053350914E-01
 3.999690197E-01 -9.007155862E-02 -6.322003125E-01
 8.109357221E-01 -2.139820424E-02 2.589292158E-01
 7.996446875E-01 -2.148586618E-02 2.423761224E-01
 9.238691316E-01 -9.005278472E-03 3.693103880E-01
 9.144242083E-01 -7.427454549E-03 3.682118926E-01
 1.684319687E-01 -1.530103493E-01 -2.771595512E-01
 5.959573338E-01 -6.541264528E-02 -9.437321663E-02
 5.790781990E-01 -6.718585807E-02 -1.332130338E-01
 7.111053333E-01 5.721795378E-02 -3.973144000E-01
 3.364835729E-03 -3.852104049E-02 4.072522555E-01
 2.017491240E-02 -2.477083592E-02 1.506616822E-01
 2.223196515E-02 -5.039918702E-02 1.897628393E-01
 4.508412894E-02 -5.035640117E-02 -3.166611428E-02
 6.326681390E-02 -6.100245452E-02 -1.242422634E-01
 9.268370001E-02 -5.155746476E-02 -2.370620818E-01
 1.050298975E-01 -6.450435122E-02 -2.523181495E-01
 1.030514045E-01 -5.015773697E-02 -2.663204014E-01
 3.670665357E-01 8.555358877E-02 -5.495954346E-01
 7.337799873E-01 5.390788378E-02 -3.629191593E-01
 -6.464742613E-04 3.790461700E-02 3.378386397E-01
 6.180785124E-03 2.160689278E-02 2.811190879E-01
 6.853842795E-03 1.367091207E-02 1.385712126E-01
 1.667194807E-02 2.243336274E-02 6.345816983E-02
 1.597799772E-02 3.504474826E-02 1.179773783E-01
 3.284144645E-02 4.106127747E-02 1.778560546E-02
 1.133995380E-02 1.712306486E-02 1.413981178E-01
 5.835179941E-01 1.239930439E-01 -5.572855941E-01
 5.543462494E-01 -6.631419574E-01 -7.014675696E-02
 1.737440206E+00 -1.713095717E-01 1.966510315E-02
 2.407062953E-01 -8.011784150E-02 -4.756290768E-01
 2.167821660E-01 -8.680198881E-02 -4.360028730E-01
 2.040223154E-01 -6.825939126E-02 -4.336936655E-01
 1.926270499E-01 -8.555510695E-02 -3.931727651E-01
 1.669197477E-01 -8.557845326E-02 -3.469652398E-01
 2.158524078E-01 -6.714255597E-02 -4.533493862E-01
 1.927514234E-01 -6.550463217E-02 -4.202514786E-01