TITLE     = "Visualization of the solution"
VARIABLES = "x"
"y"
"Pressure_Coefficient"
ZONE T="Zone"
 STRANDID=0, SOLUTIONTIME=0
 Nodes=727, Elements=1239, ZONETYPE=FEQuadrilateral
 DATAPACKING=POINT
 DT=(DOUBLE DOUBLE DOUBLE )
 1.000146389E+00 5.086959573E-04 3.189070109E-01
 9.880768061E-01 2.905791393E-03 2.963859492E-01
 9.754701853E-01 5.455106497E-03 1.916107742E-01
 9.579479694E-01 8.897340856E-03 1.401929182E-01
 9.426295161E-01 1.200705208E-02 7.855771975E-02
 9.272644520E-01 1.501375902E-02 3.911432474E-02
 9.153540134E-01 1.741561480E-02 -5.738394184E-04
 9.034096599E-01 1.973281056E-02 -3.773603183E-02
 8.916931152E-01 2.204554714E-02 -6.856756198E-02
 8.796569705E-01 2.427969314E-02 -9.048760064E-02
 8.675832748E-01 2.656331845E-02 -1.269632445E-01
 8.551493883E-01 2.886812389E-02 -1.623590234E-01
 8.428674340E-01 3.108495846E-02 -1.866195068E-01
 8.318989277E-01 3.298236802E-02 -2.078570955E-01
 8.204093575E-01 3.497505561E-02 -2.264521126E-01
 8.079335690E-01 3.703567013E-02 -2.473872124E-01
 7.954813242E-01 3.910901025E-02 -2.706222525E-01
 7.828741670E-01 4.111444205E-02 -2.942786497E-01
 7.708613873E-01 4.303772002E-02 -3.204671710E-01
 7.593641281E-01 4.479335248E-02 -3.400509710E-01
 7.464272976E-01 4.673301801E-02 -3.583787766E-01
 7.327705622E-01 4.870374128E-02 -3.815388130E-01
 7.223447561E-01 5.020719394E-02 -4.096492846E-01
 7.115685940E-01 5.170853809E-02 -4.367941404E-01
 7.002664208E-01 5.325378478E-02 -4.623269135E-01
 6.871476173E-01 5.496139079E-02 -4.860774824E-01
 6.746283770E-01 5.653123558E-02 -5.091385817E-01
 6.646662354E-01 5.774177611E-02 -5.272662023E-01
 6.533658504E-01 5.904582515E-02 -5.538034224E-01
 6.419225931E-01 6.034876406E-02 -5.854727274E-01
 6.303277016E-01 6.159014255E-02 -6.094188412E-01
 6.187688112E-01 6.273772568E-02 -6.432984940E-01
 6.086085439E-01 6.374146044E-02 -6.775520654E-01
 5.964275002E-01 6.483653188E-02 -7.018047086E-01
 5.849388242E-01 6.577377021E-02 -7.356361844E-01
 5.718292594E-01 6.679970771E-02 -7.779903448E-01
 5.595709085E-01 6.767248362E-02 -8.070439961E-01
 5.476097465E-01 6.845101714E-02 -8.188548121E-01
 5.368465185E-01 6.908811629E-02 -8.153773033E-01
 5.254107714E-01 6.967327744E-02 -8.112027183E-01
 5.132603645E-01 7.024654001E-02 -8.080908664E-01
 5.021413565E-01 7.069656998E-02 -7.935721755E-01
 4.888206124E-01 7.112906128E-02 -7.778976157E-01
 4.752780497E-01 7.148028910E-02 -7.667775573E-01
 4.614327848E-01 7.177604735E-02 -7.513292580E-01
 4.481406510E-01 7.193299383E-02 -7.336792145E-01
 4.355438054E-01 7.201883197E-02 -7.262721561E-01
 4.233157635E-01 7.205127180E-02 -7.185599290E-01
 4.111528993E-01 7.200585306E-02 -6.993199032E-01
 3.987242579E-01 7.185506821E-02 -6.831216674E-01
 3.866390288E-01 7.167048752E-02 -6.766270713E-01
 3.751137853E-01 7.143500447E-02 -6.665015125E-01
 3.619874418E-01 7.108389586E-02 -6.529760032E-01
 3.491176665E-01 7.065704465E-02 -6.380653916E-01
 3.360588551E-01 7.016303390E-02 -6.198310557E-01
 3.248953819E-01 6.964794546E-02 -6.014448589E-01
 3.120401502E-01 6.901346892E-02 -5.916635097E-01
 2.990191579E-01 6.829366088E-02 -5.790220995E-01
 2.851237059E-01 6.742397696E-02 -5.629347901E-01
 2.729189694E-01 6.656403840E-02 -5.490379206E-01
 2.610242069E-01 6.567458808E-02 -5.372865881E-01
 2.486205399E-01 6.465813518E-02 -5.215813477E-01
 2.362547219E-01 6.355508417E-02 -5.057281763E-01
 2.238288075E-01 6.236411259E-02 -4.907530837E-01
 2.117289603E-01 6.111291796E-02 -4.771208010E-01
 1.996162832E-01 5.977421999E-02 -4.642212224E-01
 1.870195270E-01 5.827307701E-02 -4.469154352E-01
 1.750755459E-01 5.674321577E-02 -4.268652917E-01
 1.636359692E-01 5.518551543E-02 -4.102520506E-01
 1.516705602E-01 5.344521627E-02 -3.890284442E-01
 1.408223212E-01 5.175605044E-02 -3.640931226E-01
 1.290281266E-01 4.979898408E-02 -3.432704868E-01
 1.176767573E-01 4.779114202E-02 -3.216515889E-01
 1.071551517E-01 4.579608515E-02 -2.959739063E-01
 9.722279012E-02 4.378836975E-02 -2.638183196E-01
 8.624400944E-02 4.141172022E-02 -2.196519209E-01
 7.462801784E-02 3.868488967E-02 -1.849017188E-01
 6.458552182E-02 3.612103686E-02 -1.449614425E-01
 5.461680889E-02 3.335559741E-02 -1.007865982E-01
 4.595537856E-02 3.072778881E-02 -6.067714010E-02
 3.852022812E-02 2.827210911E-02 -1.407627684E-02
 3.179115802E-02 2.584466897E-02 3.493945471E-02
 2.617127076E-02 2.362346090E-02 8.853017699E-02
 2.204011008E-02 2.185403369E-02 1.358784805E-01
 1.804945804E-02 1.999566704E-02 1.875109344E-01
 1.483839843E-02 1.837215014E-02 2.510004913E-01
 1.187035907E-02 1.672901399E-02 3.199884689E-01
 9.686237201E-03 1.541117951E-02 3.664446912E-01
 7.799604442E-03 1.417655405E-02 3.992792488E-01
 6.123377010E-03 1.298088580E-02 4.969820197E-01
 3.945122473E-03 1.121636201E-02 6.050113670E-01
 2.051967662E-03 9.399007075E-03 7.369787677E-01
 4.701870785E-04 7.499988656E-03 8.510251656E-01
 -1.068129204E-03 4.768842831E-03 1.059557468E+00
 -1.632053172E-03 2.787371632E-03 1.275807463E+00
 -1.745203394E-03 1.219984260E-03 1.248599827E+00
 -1.552021015E-03 -4.346587812E-04 1.289346865E+00
 -1.064524055E-03 -2.009728923E-03 9.687608774E-01
 -7.281675789E-05 -3.929872531E-03 8.914089118E-01
 1.363781281E-03 -5.866311491E-03 7.586761390E-01
 3.333689878E-03 -7.885247469E-03 5.675557010E-01
 5.134513602E-03 -9.399919771E-03 3.134210223E-01
 7.161015645E-03 -1.088045537E-02 2.606555798E-01
 8.836284280E-03 -1.197272353E-02 1.644453203E-01
 1.093063876E-02 -1.321571786E-02 1.620069048E-01
 1.327315718E-02 -1.448474173E-02 1.141861853E-01
 1.656810381E-02 -1.609868929E-02 5.879069426E-02
 1.945629902E-02 -1.738018915E-02 5.230452744E-03
 2.321491018E-02 -1.891314052E-02 -4.852361988E-02
 2.850523219E-02 -2.085853368E-02 -8.523314519E-02
 3.421315178E-02 -2.275385149E-02 -1.235176079E-01
 4.107767344E-02 -2.480535395E-02 -1.521430773E-01
 4.866806418E-02 -2.686871029E-02 -1.798571473E-01
 5.760429427E-02 -2.906292304E-02 -2.046602609E-01
 6.635342538E-02 -3.103064001E-02 -2.282198339E-01
 7.649692893E-02 -3.313124552E-02 -2.453196709E-01
 8.638288826E-02 -3.502346948E-02 -2.596033199E-01
 9.656994790E-02 -3.684291616E-02 -2.804591015E-01
 1.076285392E-01 -3.867414966E-02 -2.952303947E-01
 1.188360825E-01 -4.041769728E-02 -3.086361070E-01
 1.305787712E-01 -4.213132337E-02 -3.217927310E-01
 1.412789971E-01 -4.359863698E-02 -3.389519903E-01
 1.524891704E-01 -4.504469782E-02 -3.551661276E-01
 1.645590365E-01 -4.651095718E-02 -3.702159861E-01
 1.761466563E-01 -4.782874882E-02 -3.862460580E-01
 1.880804151E-01 -4.911023006E-02 -4.055893454E-01
 1.988080442E-01 -5.017956719E-02 -4.242273619E-01
 2.099917233E-01 -5.122433230E-02 -4.385911948E-01
 2.223502845E-01 -5.231441557E-02 -4.573077121E-01
 2.348770797E-01 -5.330181122E-02 -4.793863952E-01
 2.472665161E-01 -5.420801044E-02 -5.001617131E-01
 2.593936622E-01 -5.498981848E-02 -5.205947118E-01
 2.704522908E-01 -5.562792718E-02 -5.371238144E-01
 2.829325795E-01 -5.626771227E-02 -5.549366135E-01
 2.951774001E-01 -5.679822341E-02 -5.782571424E-01
 3.079249263E-01 -5.722411349E-02 -5.950607647E-01
 3.197784722E-01 -5.753699690E-02 -6.091145895E-01
 3.325532079E-01 -5.774886161E-02 -6.253056769E-01
 3.434941769E-01 -5.783905834E-02 -6.406686815E-01
 3.549993336E-01 -5.782829225E-02 -6.478190943E-01
 3.658228815E-01 -5.772917718E-02 -6.510274314E-01
 3.765924573E-01 -5.753375590E-02 -6.497803416E-01
 3.882018626E-01 -5.720156431E-02 -6.353730400E-01
 4.016531110E-01 -5.671483651E-02 -6.157387673E-01
 4.142867625E-01 -5.609115958E-02 -5.944304059E-01
 4.270398021E-01 -5.534370989E-02 -5.628499636E-01
 4.394952953E-01 -5.448625982E-02 -5.276697436E-01
 4.512792528E-01 -5.357834697E-02 -4.932397919E-01
 4.630419910E-01 -5.254656821E-02 -4.536616690E-01
 4.753104150E-01 -5.139040947E-02 -4.112764677E-01
 4.870702028E-01 -5.020972714E-02 -3.760670618E-01
 4.999074936E-01 -4.878503457E-02 -3.327172922E-01
 5.136796832E-01 -4.721453041E-02 -2.889693148E-01
 5.270508528E-01 -4.558989778E-02 -2.513119903E-01
 5.405073166E-01 -4.391494393E-02 -2.149015502E-01
 5.530784726E-01 -4.229068384E-02 -1.819268827E-01
 5.667856336E-01 -4.046125337E-02 -1.466276111E-01
 5.797320008E-01 -3.870430961E-02 -1.130812288E-01
 5.920722485E-01 -3.702906892E-02 -8.601095019E-02
 6.049274802E-01 -3.525587171E-02 -6.174902020E-02
 6.196007133E-01 -3.319111094E-02 -3.127214737E-02
 6.343709230E-01 -3.112685867E-02 -1.307716104E-03
 6.497481465E-01 -2.897789143E-02 2.531872139E-02
 6.625491381E-01 -2.718492784E-02 4.955841111E-02
 6.759536862E-01 -2.531205863E-02 7.185938949E-02
 6.884523630E-01 -2.357965335E-02 9.431869104E-02
 7.007514238E-01 -2.189555764E-02 1.124447374E-01
 7.153325677E-01 -1.990317553E-02 1.348825471E-01
 7.287551165E-01 -1.813907735E-02 1.537773693E-01
 7.408338189E-01 -1.654800773E-02 1.680054288E-01
 7.542088628E-01 -1.478781365E-02 1.900026375E-01
 7.665756941E-01 -1.323857345E-02 2.093844662E-01
 7.797815204E-01 -1.158627775E-02 2.250179310E-01
 7.917650342E-01 -1.015015133E-02 2.439595353E-01
 8.047797680E-01 -8.636267856E-03 2.586161322E-01
 8.157392740E-01 -7.399248425E-03 2.761631640E-01
 8.274378181E-01 -6.154951639E-03 2.899629736E-01
 8.398461938E-01 -4.842949100E-03 3.085575845E-01
 8.525565267E-01 -3.651059000E-03 3.268664497E-01
 8.647956252E-01 -2.580064815E-03 3.376842095E-01
 8.761320710E-01 -1.685846248E-03 3.503054385E-01
 8.874248266E-01 -8.735650335E-04 3.620928500E-01
 9.001282454E-01 -1.049138518E-04 3.720739216E-01
 9.104956388E-01 3.983109200E-04 3.790418293E-01
 9.209893346E-01 8.096154197E-04 3.802536803E-01
 9.303635359E-01 1.086206641E-03 3.844176761E-01
 9.389677048E-01 1.264192513E-03 3.835021636E-01
 9.501164556E-01 1.389532932E-03 3.838644347E-01
 9.624857306E-01 1.392651931E-03 3.806298998E-01
 9.762893319E-01 1.231626957E-03 3.857326629E-01
 9.884201884E-01 9.423052543E-04 4.049557679E-01
 -5.000000000E-01 -1.000000000E+00 5.388640287E-02
 3.500000000E+00 -1.000000000E+00 1.356110931E-02
 3.500000000E+00 1.000000000E+00 -2.422803534E-03
 -5.000000000E-01 1.000000000E+00 5.037443278E-02
 -5.000000000E-01 5.000000000E-01 1.031505176E-01
 -5.000000000E-01 2.752797990E-12 1.556049356E-01
 -5.000000000E-01 -5.000000000E-01 1.035359282E-01
 -9.421907698E-13 -1.000000000E+00 2.658703537E-02
 5.000000000E-01 -1.000000000E+00 -1.302162343E-02
 1.000000000E+00 -1.000000000E+00 3.747985787E-03
 1.500000000E+00 -1.000000000E+00 3.792192806E-02
 2.000000000E+00 -1.000000000E+00 3.402684242E-02
 2.500000000E+00 -1.000000000E+00 2.273998227E-02
 3.000000000E+00 -1.000000000E+00 1.609613400E-02
 3.500000000E+00 -5.000000000E-01 1.489273093E-02
 3.500000000E+00 -2.752797990E-12 1.462408263E-02
 3.500000000E+00 5.000000000E-01 5.755823163E-03
 3.000000000E+00 1.000000000E+00 -8.374448558E-03
 2.500000000E+00 1.000000000E+00 -1.762156355E-02
 2.000000000E+00 1.000000000E+00 -3.631912878E-02
 1.500000000E+00 1.000000000E+00 -8.479695351E-02
 1.000000000E+00 1.000000000E+00 -1.467369392E-01
 5.000000000E-01 1.000000000E+00 -9.921280625E-02
 1.733724275E-12 1.000000000E+00 1.096428884E-02
 6.836911834E-01 -3.518238306E-02 7.834832151E-02
 7.861148665E-01 -2.515759507E-02 2.266801194E-01
 9.068954872E-01 -9.885470430E-03 3.602494313E-01
 5.887078322E-01 -5.051702343E-02 -9.295293597E-02
 4.935569079E-01 -5.922549535E-02 -3.436747579E-01
 2.761751656E-01 -6.603819854E-02 -5.284623504E-01
 7.101046304E-01 6.174859980E-02 -4.343433495E-01
 2.793437657E-01 8.017379227E-02 -5.405153719E-01
 3.695045283E-01 8.441157759E-02 -6.447528765E-01
 9.112216875E-01 3.230036825E-02 -1.447770858E-02
 8.148555839E-01 4.911721265E-02 -2.300753728E-01
 6.037108879E-01 7.598059799E-02 -6.690963733E-01
 3.723827410E-01 -6.939859674E-02 -6.239852404E-01
 5.071270381E-01 8.077424214E-02 -7.820946080E-01
 1.788824829E+00 -5.298350229E-01 3.082440182E-02
 1.790213353E+00 6.494321876E-01 -2.648234780E-02
 3.031163580E+00 2.156896461E-01 6.302752101E-03
 7.480397069E-01 -6.807210888E-01 -4.669485754E-03
 7.568181680E-01 5.683519265E-01 -2.337805403E-01
 3.517859033E-01 6.033830110E-01 -2.012980724E-01
 1.206815154E-01 6.625467409E-02 -2.922628693E-01
 1.797499473E-01 6.763872493E-02 -4.153788351E-01
 2.734877240E+00 -5.326622431E-01 1.426643002E-02
 1.187117575E+00 5.962329397E-01 -5.492808159E-02
 9.974404041E-01 4.068057672E-01 -6.643954358E-02
 1.239319764E+00 -7.113918374E-01 5.264640317E-02
 1.548901253E+00 -2.954609929E-01 3.587209771E-02
 2.214851534E-01 -5.917861255E-01 -5.606868440E-02
 7.980119458E-02 -4.263884942E-02 -2.324286483E-01
 1.344567885E-01 -5.262503140E-02 -3.150862772E-01
 1.923973576E-01 -6.409716533E-02 -3.968864253E-01
 2.241040958E+00 -5.769916526E-01 1.957013109E-02
 2.026001814E+00 -1.928069839E-01 1.294598668E-02
 2.420323293E+00 -1.842287605E-01 8.891183707E-03
 2.184718598E+00 1.584585717E-01 1.910130448E-03
 1.848232929E+00 8.968302512E-02 5.624341833E-03
 -2.709854733E-01 -2.546342710E-01 1.660279703E-01
 -1.601231932E-01 -5.734067222E-01 6.616385031E-02
 -2.747745113E-01 2.310552884E-01 1.708776072E-01
 -1.276146069E-01 6.435810615E-01 3.966946645E-02
 2.411110894E-02 3.303974405E-01 2.397611298E-02
 4.812276120E-02 4.081090380E-02 -4.397633971E-02
 2.240783653E+00 5.549540657E-01 -1.101726346E-02
 2.746289812E+00 5.961466501E-01 -3.187025607E-03
 -2.508689753E-01 -8.710562422E-04 2.250989251E-01
 -1.420114815E-01 -1.288939736E-01 2.496511899E-01
 3.269525001E-02 -3.111943086E-02 -5.633904970E-02
 3.229743018E-02 -3.714507779E-01 2.594891931E-02
 2.854821754E-01 -3.247469924E-01 -2.098845611E-01
 4.353736661E-01 -6.966724881E-02 -5.124819718E-01
 -1.463471066E-01 1.181932363E-01 2.459993453E-01
 -1.230881379E-01 -4.137684502E-03 3.353595062E-01
 -5.682078170E-02 -6.674300603E-02 3.713407478E-01
 -5.013814022E-02 -1.501532169E-01 2.083016404E-01
 2.128975567E-03 -9.379686354E-02 2.019293946E-01
 2.697898790E-02 -1.995668770E-01 4.502406039E-02
 1.764963015E-02 -1.995187933E-02 6.090439048E-02
 6.532943292E-02 -1.070320322E-01 -6.285430737E-02
 1.243973456E-01 -1.508889898E-01 -1.593803425E-01
 -1.531317862E-02 -5.265344348E-02 4.151010761E-01
 -5.482478822E-02 -1.231788996E-02 5.341574573E-01
 1.158589519E-01 -1.000901417E-01 -2.254685174E-01
 1.091530324E-01 -5.137900368E-02 -2.769444631E-01
 1.731125326E-01 -1.213596993E-01 -2.972493222E-01
 2.344797247E-01 -6.447265212E-02 -4.628328184E-01
 1.888296973E-01 -1.829278230E-01 -2.574745772E-01
 2.312477623E-01 -1.406822659E-01 -3.619913206E-01
 3.271189446E-01 -6.651776995E-02 -6.016578203E-01
 2.997515764E-01 -6.752923616E-02 -5.640672071E-01
 1.248751545E-01 -2.582787853E-01 -1.062905046E-01
 2.166824398E-01 -1.025333538E-01 -3.836062606E-01
 2.164214518E-01 -6.418083408E-02 -4.336473009E-01
 2.552921960E-01 -1.087167804E-01 -4.325310866E-01
 2.873368267E-01 -1.413481720E-01 -4.293560290E-01
 2.561788405E-01 -2.073781724E-01 -3.178684103E-01
 3.365996622E-01 -2.087851571E-01 -3.685786461E-01
 4.039767055E-01 -2.713254852E-01 -2.813892284E-01
 4.451183022E-01 -1.958283337E-01 -3.213739101E-01
 5.073947365E-01 -2.844997380E-01 -1.822407297E-01
 5.623126065E-01 -1.974606023E-01 -1.288020221E-01
 5.499028880E-01 -5.544637750E-02 -1.868120785E-01
 5.241589993E-01 -5.951906358E-02 -2.516969655E-01
 6.246301925E-01 -2.477094813E-01 -4.656715877E-02
 6.653833507E-01 -1.848463261E-01 8.966119998E-03
 7.350563226E-01 -2.765852383E-02 1.564914080E-01
 6.479344471E-01 -4.427432773E-02 1.962837063E-02
 7.325318535E-01 -2.627443469E-01 6.691471738E-02
 7.727266994E-01 -1.656680785E-01 1.312076051E-01
 8.598863467E-01 -1.581363182E-02 3.196355310E-01
 8.370419357E-01 -1.776322784E-02 2.936530585E-01
 8.102369266E-01 -1.731649950E-02 2.611136123E-01
 8.827765400E-01 -1.067020622E-02 3.449528125E-01
 8.355439129E-01 -2.353957295E-01 1.422278836E-01
 9.682557472E-01 -9.513212741E-03 3.726247166E-01
 8.763632591E-01 -1.487597422E-01 2.098387636E-01
 9.485075091E-01 -2.472430540E-01 1.567614280E-01
 1.019800506E+00 -1.553137059E-01 1.927970946E-01
 1.064060152E+00 -2.393178072E-01 1.384234190E-01
 1.118336296E+00 -1.454390866E-01 1.471125530E-01
 1.009738545E+00 -3.868274629E-01 1.122345000E-01
 8.180079890E-01 -1.051383434E-01 1.986757335E-01
 9.396693090E-01 -8.038109945E-02 2.822279221E-01
 9.353367384E-01 -7.074912901E-03 3.727261133E-01
 1.197848436E+00 -2.323341535E-01 1.046462387E-01
 1.245089659E+00 -1.085566107E-01 8.672566897E-02
 1.180562491E+00 1.608114437E-02 9.969091402E-02
 1.333161934E+00 2.923155031E-02 5.075605729E-02
 1.210131668E+00 1.651527740E-01 5.817074811E-02
 7.118565386E-01 -9.915348933E-02 9.808967621E-02
 3.440136515E-01 -1.358014254E-01 -4.815959715E-01
 1.050506871E+00 -8.841909825E-02 2.046775149E-01
 4.392857268E-01 -4.147510233E-01 -1.579294902E-01
 5.922271527E-01 -1.316533589E-01 -8.732242669E-02
 1.396442835E+00 1.869353382E-01 2.125390442E-02
 4.861069180E-01 -1.388740894E-01 -3.028421059E-01
 1.096056735E+00 7.292001018E-03 1.566981579E-01
 1.057559836E+00 1.634761674E-01 6.480029477E-02
 9.690873585E-01 1.928253357E-02 1.612017815E-01
 5.071778384E-01 -6.248192543E-01 -8.245082878E-02
 3.171790800E-01 -1.064084872E-01 -5.151422181E-01
 3.489873412E-01 -9.707945626E-02 -5.578644940E-01
 3.778389559E-01 -1.059514720E-01 -5.408124319E-01
 4.071332435E-01 -6.627044303E-02 -5.852594124E-01
 3.491379271E-01 -7.314344213E-02 -6.104648820E-01
 2.858472090E-01 -9.993296351E-02 -4.893706872E-01
 3.109376900E+00 -2.612491341E-01 1.290756674E-02
 1.535466866E-01 -8.385276630E-02 -2.953017530E-01
 1.662968044E-01 -6.362203499E-02 -3.521250167E-01
 3.905972498E-01 -1.516629261E-01 -4.404444851E-01
 4.365300986E-01 -1.293410302E-01 -4.177979621E-01
 4.674915472E-01 -9.956454843E-02 -3.805886875E-01
 4.582268016E-01 -6.536803487E-02 -4.510451730E-01
 5.097905131E-01 -1.025566290E-01 -2.649597748E-01
 3.742253805E-02 -7.341304157E-02 3.751230713E-02
 5.907642950E-02 -3.865232429E-02 -1.721784913E-01
 1.569981505E-02 -5.131118002E-02 1.674298746E-01
 -2.580359141E-02 -2.483102836E-02 5.586816155E-01
 4.400486819E-03 -1.204215431E-02 4.490040923E-01
 3.953384204E-01 -6.831479385E-02 -6.016195610E-01
 4.030790277E-01 -8.349848176E-02 -5.549228978E-01
 3.827843916E-01 -8.087322802E-02 -5.924467027E-01
 4.310888049E-01 -9.304239239E-02 -4.844129995E-01
 5.064379900E-01 -6.151369553E-02 -3.002743959E-01
 2.647802351E-01 -6.543900969E-02 -5.132222184E-01
 2.871918413E-01 -7.785803925E-02 -5.284810117E-01
 3.135807343E-01 -6.764602708E-02 -5.827136751E-01
 3.058817963E-01 -8.355415807E-02 -5.430820416E-01
 4.822888897E-01 -6.174211132E-02 -3.787198459E-01
 4.919156899E-01 -7.687604072E-02 -3.314938075E-01
 4.700396091E-01 -7.546200997E-02 -4.014455104E-01
 3.379419717E-01 -6.770676897E-02 -6.121820034E-01
 3.305765218E-01 -8.134652710E-02 -5.760288024E-01
 4.196668845E-01 -7.065223924E-02 -5.516390326E-01
 4.514005332E-01 -7.791023699E-02 -4.549833587E-01
 1.316306229E+00 3.674547882E-01 1.386881250E-03
 -4.031172164E-03 -3.323423936E-02 4.780282083E-01
 3.830599746E-01 -6.666438776E-02 -6.219156320E-01
 4.697815413E-01 -6.130182677E-02 -4.181358464E-01
 5.371372492E-01 -5.503379433E-02 -2.200304002E-01
 5.425471455E-01 -6.861164649E-02 -2.020330998E-01
 5.618084350E-01 -6.423218726E-02 -1.547785530E-01
 5.552433944E-01 -9.145871018E-02 -1.626725277E-01
 5.341506314E-01 -1.422021283E-01 -1.904029163E-01
 5.970729668E-01 -8.733889618E-02 -7.551013045E-02
 6.130332689E-01 -4.778766899E-02 -4.572659107E-02
 6.405524508E-01 -9.739762033E-02 -9.162548859E-03
 6.294752573E-01 -4.579171884E-02 -1.292946075E-02
 6.222276893E-01 -6.861438085E-02 -3.191116248E-02
 6.011506725E-01 -6.185770255E-02 -6.718767033E-02
 6.485003531E-01 -6.573272523E-02 1.490033113E-02
 6.671846363E-01 -5.039824089E-02 5.009148428E-02
 6.776385523E-01 -7.747067154E-02 5.825356410E-02
 1.563655939E+00 6.433313105E-02 1.930347207E-02
 6.960603631E-01 -3.338890461E-02 1.033764660E-01
 6.914880096E-01 -5.037571897E-02 8.642110243E-02
 7.126737056E-01 -4.618418299E-02 1.202165369E-01
 7.059493612E-01 -6.920001624E-02 1.008138239E-01
 7.369894814E-01 -6.870928317E-02 1.406863487E-01
 7.627201180E-01 -2.806991356E-02 1.942026141E-01
 7.559052364E-01 -1.116479276E-01 1.391525393E-01
 7.790499062E-01 -6.696776875E-02 1.917112532E-01
 8.191704228E-01 -5.821290060E-02 2.409424358E-01
 8.578359300E-01 -8.145739326E-02 2.577265097E-01
 8.527594000E-01 -4.762675272E-02 2.793111920E-01
 8.861789132E-01 -4.794038202E-02 3.002849514E-01
 7.095717584E-01 -3.047561867E-02 1.211905084E-01
 5.999783004E-01 -4.648946712E-02 -7.036194373E-02
 5.737011512E-01 -5.224420229E-02 -1.273881220E-01
 5.836303157E-01 -6.676071826E-02 -1.090711770E-01
 8.920115237E-02 -7.894655506E-02 -1.834447558E-01
 3.613775391E-01 -6.784564386E-02 -6.275060789E-01
 6.584562428E-02 -6.961161163E-02 -1.289293721E-01
 4.593406626E-02 -5.184566084E-02 -7.268296227E-02
 2.177875845E-02 -3.384341801E-02 6.107784760E-02
 2.495531560E-02 -2.477759671E-02 -1.389322901E-02
 9.226192271E-02 -5.760704582E-02 -2.230719121E-01
 1.101662122E-01 -6.849444281E-02 -2.431060786E-01
 6.549617904E-01 -4.030810612E-01 -3.697231211E-02
 9.914206591E-02 -4.595476088E-02 -2.668895964E-01
 1.484239771E+00 5.902340303E-01 -2.957321905E-02
 4.471551098E-01 -6.420202549E-02 -4.879260277E-01
 2.563254153E+00 2.040787603E-01 9.814301819E-04
 1.122712670E+00 -5.687692004E-02 1.405223993E-01
 1.047168519E+00 -2.310952096E-02 2.164840902E-01
 1.004272163E+00 -5.100973215E-02 2.796709591E-01
 1.042527826E+00 3.059077940E-02 1.936542795E-01
 1.090284904E+00 7.213022865E-02 1.327342386E-01
 7.561546629E-01 -4.618463231E-02 1.741169715E-01
 7.955078488E-01 -4.404733021E-02 2.240786333E-01
 3.654181493E-01 -8.238197317E-02 -5.962350888E-01
 1.824468786E-01 -8.439620004E-02 -3.513425827E-01
 1.508856040E-01 -6.593027039E-02 -3.232907115E-01
 8.940165299E-01 -1.203050644E-02 3.507336233E-01
 9.006511849E-01 -2.621761764E-02 3.386134871E-01
 9.189508908E-01 -2.034510913E-02 3.502103851E-01
 9.134012922E-01 -4.908699125E-02 3.136651220E-01
 9.380502819E-01 -3.747186836E-02 3.302684529E-01
 9.682518102E-01 -6.055937436E-02 2.969646835E-01
 9.676605883E-01 -3.618397045E-02 3.323596142E-01
 9.902491888E-01 -2.730918323E-02 3.283771991E-01
 9.555698872E-01 -2.040655545E-02 3.485537595E-01
 1.010512482E+00 -1.823629303E-02 3.098459226E-01
 9.937796074E-01 -1.289567511E-02 4.048962519E-01
 8.441053401E-01 -4.054291577E-01 9.301755467E-02
 1.006627930E+00 -6.020860315E-01 6.054510646E-02
 5.216822887E-01 -7.675596425E-02 -2.520012712E-01
 1.334213486E-01 -6.808608473E-02 -2.839011743E-01
 9.820834584E-01 -1.179981912E-02 3.503688590E-01
 8.488929145E-01 -1.392364317E-02 3.108726017E-01
 7.756463919E-01 -3.884802406E-02 2.040404924E-01
 7.225087744E-01 -3.140014095E-02 1.387011692E-01
 1.463903362E+00 -1.163443348E-01 4.137265913E-02
 1.743747712E+00 -1.502454359E-01 2.162662652E-02
 8.684270086E-01 -3.103134156E-02 3.117216948E-01
 8.838470419E-01 -2.335780483E-02 3.308757653E-01
 7.994660222E-01 -2.325571183E-02 2.449852862E-01
 6.596134428E-01 -3.754278048E-02 4.131415464E-02
 7.471061601E-01 -2.988152640E-02 1.725375418E-01
 8.128375318E-01 -3.265462677E-02 2.510481408E-01
 8.333265812E-01 -3.336757103E-02 2.723679894E-01
 7.741677182E-01 -2.338007678E-02 2.119938644E-01
 1.358357176E+00 -2.687316999E-01 6.211578343E-02
 5.610553161E-01 -5.093494085E-02 -1.584898120E-01
 6.758325034E-01 -1.270785399E-01 4.018954631E-02
 6.697984174E-01 -3.512407818E-02 5.854156153E-02
 9.011051624E-01 -8.958616353E-02 2.685366969E-01
 -7.793809072E-03 -1.520798220E-02 7.347504477E-01
 -9.445743648E-04 -6.077717230E-03 8.499640091E-01
 -2.254618835E-02 -5.848808188E-03 7.538870781E-01
 -8.034381575E-03 -3.899539136E-03 1.001175613E+00
 -3.997499246E-03 5.841902934E-03 1.074737776E+00
 -3.033615338E-03 2.309612767E-04 1.150904549E+00
 2.083710189E-01 -2.664448825E-01 -2.041279189E-01
 8.726441056E-01 -1.418981592E-02 3.312059327E-01
 4.497865125E-02 -3.575310602E-02 -1.159639044E-01
 9.622201296E-01 5.557926012E-01 -1.263499691E-01
 7.390085341E-01 3.469764512E-01 -2.898674623E-01
 8.657542862E-01 4.394188689E-01 -1.767588756E-01
 8.788200899E-01 2.079605221E-01 -1.234614229E-01
 7.552843767E-01 5.758460460E-02 -3.381894452E-01
 7.803818747E-01 5.231530256E-02 -2.967923900E-01
 8.644353163E-01 3.935814068E-02 -1.339141684E-01
 5.803022423E-01 4.407912918E-01 -3.298613572E-01
 4.411251824E-01 8.542706786E-02 -7.120295804E-01
 5.518806233E-01 2.631938095E-01 -5.193392927E-01
 5.534564420E-01 8.020169539E-02 -7.952048280E-01
 5.519989792E-01 6.781394426E-01 -2.363375964E-01
 3.015980386E-01 3.845176982E-01 -2.866995885E-01
 1.571247705E-01 4.965935707E-01 -7.626161034E-02
 4.593270594E-01 3.600571861E-01 -4.099082194E-01
 4.078543385E-01 2.248284130E-01 -5.176307770E-01
 2.765765528E-01 2.423667314E-01 -3.594394711E-01
 2.277620388E-01 7.589232563E-02 -4.777883444E-01
 2.080258840E-01 7.330363290E-02 -4.552979923E-01
 5.065553222E-01 1.802846549E-01 -6.259128677E-01
 3.221730820E-02 -4.077455915E-02 -1.306705646E-03
 1.040602244E-02 -3.146616795E-02 2.378300130E-01
 1.062552896E-02 -1.612490374E-02 1.947880892E-01
 1.256679378E-03 -2.201138364E-02 4.362964811E-01
 1.717830082E-02 -2.648658512E-02 1.207778675E-01
 1.100127089E-02 -2.177817485E-02 2.435592219E-01
 1.382353820E-02 -1.768767779E-02 1.458773169E-01
 3.133974596E+00 6.339745962E-01 -1.521117772E-03
 8.227700112E-01 -1.910935420E-02 2.746166386E-01
 9.563036573E-01 -8.777799047E-03 3.700646137E-01
 9.456746539E-01 -8.806453711E-03 3.710868660E-01
 9.362871091E-01 -1.736426691E-02 3.599850324E-01
 9.263249427E-01 -8.236166468E-03 3.688550007E-01
 1.691672018E-01 -3.728192030E-01 -1.052558231E-01
 1.623266225E+00 3.295683880E-01 -5.179935548E-03
 3.133974596E+00 -6.339745962E-01 1.304744920E-02
 -9.872962374E-02 -2.876638533E-01 1.222918300E-01
 1.227687059E-01 -5.385559721E-02 -2.945907391E-01
 1.199224648E+00 -4.210728823E-01 8.072420887E-02
 1.963772520E+00 3.589062153E-01 -1.034362543E-02
 1.808296076E-01 -5.854528977E-02 -3.795951254E-01
 2.063662621E-01 -7.558836052E-02 -4.002592755E-01
 7.350815178E-01 -4.166971494E-02 1.500887425E-01
 1.015681274E+00 9.367024547E-03 2.626381618E-01
 3.940729799E-01 -2.069004755E-01 -3.695000703E-01
 2.047969678E-01 -6.105405188E-02 -4.183810736E-01
 9.167312588E-01 -7.451763937E-03 3.691959667E-01
 1.560269151E-01 -5.511184929E-02 -3.464488520E-01
 1.459039602E-01 -5.445128608E-02 -3.290143032E-01
 -6.112101909E-02 5.638185284E-02 4.148254519E-01
 -3.867868699E-02 1.459694127E-01 2.182411704E-01
 2.214588359E-02 2.760717502E-02 1.658803955E-01
 -1.043003566E-02 8.401581563E-02 3.231363041E-01
 3.076026800E-03 1.409659005E-02 6.641412519E-01
 3.909771826E-02 1.322312449E-01 7.599499447E-02
 9.380270348E-02 5.561688731E-02 -2.223132583E-01
 3.716591607E-02 8.795781056E-02 9.923809499E-02
 8.745364750E-02 1.044623790E-01 -1.241048293E-01
 1.036145152E-01 1.614625940E-01 -1.346663765E-01
 1.430466965E-01 1.142470995E-01 -2.779570328E-01
 1.447835802E-01 6.199548397E-02 -3.563848221E-01
 1.692007294E-01 1.725752015E-01 -2.711448260E-01
 1.955392226E-01 1.238623234E-01 -3.660764815E-01
 1.262595850E-01 2.411944252E-01 -1.165660212E-01
 1.454126811E-02 6.089043816E-02 2.355374107E-01
 1.085498284E-02 1.919503589E-02 3.469248544E-01
 -2.614010484E-02 4.414639971E-02 5.118522280E-01
 2.296001825E-01 1.765926922E-01 -3.639553306E-01
 2.464467957E-01 1.221118936E-01 -4.419352491E-01
 3.166959874E-01 7.884161891E-02 -5.819719222E-01
 3.421945496E-01 8.081750396E-02 -6.127726297E-01
 2.552802088E-01 7.947392280E-02 -5.101979944E-01
 2.876770196E-01 1.614676055E-01 -4.494560593E-01
 2.895708728E-01 1.181623871E-01 -5.056979540E-01
 3.314770939E-01 1.380206727E-01 -5.322588437E-01
 3.384215491E-01 2.043657722E-01 -4.711209956E-01
 1.929352104E-01 3.262439417E-01 -1.804795797E-01
 3.049103449E-01 7.985657804E-02 -5.683188677E-01
 3.115793066E-01 9.497548065E-02 -5.571965529E-01
 2.910504299E-01 9.140766397E-02 -5.389466706E-01
 2.675679031E-01 9.516681566E-02 -5.056879866E-01
 3.429519360E-01 1.031496608E-01 -5.881628999E-01
 3.665465582E-01 1.294575807E-01 -5.876337671E-01
 4.030560850E-01 8.691994775E-02 -6.705163839E-01
 1.178766258E-01 8.904904510E-02 -2.535467850E-01
 2.201229332E-01 1.044302608E-01 -4.280878798E-01
 -1.404933772E-03 4.079015820E-02 4.498305956E-01
 6.652921014E-02 7.489839126E-02 -6.779361495E-02
 6.738848824E-02 4.609187236E-02 -1.351123272E-01
 -1.144666607E-01 2.649978589E-01 1.469922184E-01
 -1.629110677E-02 2.390653608E-02 6.594864014E-01
 1.046025041E-03 2.785018850E-02 5.671911509E-01
 -4.717527814E-03 1.553026470E-02 7.921582848E-01
 6.702958992E-03 2.074809672E-02 4.557255434E-01
 -3.835208221E-04 9.819360034E-03 8.233396117E-01
 1.737288985E-01 9.921563414E-02 -3.623953554E-01
 2.916662681E-01 7.789607892E-02 -5.585875458E-01
 1.397744819E-02 3.745880901E-02 2.811712292E-01
 3.130286802E-02 3.348735710E-02 7.904805814E-02
 1.285352320E-02 2.796887345E-02 3.071899210E-01
 1.989144520E-01 2.317945984E-01 -2.692465069E-01
 2.005738732E-01 9.444504147E-02 -4.093933263E-01
 1.630491635E-01 8.159523696E-02 -3.634602213E-01
 1.399929300E-01 7.706369203E-02 -3.189068574E-01
 9.751646432E-02 7.280781185E-02 -2.036437347E-01
 3.666388504E-01 1.029418987E-01 -6.192935326E-01
 3.966577506E-01 1.102781094E-01 -6.353238420E-01
 4.020582879E-01 1.493199192E-01 -5.899907450E-01
 4.326503074E-01 1.250243073E-01 -6.523624455E-01
 4.591116721E-01 1.705751422E-01 -6.154287044E-01
 4.715927886E-01 1.268720188E-01 -6.842196674E-01
 5.321454443E-01 1.325247939E-01 -7.072825163E-01
 4.814323256E-01 8.426471747E-02 -7.515495465E-01
 5.598063701E-01 1.737768086E-01 -6.369796712E-01
 6.591675472E-01 6.986571124E-02 -5.307825670E-01
 6.381822252E-01 7.194556352E-02 -5.806146405E-01
 5.901916721E-01 1.283766616E-01 -6.492363957E-01
 6.114000207E-01 1.884691596E-01 -5.435623331E-01
 5.808644338E-01 7.979444519E-02 -7.329144141E-01
 6.392956461E-01 1.337721929E-01 -5.299140020E-01
 6.747082906E-01 1.735645921E-01 -4.318675316E-01
 7.054674278E-01 1.258497514E-01 -4.045681286E-01