TITLE     = "Visualization of the solution"
VARIABLES = "x"
"y"
"Pressure_Coefficient"
ZONE T="Zone"
 STRANDID=0, SOLUTIONTIME=0
 Nodes=703, Elements=1191, ZONETYPE=FEQuadrilateral
 DATAPACKING=POINT
 DT=(DOUBLE DOUBLE DOUBLE )
 1.000059247E+00 5.180489388E-04 3.449048384E-01
 9.891852140E-01 2.881885739E-03 3.155928027E-01
 9.769437909E-01 5.528221838E-03 2.231184377E-01
 9.603733420E-01 9.176323190E-03 1.552984254E-01
 9.456702471E-01 1.234903280E-02 9.179023540E-02
 9.311435223E-01 1.551454049E-02 4.505301048E-02
 9.197586775E-01 1.794871874E-02 2.936828180E-03
 9.091041088E-01 2.022707462E-02 -4.446068491E-02
 8.979388475E-01 2.260368690E-02 -8.580568255E-02
 8.867443800E-01 2.484792098E-02 -1.135450496E-01
 8.750415444E-01 2.714413218E-02 -1.498665509E-01
 8.627659678E-01 2.953063138E-02 -1.799557022E-01
 8.505042791E-01 3.177970275E-02 -2.041474195E-01
 8.399424553E-01 3.370149806E-02 -2.267695524E-01
 8.281246424E-01 3.577425331E-02 -2.449381812E-01
 8.156954050E-01 3.790845722E-02 -2.671475851E-01
 8.030544519E-01 4.003622383E-02 -2.912869633E-01
 7.898949981E-01 4.218869284E-02 -3.190167972E-01
 7.774112821E-01 4.420296848E-02 -3.411361721E-01
 7.654678822E-01 4.604626819E-02 -3.582753291E-01
 7.517385483E-01 4.812162369E-02 -3.865868996E-01
 7.380325198E-01 5.016522482E-02 -4.143550223E-01
 7.269508243E-01 5.174348131E-02 -4.362173988E-01
 7.154164314E-01 5.334744602E-02 -4.588018976E-01
 7.032209039E-01 5.498546362E-02 -4.833723958E-01
 6.895897388E-01 5.674796924E-02 -5.135709109E-01
 6.765880585E-01 5.837507173E-02 -5.479418843E-01
 6.657512188E-01 5.967325717E-02 -5.839569597E-01
 6.537557244E-01 6.106408313E-02 -6.200439626E-01
 6.413883567E-01 6.241041422E-02 -6.560824789E-01
 6.293033957E-01 6.365991384E-02 -6.978887923E-01
 6.172630191E-01 6.485249102E-02 -7.370260422E-01
 6.065405011E-01 6.585416943E-02 -7.615768054E-01
 5.941430926E-01 6.690704077E-02 -7.855218816E-01
 5.827234387E-01 6.784001738E-02 -8.065334826E-01
 5.694233775E-01 6.882986426E-02 -8.154725444E-01
 5.572510958E-01 6.963856518E-02 -8.184705629E-01
 5.453918576E-01 7.036427408E-02 -8.188880855E-01
 5.345152617E-01 7.096151263E-02 -8.137661777E-01
 5.230257511E-01 7.151857764E-02 -8.068842124E-01
 5.111972094E-01 7.202330232E-02 -7.962189989E-01
 5.000485778E-01 7.242331654E-02 -7.783288322E-01
 4.870989025E-01 7.280329615E-02 -7.624355369E-01
 4.737573862E-01 7.311438769E-02 -7.515518277E-01
 4.607743025E-01 7.335038483E-02 -7.363313254E-01
 4.481345713E-01 7.347773015E-02 -7.160131099E-01
 4.359201491E-01 7.352333516E-02 -7.028809202E-01
 4.238823950E-01 7.353641093E-02 -6.908442497E-01
 4.117961228E-01 7.345303148E-02 -6.737992538E-01
 3.996350765E-01 7.330465317E-02 -6.633669135E-01
 3.876338601E-01 7.311658561E-02 -6.526519224E-01
 3.756149411E-01 7.284369320E-02 -6.365560571E-01
 3.629328609E-01 7.248187810E-02 -6.259987867E-01
 3.502248824E-01 7.207082957E-02 -6.175224136E-01
 3.371761739E-01 7.156718522E-02 -6.040133094E-01
 3.259760141E-01 7.104257494E-02 -5.930418017E-01
 3.134314418E-01 7.043401152E-02 -5.811976413E-01
 3.004351556E-01 6.968086958E-02 -5.654731441E-01
 2.868323922E-01 6.882770360E-02 -5.576436730E-01
 2.750462294E-01 6.802007556E-02 -5.465502856E-01
 2.634239197E-01 6.713957340E-02 -5.352474203E-01
 2.510557771E-01 6.613814831E-02 -5.249277766E-01
 2.389117628E-01 6.506057829E-02 -5.115332403E-01
 2.265208662E-01 6.387691945E-02 -4.988942435E-01
 2.143967599E-01 6.262864172E-02 -4.871193777E-01
 2.018839717E-01 6.124723330E-02 -4.713234890E-01
 1.893167943E-01 5.974996462E-02 -4.554008488E-01
 1.773324311E-01 5.821229517E-02 -4.372844353E-01
 1.655918956E-01 5.661144108E-02 -4.187158812E-01
 1.535189152E-01 5.484647304E-02 -3.975463782E-01
 1.424018890E-01 5.311237648E-02 -3.751982813E-01
 1.302973628E-01 5.110502616E-02 -3.503302550E-01
 1.189966127E-01 4.907938465E-02 -3.203404564E-01
 1.081801802E-01 4.700497538E-02 -2.916705847E-01
 9.777226299E-02 4.487119615E-02 -2.608435666E-01
 8.677556366E-02 4.245916009E-02 -2.264169694E-01
 7.536526024E-02 3.973076493E-02 -1.854484527E-01
 6.536580622E-02 3.714439273E-02 -1.372118979E-01
 5.549579859E-02 3.436632454E-02 -8.890390144E-02
 4.700014368E-02 3.175354749E-02 -4.186706322E-02
 3.967582434E-02 2.930610999E-02 1.813496970E-02
 3.304399550E-02 2.688940242E-02 7.169131577E-02
 2.740175463E-02 2.465449646E-02 1.218208094E-01
 2.327935398E-02 2.287646383E-02 1.637444578E-01
 1.930564828E-02 2.103675343E-02 2.076849627E-01
 1.588805951E-02 1.930949464E-02 2.701785831E-01
 1.274304464E-02 1.757285744E-02 3.267056442E-01
 1.043713372E-02 1.618424803E-02 3.638189602E-01
 8.463584818E-03 1.488850173E-02 3.950834609E-01
 6.653747987E-03 1.359452028E-02 4.544480204E-01
 4.302185960E-03 1.168045867E-02 5.068491819E-01
 2.313083736E-03 9.737938643E-03 6.594862887E-01
 7.378328010E-04 7.802030072E-03 7.026961867E-01
 -8.328041877E-04 4.905111156E-03 8.957694813E-01
 -1.372809522E-03 2.808920108E-03 1.053451766E+00
 -1.439352753E-03 1.123844646E-03 7.938921450E-01
 -1.178257866E-03 -5.711290869E-04 1.202381396E+00
 -6.556995213E-04 -2.115906682E-03 8.307173891E-01
 3.775930381E-04 -4.048774485E-03 7.622878252E-01
 1.839375705E-03 -5.992278922E-03 6.791334489E-01
 3.769213334E-03 -7.980165072E-03 5.615909453E-01
 5.546478555E-03 -9.499275126E-03 5.328874193E-01
 7.573622279E-03 -1.100339182E-02 2.281150579E-01
 9.303975850E-03 -1.215413865E-02 2.115080822E-01
 1.146506052E-02 -1.345853135E-02 1.602216859E-01
 1.382238604E-02 -1.475875173E-02 1.118945090E-01
 1.717943326E-02 -1.643164270E-02 7.254857796E-02
 2.009875700E-02 -1.775722578E-02 1.733355971E-02
 2.382749505E-02 -1.930728741E-02 -2.170479843E-02
 2.906795219E-02 -2.128382400E-02 -8.819364487E-02
 3.472997621E-02 -2.321391180E-02 -1.339555210E-01
 4.144674540E-02 -2.527192980E-02 -1.516579214E-01
 4.919662699E-02 -2.743775025E-02 -1.701189005E-01
 5.832176283E-02 -2.973698266E-02 -1.874056988E-01
 6.724692881E-02 -3.179119527E-02 -2.178738420E-01
 7.743436098E-02 -3.395476937E-02 -2.399660727E-01
 8.772118390E-02 -3.596141934E-02 -2.593362821E-01
 9.815396369E-02 -3.785869479E-02 -2.769250600E-01
 1.096802205E-01 -3.980020061E-02 -2.912081562E-01
 1.210406125E-01 -4.159273952E-02 -3.091465489E-01
 1.330543309E-01 -4.336438328E-02 -3.266777709E-01
 1.441252679E-01 -4.489714652E-02 -3.449431270E-01
 1.557349563E-01 -4.640763998E-02 -3.611290692E-01
 1.682740152E-01 -4.794358090E-02 -3.797178273E-01
 1.801052094E-01 -4.928889498E-02 -3.989243736E-01
 1.922251135E-01 -5.058395118E-02 -4.172427139E-01
 2.033862770E-01 -5.169160292E-02 -4.360081275E-01
 2.150825858E-01 -5.277918652E-02 -4.547183746E-01
 2.275770903E-01 -5.383685976E-02 -4.737419767E-01
 2.401291430E-01 -5.482347682E-02 -4.943491912E-01
 2.523822188E-01 -5.568846688E-02 -5.187924713E-01
 2.642913759E-01 -5.643659085E-02 -5.393674766E-01
 2.754957378E-01 -5.705744028E-02 -5.584271805E-01
 2.876473665E-01 -5.763115734E-02 -5.747713235E-01
 2.997660339E-01 -5.810872093E-02 -5.895295931E-01
 3.124360144E-01 -5.851622298E-02 -6.075447117E-01
 3.242250681E-01 -5.876794830E-02 -6.244488058E-01
 3.369224072E-01 -5.894398317E-02 -6.350547018E-01
 3.479123414E-01 -5.898170918E-02 -6.462207469E-01
 3.594030440E-01 -5.891870707E-02 -6.503194981E-01
 3.702362180E-01 -5.877566710E-02 -6.530818066E-01
 3.811964393E-01 -5.852020904E-02 -6.492383645E-01
 3.929590881E-01 -5.814150721E-02 -6.331482625E-01
 4.063130915E-01 -5.756217241E-02 -6.079664055E-01
 4.190505147E-01 -5.688373744E-02 -5.805587035E-01
 4.314499795E-01 -5.608211830E-02 -5.497408260E-01
 4.435980618E-01 -5.517360196E-02 -5.119729006E-01
 4.551850855E-01 -5.425832793E-02 -4.800704405E-01
 4.664556682E-01 -5.321453139E-02 -4.468256183E-01
 4.784986079E-01 -5.204492807E-02 -4.050823192E-01
 4.901461601E-01 -5.081781745E-02 -3.673871015E-01
 5.029745102E-01 -4.937906191E-02 -3.266572786E-01
 5.165359974E-01 -4.777019843E-02 -2.822115959E-01
 5.293392539E-01 -4.618712142E-02 -2.394180993E-01
 5.422979593E-01 -4.454286769E-02 -2.044856479E-01
 5.546597838E-01 -4.293669015E-02 -1.748921032E-01
 5.682929158E-01 -4.108000547E-02 -1.408208754E-01
 5.811345577E-01 -3.931520879E-02 -1.049866638E-01
 5.935997963E-01 -3.761236742E-02 -8.048003427E-02
 6.064412594E-01 -3.580435738E-02 -5.664943854E-02
 6.214503050E-01 -3.370093554E-02 -2.591897235E-02
 6.358236670E-01 -3.164722025E-02 1.223581367E-03
 6.513359547E-01 -2.944746614E-02 2.937929386E-02
 6.639361978E-01 -2.767196298E-02 5.150027256E-02
 6.770449281E-01 -2.580659091E-02 7.266803522E-02
 6.894673109E-01 -2.407677285E-02 9.448908358E-02
 7.019247413E-01 -2.235036530E-02 1.121717128E-01
 7.161691189E-01 -2.040216699E-02 1.312505122E-01
 7.294000387E-01 -1.861438714E-02 1.504441248E-01
 7.412788272E-01 -1.698897593E-02 1.722780827E-01
 7.554699183E-01 -1.513446309E-02 1.933599247E-01
 7.676694393E-01 -1.359181851E-02 2.073790305E-01
 7.813872695E-01 -1.188133564E-02 2.225448103E-01
 7.932759523E-01 -1.043134928E-02 2.405457135E-01
 8.060238361E-01 -8.903881535E-03 2.597777746E-01
 8.169628382E-01 -7.667669561E-03 2.754310785E-01
 8.283226490E-01 -6.403695326E-03 2.910810458E-01
 8.417527676E-01 -5.034808535E-03 3.065436618E-01
 8.543613553E-01 -3.824229818E-03 3.201554479E-01
 8.666312099E-01 -2.725201426E-03 3.357718281E-01
 8.776541948E-01 -1.835489646E-03 3.485024550E-01
 8.885194659E-01 -1.034638961E-03 3.606721943E-01
 9.016810060E-01 -2.483238641E-04 3.670506049E-01
 9.116525054E-01 2.726619132E-04 3.763980676E-01
 9.228298664E-01 7.149551529E-04 3.785377730E-01
 9.326323867E-01 1.011186978E-03 3.821325436E-01
 9.414634705E-01 1.195209450E-03 3.835558498E-01
 9.526885152E-01 1.318549155E-03 3.834149568E-01
 9.643296599E-01 1.320718904E-03 3.785292201E-01
 9.772769809E-01 1.179291983E-03 3.862824874E-01
 9.883778095E-01 9.218637133E-04 4.025423024E-01
 -5.000000000E-01 -1.000000000E+00 5.557363583E-02
 3.500000000E+00 -1.000000000E+00 1.377420462E-02
 3.500000000E+00 1.000000000E+00 -2.880918887E-03
 -5.000000000E-01 1.000000000E+00 5.405844155E-02
 -5.000000000E-01 5.000000000E-01 1.058193855E-01
 -5.000000000E-01 2.752797990E-12 1.596707315E-01
 -5.000000000E-01 -5.000000000E-01 1.066150227E-01
 -9.421907698E-13 -1.000000000E+00 2.607047861E-02
 5.000000000E-01 -1.000000000E+00 -2.001823018E-02
 1.000000000E+00 -1.000000000E+00 5.469206961E-03
 1.500000000E+00 -1.000000000E+00 4.056560642E-02
 2.000000000E+00 -1.000000000E+00 3.514610384E-02
 2.500000000E+00 -1.000000000E+00 2.325939293E-02
 3.000000000E+00 -1.000000000E+00 1.634303878E-02
 3.500000000E+00 -5.000000000E-01 1.426354367E-02
 3.500000000E+00 -2.752797990E-12 1.320446840E-02
 3.500000000E+00 5.000000000E-01 4.931976943E-03
 3.000000000E+00 1.000000000E+00 -9.408344227E-03
 2.500000000E+00 1.000000000E+00 -1.955500086E-02
 2.000000000E+00 1.000000000E+00 -4.018885552E-02
 1.500000000E+00 1.000000000E+00 -9.007665540E-02
 1.000000000E+00 1.000000000E+00 -1.568999187E-01
 5.000000000E-01 1.000000000E+00 -1.029207518E-01
 1.733724275E-12 1.000000000E+00 1.435465632E-02
 6.833003960E-01 -3.470722235E-02 8.108990198E-02
 7.892941301E-01 -2.168135040E-02 2.295204670E-01
 9.071179426E-01 -8.623402807E-03 3.593326630E-01
 5.876315528E-01 -5.101346655E-02 -9.464475617E-02
 4.989638229E-01 -5.947103362E-02 -3.315361796E-01
 6.886937951E-01 7.103439692E-02 -5.076592965E-01
 7.733417689E-01 5.843680058E-02 -3.390380551E-01
 2.791983406E-01 -6.879457606E-02 -5.391567769E-01
 2.818948485E-01 8.285191386E-02 -5.333118224E-01
 9.168539069E-01 3.143026492E-02 -1.404583988E-02
 1.845020399E-01 -6.312381877E-02 -3.875916924E-01
 3.768311955E-01 -7.162648643E-02 -6.229617414E-01
 5.903695436E-01 7.852062109E-02 -7.776235518E-01
 3.807339982E-01 8.594281572E-02 -6.283992419E-01
 4.948602810E-01 8.495782924E-02 -7.551148026E-01
 1.838276976E+00 -5.932074900E-01 3.248389612E-02
 1.762854846E+00 5.835791484E-01 -2.191829761E-02
 3.031172375E+00 2.156855164E-01 5.512087188E-03
 7.394325308E-01 -5.892731608E-01 -1.247630575E-02
 7.500000000E-01 5.669872981E-01 -2.551783151E-01
 8.472187593E-01 4.262433040E-02 -2.069100128E-01
 3.366085252E-01 6.534282636E-01 -1.406507736E-01
 1.232078931E-01 5.918289796E-02 -3.144758256E-01
 1.805153777E-01 7.330870361E-02 -4.198798520E-01
 2.734855690E+00 -5.326838555E-01 1.386167325E-02
 1.166057547E+00 6.154514960E-01 -8.481905006E-02
 1.002299484E+00 3.499311791E-01 -4.190894337E-02
 1.258027608E+00 -6.333810127E-01 5.673998686E-02
 1.492522338E+00 -2.583603632E-01 4.555257111E-02
 2.363159046E-01 -5.597161370E-01 -5.843522748E-02
 8.145975938E-02 -4.894238883E-02 -2.151922266E-01
 2.249264095E+00 -5.875831954E-01 2.022161791E-02
 2.037692381E+00 -2.249365281E-01 1.524630928E-02
 2.422412831E+00 -1.885495755E-01 9.370963168E-03
 2.184646175E+00 1.582866202E-01 -3.737685036E-04
 1.778030903E+00 1.272699450E-01 3.285003115E-03
 -2.707731328E-01 -2.473125909E-01 1.727864276E-01
 -1.578504424E-01 -5.615309314E-01 6.916736258E-02
 -2.715849731E-01 2.370778200E-01 1.713495900E-01
 -6.680447510E-02 6.047146051E-01 2.475763105E-02
 1.085329650E-01 3.647044675E-01 -6.373058044E-02
 7.027091945E-02 4.732751594E-02 -1.360382023E-01
 2.203184214E+00 5.864552444E-01 -1.271638096E-02
 2.740027244E+00 6.013950896E-01 -4.146301098E-03
 -2.347317500E-01 2.339103016E-03 2.326200192E-01
 -1.269996776E-01 -1.260146517E-01 2.541191824E-01
 3.643837795E-02 -2.962798253E-02 -9.748008863E-02
 3.925428066E-02 -3.971655965E-01 3.065830460E-02
 2.676335487E-01 -3.191303822E-01 -2.252024718E-01
 4.414977189E-01 -7.018543813E-02 -4.949240969E-01
 -1.197580065E-01 1.420316179E-01 2.509455521E-01
 -6.773088281E-02 3.227882520E-01 1.002050938E-01
 7.904541857E-03 1.826324441E-01 1.318233701E-01
 3.308489234E-02 3.284648568E-02 8.867321128E-02
 1.573350155E-01 2.217398117E-01 -2.156446468E-01
 2.324100312E-01 7.964398284E-02 -4.849625653E-01
 2.072774572E-01 7.698784743E-02 -4.566428899E-01
 -3.769987685E-02 9.869518489E-02 3.512429051E-01
 -1.098077871E-01 2.423211398E-02 3.717871967E-01
 -7.015251008E-02 -5.488674495E-02 3.850651816E-01
 3.504638222E-02 1.135284353E-01 1.076273205E-01
 3.109364838E+00 -2.612681016E-01 1.215152462E-02
 -4.667796845E-02 3.723754841E-02 5.325219158E-01
 -5.037448098E-02 -1.075931532E-02 5.805255660E-01
 -2.405586273E-02 -5.141852867E-02 4.922934904E-01
 2.075900959E-02 -2.142880903E-02 3.194987373E-02
 -3.276653229E-02 -9.990447129E-02 2.761985203E-01
 3.682677033E-02 -1.149452319E-01 7.430810948E-02
 1.341633892E-01 -5.396195088E-02 -3.101954062E-01
 1.141131225E-01 -5.496255766E-02 -2.721872311E-01
 -1.148961813E-02 -1.714581297E-01 1.619773955E-01
 8.270612129E-02 -1.697746624E-01 -6.233279495E-02
 9.061182432E-02 -1.074045621E-01 -1.499248468E-01
 1.567519676E-01 -1.433256376E-01 -2.501942793E-01
 2.343104891E-01 -6.978613777E-02 -4.638970606E-01
 1.787001508E-01 -2.370547272E-01 -2.009865347E-01
 2.371915101E-01 -1.790519158E-01 -3.390162751E-01
 3.293212393E-01 -6.994836162E-02 -6.059519814E-01
 3.585419567E-01 -2.284528930E-01 -3.423829547E-01
 3.897302572E-01 -3.750394037E-01 -2.003046357E-01
 4.753820439E-01 -2.385485037E-01 -2.593292657E-01
 4.202391742E-01 -1.589692199E-01 -4.116322848E-01
 5.176356830E-01 -1.606431011E-01 -2.188053902E-01
 5.498698621E-01 -5.444543299E-02 -1.829234384E-01
 5.243531274E-01 -5.815320889E-02 -2.515774794E-01
 5.696041215E-01 -2.289800326E-01 -1.077370684E-01
 6.064702675E-01 -1.528417063E-01 -6.085348836E-02
 6.466649452E-01 -4.365556171E-02 1.825919951E-02
 6.577933421E-01 -2.186196623E-01 1.702106533E-03
 7.381973958E-01 -2.947011627E-02 1.610883559E-01
 6.902300824E-01 -1.387855286E-01 5.199902708E-02
 7.493434465E-01 -1.852604693E-01 9.632950357E-02
 8.477270386E-01 -1.672986870E-02 3.015084579E-01
 8.251482615E-01 -1.797151490E-02 2.777048365E-01
 8.739268303E-01 -1.275018386E-02 3.340318628E-01
 7.769602677E-01 -1.354560907E-01 1.492294954E-01
 8.320504565E-01 -1.983160409E-01 1.588031067E-01
 9.719049494E-01 -7.599179013E-03 3.756490305E-01
 9.482645646E-01 -6.886572572E-03 3.705233530E-01
 8.702501151E-01 -1.412476633E-01 2.096479068E-01
 9.234472461E-01 -1.696622335E-01 2.080479313E-01
 9.528582276E-01 -1.087281271E-01 2.550531846E-01
 1.007530818E+00 -1.743951088E-01 1.947645398E-01
 1.043843000E+00 -9.685181029E-02 2.132290701E-01
 9.450220771E-01 -2.763141415E-01 1.519049331E-01
 1.102292315E+00 -2.645422399E-01 1.322184149E-01
 3.576758027E-01 -1.489092697E-01 -4.678321234E-01
 9.089839926E-01 -7.575754222E-02 2.862585155E-01
 8.260203585E-01 -7.480183932E-02 2.311357918E-01
 7.442983586E-01 -8.832182619E-02 1.390350093E-01
 4.692972557E-01 -1.205220862E-01 -3.592175315E-01
 6.245748097E-01 -3.163788582E-01 -3.772109796E-02
 7.691032284E-01 -3.223160042E-01 6.156441059E-02
 6.448034243E-01 -1.021084930E-01 -2.735412308E-04
 9.877147332E-01 -6.984507656E-02 2.799453867E-01
 5.631642235E-01 -1.221529974E-01 -1.352959740E-01
 3.933844719E-01 -1.149944931E-01 -5.133943211E-01
 4.150705897E-01 -6.987185070E-02 -5.629632800E-01
 1.077012653E+00 -4.489691477E-01 9.270716921E-02
 3.595132696E-01 -1.068134464E-01 -5.494918860E-01
 3.136838975E-01 -1.125146452E-01 -5.111824725E-01
 3.067220243E-01 -7.048528583E-02 -5.765764473E-01
 3.526557726E-01 -7.066626068E-02 -6.227857291E-01
 2.154371722E-01 -1.174043196E-01 -3.705820813E-01
 4.828043431E-01 -5.541834815E-01 -1.017708167E-01
 3.025033727E-01 -1.698525052E-01 -4.107264708E-01
 -8.085751850E-03 6.090603782E-02 4.110634348E-01
 1.033984993E-02 1.976639356E-02 3.762303873E-01
 1.913019657E-02 2.605224264E-02 2.403386554E-01
 3.117637473E-02 7.207804385E-02 1.320768954E-01
 4.939214054E-02 4.132153558E-02 -2.958661968E-02
 6.301976919E-01 -4.720342704E-02 -1.049029620E-02
 6.464841513E-01 -6.546017132E-02 1.200871697E-02
 6.214491889E-01 -6.891453295E-02 -2.949290662E-02
 6.763666873E-01 -8.094076683E-02 5.674439738E-02
 7.064385695E-01 -6.041223975E-02 1.032976300E-01
 7.131621161E-01 -3.524271546E-02 1.213270983E-01
 6.157232170E-01 -4.743559967E-02 -4.400785610E-02
 1.364554650E-01 -1.013157205E-01 -2.500625759E-01
 1.604265114E-01 -6.053695768E-02 -3.503390209E-01
 1.698987019E-01 -9.974175769E-02 -3.121689687E-01
 1.273169602E-02 -7.148761290E-02 1.873401476E-01
 5.338281131E-02 -7.821784574E-02 -4.744394833E-02
 4.996475244E-02 -3.777615606E-02 -1.196169644E-01
 3.227181147E-02 -4.771571226E-02 7.323276028E-03
 6.717456675E-01 -3.802851918E-02 5.981213331E-02
 6.623612167E-01 -5.392421301E-02 4.114415721E-02
 6.828999727E-01 -5.033121255E-02 7.080923408E-02
 6.592181887E-01 -3.978751915E-02 4.034172921E-02
 7.259902320E-01 -2.956751549E-02 1.421054850E-01
 7.342466446E-01 -4.839072946E-02 1.457664065E-01
 7.618352802E-01 -2.643620225E-02 1.939026798E-01
 7.640620184E-01 -5.912133271E-02 1.773576854E-01
 7.976079458E-01 -5.151129426E-02 2.204042252E-01
 7.531583201E-01 -3.827931921E-02 1.754145108E-01
 3.406062697E-01 -6.834227403E-02 -6.194524801E-01
 3.398462154E-01 -8.513830598E-02 -5.821563146E-01
 3.177053344E-01 -8.226834345E-02 -5.685113734E-01
 3.005607703E-01 -8.562318105E-02 -5.423371121E-01
 2.771426953E-01 -8.975862290E-02 -5.072326976E-01
 2.589210613E-01 -6.498974589E-02 -5.176678852E-01
 2.469300872E-01 -9.021908945E-02 -4.586276810E-01
 2.647242673E-01 -1.239283667E-01 -4.359978455E-01
 3.647979098E-01 -8.436487783E-02 -5.983995986E-01
 3.867778901E-01 -8.710876490E-02 -5.796186664E-01
 4.278122482E-01 -1.070451776E-01 -4.688228776E-01
 4.532149509E-01 -9.224256173E-02 -4.386856344E-01
 4.722361318E-01 -6.580063017E-02 -4.122081910E-01
 4.804019048E-01 -8.471958120E-02 -3.647012726E-01
 4.574892561E-01 -7.342104829E-02 -4.396184620E-01
 3.873941344E-01 -6.815747470E-02 -6.185527724E-01
 3.998195711E-01 -7.122803501E-02 -5.928657461E-01
 4.271371706E-01 -6.712168367E-02 -5.396586707E-01
 2.199251475E-01 -8.082211642E-02 -4.251777851E-01
 2.082711098E-01 -6.534142581E-02 -4.253509555E-01
 4.875784902E-01 -6.475045615E-02 -3.637294195E-01
 6.199521969E-02 -5.234412633E-02 -1.363576165E-01
 8.458310312E-02 -7.316220982E-02 -1.731325993E-01
 9.583013848E-02 -5.752626140E-02 -2.317750536E-01
 1.126753481E-01 -7.872590839E-02 -2.335073665E-01
 3.649459581E-01 -6.841461150E-02 -6.309967069E-01
 6.162210913E-02 -3.856055524E-02 -1.730972826E-01
 6.001160048E-01 -4.721959517E-02 -7.084389039E-02
 5.973676490E-01 -6.523697270E-02 -7.456816414E-02
 5.760975183E-01 -6.617008541E-02 -1.197840378E-01
 6.051585427E-01 -1.030789116E-01 -6.626914991E-02
 5.520860542E-01 -7.885364080E-02 -1.669462664E-01
 5.199663325E-01 -1.038835467E-01 -2.457403528E-01
 6.961988511E-01 -3.785342137E-02 9.799989433E-02
 2.210332845E-01 -6.451314526E-02 -4.482079830E-01
 5.752533255E-01 -5.017893632E-02 -1.209103846E-01
 2.492892188E-01 -6.935185126E-02 -4.922430116E-01
 2.681937658E-01 -6.557650877E-02 -5.329527881E-01
 2.556271534E+00 2.094395368E-01 2.103969516E-04
 -1.920701479E-02 3.162110750E-02 5.497560067E-01
 3.427630883E-03 1.460480241E-02 5.914026915E-01
 -1.944147600E-02 6.929778962E-03 8.007788597E-01
 -5.748671379E-03 -1.305608481E-02 7.170872676E-01
 8.118607131E-01 -1.964748712E-02 2.595099220E-01
 8.198115807E-01 -3.165610213E-02 2.572606359E-01
 8.521299125E-01 -5.849355728E-02 2.669845276E-01
 8.364029904E-01 -2.745997406E-02 2.819547667E-01
 8.009253903E-01 -2.963183933E-02 2.381272941E-01
 8.002760044E-01 -1.805918153E-02 2.454721091E-01
 8.559940777E-01 -3.356781500E-02 2.935297361E-01
 7.058188189E-02 -4.115431591E-02 -1.980632338E-01
 7.918465978E-03 -3.686553859E-02 2.380810043E-01
 9.757751188E-03 -1.651735153E-02 2.396438105E-01
 1.711692771E-01 -7.463126622E-02 -3.512808744E-01
 1.948369656E-01 -8.070644948E-02 -3.827284214E-01
 1.006846023E+00 -7.073723123E-01 5.442337008E-02
 1.452041073E-01 -7.525636837E-02 -3.020903820E-01
 -8.436784351E-02 -2.828095311E-01 1.211537293E-01
 8.783740367E-01 -5.389460320E-02 2.922936364E-01
 9.064290779E-01 -4.133786525E-02 3.213678569E-01
 9.415525118E-01 -6.047762747E-02 3.041164936E-01
 9.340370502E-01 -2.782935802E-02 3.423896907E-01
 9.622792033E-01 -3.788668236E-02 3.299656878E-01
 9.261676362E-01 -1.028588176E-02 3.655640636E-01
 9.934863506E-01 -3.486050753E-02 3.085000358E-01
 9.924485689E-01 -1.429732506E-02 3.856306217E-01
 9.160954407E-01 -7.733740536E-03 3.671101212E-01
 9.389422004E-01 -1.066917625E-02 3.666942178E-01
 9.822587458E-01 -8.694107629E-03 3.583731660E-01
 9.747841817E-01 -2.078761358E-02 3.446496307E-01
 9.143664219E-01 -1.945837315E-02 3.487362023E-01
 8.979710143E-01 -2.067103663E-02 3.404818498E-01
 8.799193213E-01 -2.709926551E-02 3.217354908E-01
 9.702011745E-04 4.101688845E-02 4.665565906E-01
 1.684634128E-02 4.921454941E-02 2.957388831E-01
 3.642676105E-02 4.672526713E-02 8.325840019E-02
 2.309420778E-02 3.668337834E-02 1.816018028E-01
 9.600429805E-01 -9.034655135E-03 3.677521705E-01
 9.074833023E-01 -4.688489533E-01 8.598521826E-02
 7.758132031E-01 -2.368312149E-02 2.101382320E-01
 7.708065790E-01 -3.930768242E-02 1.975060113E-01
 5.110890375E-01 -5.999109345E-02 -2.894852179E-01
 5.052243135E-01 -7.564874640E-02 -3.022617603E-01
 5.259272834E-01 -7.485269871E-02 -2.389752766E-01
 9.516009716E-01 -2.060254666E-02 3.591375307E-01
 7.597533656E-02 2.583298624E-01 -2.289444168E-02
 2.601390058E-01 3.097037789E-01 -2.733435747E-01
 3.320593952E-01 8.388509905E-02 -5.833010587E-01
 2.718193068E-01 1.951112463E-01 -3.872928251E-01
 3.614241694E-01 2.478713810E-01 -4.331705915E-01
 4.424154819E-01 8.833244604E-02 -6.900328199E-01
 4.661314654E-01 8.303156386E-02 -7.275149757E-01
 3.520619943E-01 1.637968699E-01 -5.115034847E-01
 4.397257099E-01 1.900082705E-01 -5.648198657E-01
 5.414931719E-01 7.953271516E-02 -8.038191789E-01
 5.612645400E-01 8.222210291E-02 -7.994825844E-01
 4.604829709E-01 2.843114278E-01 -4.752245051E-01
 5.362380334E-01 2.103111246E-01 -5.975568811E-01
 6.382348558E-01 7.734534131E-02 -6.583002743E-01
 6.137883394E-01 7.767279182E-02 -7.320810252E-01
 5.692352588E-01 3.252491158E-01 -4.759999084E-01
 6.451113748E-01 2.276250818E-01 -5.270829739E-01
 5.995145175E-01 1.577459229E-01 -6.563923427E-01
 6.844324950E-01 1.554941593E-01 -4.768998765E-01
 7.318926591E-01 6.120439229E-02 -4.208529002E-01
 7.068464056E-01 6.659077079E-02 -4.674232498E-01
 7.289934405E-01 2.258434332E-01 -3.562606115E-01
 7.773370235E-01 1.563792214E-01 -2.958265513E-01
 8.088653881E-01 5.037286987E-02 -2.770709512E-01
 8.270494074E-01 2.180744031E-01 -2.112496347E-01
 8.497698817E-01 1.538862461E-01 -1.787912891E-01
 8.823554699E-01 3.624045770E-02 -1.263783269E-01
 2.031077069E-01 1.457743793E-01 -3.544606316E-01
 1.062005346E-01 1.541811981E-01 -1.400056498E-01
 6.787275723E-01 3.422654803E-01 -3.810188147E-01
 2.963030889E-01 1.366510230E-01 -4.843174250E-01
 3.068208367E-01 8.347267944E-02 -5.565401964E-01
 5.440726250E-01 1.459974572E-01 -6.932775869E-01
 4.086493475E-01 1.337963904E-01 -5.974277937E-01
 4.076827861E-01 8.767792009E-02 -6.531305815E-01
 4.573239907E-01 1.364680542E-01 -6.426800235E-01
 8.152598826E-01 1.120152817E-01 -2.472770212E-01
 8.630935096E-01 9.281899895E-02 -1.588170867E-01
 9.105643632E-01 1.379128623E-01 -6.947336709E-02
 9.694665664E-01 1.855348384E-02 1.811592461E-01
 9.068774547E-01 2.292847794E-01 -1.013790615E-01
 9.885303024E-01 1.770379828E-01 1.465900101E-02
 1.126212860E+00 2.480800321E-01 3.272128969E-02
 1.120752980E+00 1.178835028E-01 1.011480831E-01
 1.272504377E+00 2.040568993E-01 4.012166782E-02
 1.002093283E+00 9.598543574E-02 1.126598987E-01
 1.274113697E+00 1.074966798E-02 7.267705199E-02
 9.076262626E-01 7.639381229E-02 -5.846163679E-02
 7.280518177E-01 1.189317140E-01 -3.891756450E-01
 1.066712844E+00 4.419594047E-02 1.706039467E-01
 6.420196103E-01 1.287169272E-01 -6.087539080E-01
 1.579640812E-01 1.243131424E-01 -3.084307656E-01
 1.552713340E-01 6.821067383E-02 -3.785846557E-01
 8.706757526E-02 1.037691939E-01 -1.317064760E-01
 9.094908932E-02 5.273563301E-02 -2.216973390E-01
 1.242184339E-01 1.005072340E-01 -2.530142414E-01
 4.378376637E-01 4.294907671E-01 -3.360044065E-01
 1.471129971E+00 9.430356977E-02 2.790062263E-02
 1.500178961E+00 3.421904136E-01 1.356199639E-04
 3.647796103E-01 1.218036664E-01 -5.705083512E-01
 3.570680254E-01 8.467899974E-02 -6.072029874E-01
 3.284148054E-01 1.190568216E-01 -5.354930062E-01
 5.763773830E-01 1.200439475E-01 -7.304245862E-01
 6.074926401E-01 1.127126513E-01 -7.059020340E-01
 8.285360525E-01 7.859552913E-02 -2.278447364E-01
 7.991329604E-01 8.532553327E-02 -2.829994411E-01
 8.302057652E-01 6.019242531E-02 -2.308086810E-01
 6.521901744E-02 8.119488301E-02 -5.792779022E-02
 9.774131330E-02 8.008760446E-02 -1.896775815E-01
 1.398139161E-01 7.663539793E-02 -3.288707526E-01
 5.526377910E-02 5.640103677E-02 -3.941844818E-02
 1.016418301E+00 4.832159926E-02 1.877880313E-01
 3.449874705E-01 8.212768955E-02 -5.983778281E-01
 3.449755333E-01 9.846916168E-02 -5.778344816E-01
 3.680299342E-01 9.716297871E-02 -6.030881683E-01
 3.910341826E-01 1.023007073E-01 -6.177024178E-01
 4.138729283E-01 1.062604998E-01 -6.379334313E-01
 8.462652938E-01 3.430305079E-01 -2.023190178E-01
 7.943772491E-01 6.173997997E-02 -3.022043725E-01
 8.786182274E-01 6.632809770E-02 -1.329532777E-01
 1.462809885E+00 6.488267458E-01 -2.728130373E-02
 4.383566745E-01 1.112209901E-01 -6.561538138E-01
 4.252801319E-01 9.294096290E-02 -6.655169720E-01
 9.734649905E-01 5.982255651E-02 1.130325650E-01
 9.403011680E-01 2.656955453E-02 6.332485131E-02
 9.973941670E-01 2.911684666E-02 2.514056502E-01
 9.556589645E-01 2.400130467E-02 1.252362136E-01
 9.516729592E-01 4.219576117E-02 9.245505263E-02
 9.308046146E-01 4.127081644E-02 2.043681689E-02
 9.380162709E-01 6.297697374E-02 3.404125536E-02
 9.099564660E-01 4.908815566E-02 -3.836771010E-02
 8.722337310E-01 4.882910959E-02 -1.471627103E-01
 1.451490598E-01 6.292487676E-02 -3.646857833E-01
 1.334875532E-01 6.338191743E-02 -3.353617783E-01
 8.956379073E-01 3.564128418E-02 -8.634098920E-02
 5.451254891E-01 1.136299193E-01 -7.477389236E-01
 5.173362446E-01 8.435238280E-02 -7.817339951E-01
 5.096840115E-01 1.195803525E-01 -7.184784229E-01
 4.962958162E-01 1.555645924E-01 -6.549393015E-01
 4.815836683E-01 1.196651132E-01 -6.908751094E-01
 5.508351337E-01 7.950551514E-02 -8.058826718E-01
 4.549635665E-01 8.399970768E-02 -7.118185394E-01
 3.205098187E-01 9.575265159E-02 -5.557740239E-01
 2.962206564E-01 1.015453962E-01 -5.270965369E-01
 2.717939739E-01 1.006848488E-01 -5.000497595E-01
 2.574222215E-01 8.142698843E-02 -5.109283549E-01
 2.471600806E-01 9.408811766E-02 -4.815411886E-01
 2.197600401E-01 9.832524145E-02 -4.446374149E-01
 1.912104403E-01 9.601609530E-02 -4.016399810E-01
 2.533334472E-01 1.284083180E-01 -4.465898052E-01
 2.453919746E-01 7.727156311E-02 -5.028447181E-01
 4.616198780E-01 1.002765806E-01 -6.997579886E-01
 7.984015646E-02 6.069980195E-02 -1.627576354E-01
 1.253743782E+00 3.951061734E-01 -3.544632877E-04
 1.598549686E-01 8.669544172E-02 -3.597473696E-01
 5.074604847E-01 9.502211768E-02 -7.520574136E-01
 5.258742376E-01 9.819129360E-02 -7.629442249E-01
 9.382600960E-01 5.258115467E-01 -1.325558578E-01
 9.723177595E-01 3.189437249E-02 1.518829789E-01
 5.764668880E-01 7.989239740E-02 -7.921020507E-01
 5.864735682E-01 9.679352384E-02 -7.584148696E-01
 6.024548560E-01 8.894948334E-02 -7.399723446E-01
 8.856896768E-01 -1.364148253E-02 3.427335267E-01
 8.956144319E-01 -9.248222509E-03 3.530564069E-01
 1.587010712E+00 -7.509874832E-02 2.719091381E-02
 5.253358067E-01 -3.636555907E-01 -1.268706506E-01
 2.735374408E-01 -2.283929599E-01 -3.180013955E-01
 5.653856750E-01 9.796887335E-02 -7.732183640E-01
 4.286170501E-01 -8.258527378E-02 -5.085813137E-01
 4.807081640E-01 8.439979187E-02 -7.381870204E-01
 9.279831628E-01 2.634019717E-02 2.660557047E-02
 3.180819361E-01 -6.799723244E-02 -5.978656075E-01
 8.912437747E-01 5.102001358E-02 -9.597508236E-02
 2.944407779E-01 8.127571254E-02 -5.463527013E-01
 5.627099099E-01 -5.561079852E-02 -1.514180739E-01
 2.918395385E-01 -7.173359069E-02 -5.543773241E-01
 7.727753714E-01 1.101008013E-01 -3.201129093E-01
 7.501310954E-01 8.677424242E-02 -3.704782902E-01