TITLE     = "Visualization of the solution"
VARIABLES = "x"
"y"
"Pressure_Coefficient"
ZONE T="Zone"
 STRANDID=0, SOLUTIONTIME=0
 Nodes=685, Elements=1155, ZONETYPE=FEQuadrilateral
 DATAPACKING=POINT
 DT=(DOUBLE DOUBLE DOUBLE )
 9.998494387E-01 5.111120990E-04 3.091475563E-01
 9.851767421E-01 3.479547566E-03 2.894866152E-01
 9.719367027E-01 6.197355688E-03 1.787509344E-01
 9.553030133E-01 9.588973597E-03 1.150762310E-01
 9.408419132E-01 1.257797983E-02 7.607349506E-02
 9.273532033E-01 1.521132886E-02 4.380332666E-02
 9.161604643E-01 1.751051284E-02 -2.174364730E-03
 9.047895074E-01 1.980617829E-02 -3.162359425E-02
 8.929411173E-01 2.208271809E-02 -5.696422383E-02
 8.810076714E-01 2.439849079E-02 -9.580960791E-02
 8.692349792E-01 2.668569796E-02 -1.294178749E-01
 8.567898273E-01 2.896570787E-02 -1.568815966E-01
 8.446320891E-01 3.118420579E-02 -1.776785281E-01
 8.331205249E-01 3.318035230E-02 -2.020254628E-01
 8.216957450E-01 3.520657495E-02 -2.255507046E-01
 8.090809584E-01 3.730899468E-02 -2.434042370E-01
 7.964714766E-01 3.941361234E-02 -2.702371502E-01
 7.845380306E-01 4.135490954E-02 -2.926681248E-01
 7.724457383E-01 4.328165203E-02 -3.144397127E-01
 7.611812353E-01 4.502920434E-02 -3.367428053E-01
 7.485964894E-01 4.695275053E-02 -3.612035868E-01
 7.352188826E-01 4.893305525E-02 -3.865394858E-01
 7.247275114E-01 5.046172068E-02 -4.123082464E-01
 7.138177156E-01 5.200988799E-02 -4.400230351E-01
 7.022764683E-01 5.360696465E-02 -4.681330681E-01
 6.893797517E-01 5.531723425E-02 -4.970356197E-01
 6.770305037E-01 5.689767748E-02 -5.263937128E-01
 6.664585471E-01 5.820757523E-02 -5.557566656E-01
 6.550328732E-01 5.956420675E-02 -5.897504042E-01
 6.439954042E-01 6.084544212E-02 -6.208210212E-01
 6.322537661E-01 6.211070716E-02 -6.508556306E-01
 6.208866239E-01 6.330332160E-02 -6.821816649E-01
 6.105614901E-01 6.430625916E-02 -7.144754495E-01
 5.988820791E-01 6.542078406E-02 -7.406910042E-01
 5.872014761E-01 6.641508639E-02 -7.605650285E-01
 5.737866759E-01 6.749133766E-02 -7.894225931E-01
 5.612335205E-01 6.844990700E-02 -8.038381089E-01
 5.485464334E-01 6.927674264E-02 -8.017641019E-01
 5.374131799E-01 6.993228942E-02 -8.053676818E-01
 5.255063176E-01 7.058594376E-02 -8.116214273E-01
 5.130307078E-01 7.119835913E-02 -8.058560506E-01
 5.019726157E-01 7.162240148E-02 -7.955190544E-01
 4.889628589E-01 7.210212946E-02 -7.829856923E-01
 4.756236374E-01 7.245115191E-02 -7.659943077E-01
 4.617849588E-01 7.274521887E-02 -7.579680616E-01
 4.481016099E-01 7.295835018E-02 -7.493026025E-01
 4.352363944E-01 7.305292785E-02 -7.389974662E-01
 4.224264324E-01 7.308951765E-02 -7.233732105E-01
 4.096159339E-01 7.300993055E-02 -7.053548302E-01
 3.966216147E-01 7.286923379E-02 -6.961234317E-01
 3.846526742E-01 7.268086821E-02 -6.816730593E-01
 3.728197515E-01 7.240625471E-02 -6.642733773E-01
 3.592798412E-01 7.202958316E-02 -6.532220246E-01
 3.464494348E-01 7.160090655E-02 -6.405661059E-01
 3.331776857E-01 7.106383145E-02 -6.294682556E-01
 3.226666749E-01 7.057913393E-02 -6.157534611E-01
 3.100025654E-01 6.992554665E-02 -6.000206958E-01
 2.971843481E-01 6.917500496E-02 -5.850598259E-01
 2.833821476E-01 6.828154624E-02 -5.708746480E-01
 2.711425722E-01 6.739928573E-02 -5.553782710E-01
 2.591987848E-01 6.646385789E-02 -5.435716324E-01
 2.469006330E-01 6.543806195E-02 -5.301567812E-01
 2.344501466E-01 6.428992003E-02 -5.163705896E-01
 2.222536057E-01 6.308962405E-02 -5.030320063E-01
 2.103153914E-01 6.182164326E-02 -4.864230607E-01
 1.985186487E-01 6.047236174E-02 -4.674007833E-01
 1.861378402E-01 5.896225199E-02 -4.506601354E-01
 1.744073778E-01 5.743996799E-02 -4.333886955E-01
 1.627973616E-01 5.581991747E-02 -4.163634375E-01
 1.511743516E-01 5.409377068E-02 -4.022652367E-01
 1.404002011E-01 5.240419507E-02 -3.807111450E-01
 1.291703284E-01 5.050328001E-02 -3.542236773E-01
 1.180401295E-01 4.850234464E-02 -3.311919576E-01
 1.075062081E-01 4.648861662E-02 -3.099458868E-01
 9.771963954E-02 4.449588805E-02 -2.793221076E-01
 8.711306006E-02 4.218623042E-02 -2.424933783E-01
 7.573048770E-02 3.950916603E-02 -2.036689475E-01
 6.578287482E-02 3.698283434E-02 -1.635665861E-01
 5.602455512E-02 3.428837657E-02 -1.188370198E-01
 4.697518423E-02 3.156334907E-02 -6.744764128E-02
 3.910886869E-02 2.897589840E-02 -1.374115903E-02
 3.220237792E-02 2.649166249E-02 3.363116155E-02
 2.627803572E-02 2.415003628E-02 7.439467325E-02
 2.190043777E-02 2.226551622E-02 1.234184781E-01
 1.766356453E-02 2.027821541E-02 1.601614486E-01
 1.441320777E-02 1.860565878E-02 2.039717352E-01
 1.154715195E-02 1.698535867E-02 2.373316026E-01
 9.416067973E-03 1.567800343E-02 2.671852957E-01
 7.518466562E-03 1.439840067E-02 3.107420141E-01
 5.795176141E-03 1.312960126E-02 3.639142943E-01
 3.599544289E-03 1.128855161E-02 4.161335476E-01
 1.766763511E-03 9.441299364E-03 4.611726969E-01
 2.562119334E-04 7.520132232E-03 6.865438724E-01
 -1.201091567E-03 4.805362318E-03 7.197016629E-01
 -1.781086554E-03 2.765468089E-03 1.130548884E+00
 -1.942269853E-03 1.126437215E-03 8.544529944E-01
 -1.805937616E-03 -7.781698951E-04 9.455996615E-01
 -1.287022606E-03 -2.815194894E-03 8.860807237E-01
 -1.892576256E-04 -5.259056576E-03 7.865807177E-01
 1.468979055E-03 -7.794733159E-03 9.072929570E-01
 3.713064129E-03 -1.040683128E-02 4.454450760E-01
 5.696585402E-03 -1.232175529E-02 5.867898729E-01
 7.995734923E-03 -1.426247880E-02 3.029248025E-01
 9.764255024E-03 -1.560536493E-02 2.502574072E-01
 1.196204778E-02 -1.714465395E-02 2.050698259E-01
 1.446306426E-02 -1.874492876E-02 1.756654731E-01
 1.782026887E-02 -2.070826478E-02 1.015864304E-01
 2.095953561E-02 -2.238777280E-02 9.222365184E-02
 2.505114861E-02 -2.438861504E-02 6.110524955E-02
 3.049963340E-02 -2.680107951E-02 1.954551267E-02
 3.630933166E-02 -2.912540920E-02 -4.531487365E-02
 4.330138490E-02 -3.166161850E-02 -7.925659022E-02
 5.082458258E-02 -3.413109109E-02 -1.195524317E-01
 5.973531306E-02 -3.678530827E-02 -1.670129596E-01
 6.841854006E-02 -3.914190084E-02 -2.206214599E-01
 7.871069014E-02 -4.170507938E-02 -2.493581778E-01
 8.845253289E-02 -4.393113777E-02 -2.875941142E-01
 9.895535558E-02 -4.615208134E-02 -3.197506143E-01
 1.100413501E-01 -4.831776395E-02 -3.413932016E-01
 1.214797646E-01 -5.040111393E-02 -3.640942220E-01
 1.331573576E-01 -5.237695947E-02 -3.867953334E-01
 1.433386356E-01 -5.398749188E-02 -4.126418787E-01
 1.546315253E-01 -5.565614253E-02 -4.303507058E-01
 1.664813459E-01 -5.729698017E-02 -4.494178370E-01
 1.779347956E-01 -5.877346918E-02 -4.709805390E-01
 1.895788312E-01 -6.016899645E-02 -4.920726396E-01
 2.000826895E-01 -6.134533137E-02 -5.104852448E-01
 2.112535834E-01 -6.251975894E-02 -5.335238318E-01
 2.233491838E-01 -6.367155910E-02 -5.555149660E-01
 2.355228961E-01 -6.474106014E-02 -5.777757936E-01
 2.472686023E-01 -6.565721333E-02 -6.009737418E-01
 2.593445778E-01 -6.651289761E-02 -6.217140683E-01
 2.702370584E-01 -6.719451398E-02 -6.464654174E-01
 2.826525271E-01 -6.786392629E-02 -6.668331290E-01
 2.946105599E-01 -6.841254234E-02 -6.885375961E-01
 3.076211214E-01 -6.886704266E-02 -7.081684878E-01
 3.192431629E-01 -6.917630136E-02 -7.268116190E-01
 3.320701420E-01 -6.938359141E-02 -7.425502993E-01
 3.427159190E-01 -6.944905967E-02 -7.546013187E-01
 3.544041514E-01 -6.941664219E-02 -7.581993216E-01
 3.653608263E-01 -6.928148121E-02 -7.611159958E-01
 3.761288226E-01 -6.903856993E-02 -7.588434624E-01
 3.880091608E-01 -6.867518276E-02 -7.471747605E-01
 4.012614489E-01 -6.810864806E-02 -7.253324341E-01
 4.136858284E-01 -6.744739413E-02 -6.979642411E-01
 4.265351593E-01 -6.664129347E-02 -6.697982010E-01
 4.390965402E-01 -6.568676978E-02 -6.315311578E-01
 4.518737197E-01 -6.461089849E-02 -5.858753343E-01
 4.640541375E-01 -6.344678998E-02 -5.416354227E-01
 4.764105380E-01 -6.218767539E-02 -4.980923092E-01
 4.885729253E-01 -6.082239002E-02 -4.545205492E-01
 5.013654828E-01 -5.932337791E-02 -4.072428474E-01
 5.151782036E-01 -5.759136751E-02 -3.618475104E-01
 5.284721851E-01 -5.581984669E-02 -3.149526192E-01
 5.411581993E-01 -5.408817902E-02 -2.724646514E-01
 5.544190407E-01 -5.220717564E-02 -2.355501117E-01
 5.676470399E-01 -5.024662614E-02 -1.953365702E-01
 5.807527900E-01 -4.828834161E-02 -1.575545196E-01
 5.934969187E-01 -4.635734856E-02 -1.259025524E-01
 6.064080000E-01 -4.437539354E-02 -9.605174986E-02
 6.202040315E-01 -4.223181680E-02 -6.620561655E-02
 6.342239380E-01 -4.004389420E-02 -3.831047997E-02
 6.484313011E-01 -3.781541437E-02 -1.209671842E-02
 6.613100171E-01 -3.579131886E-02 1.049185158E-02
 6.746592522E-01 -3.365572169E-02 3.572331382E-02
 6.869906187E-01 -3.170683235E-02 5.979000392E-02
 6.990769506E-01 -2.979495749E-02 8.023422130E-02
 7.139026523E-01 -2.745381743E-02 1.020025751E-01
 7.269757986E-01 -2.540529706E-02 1.266969197E-01
 7.385004163E-01 -2.363803424E-02 1.442373592E-01
 7.516663671E-01 -2.158104070E-02 1.652284870E-01
 7.646240592E-01 -1.966532320E-02 1.859606717E-01
 7.778336406E-01 -1.766595431E-02 2.027427825E-01
 7.901996374E-01 -1.586767659E-02 2.253068712E-01
 8.032020926E-01 -1.401439961E-02 2.399436706E-01
 8.138889670E-01 -1.247062068E-02 2.622528796E-01
 8.253620863E-01 -1.093504764E-02 2.779837788E-01
 8.374722600E-01 -9.304652922E-03 2.953366298E-01
 8.499080539E-01 -7.748687640E-03 3.153686310E-01
 8.623030782E-01 -6.297625136E-03 3.294033215E-01
 8.730881214E-01 -5.094450433E-03 3.445071628E-01
 8.842890263E-01 -3.948041238E-03 3.582016250E-01
 8.968963027E-01 -2.797632478E-03 3.687999256E-01
 9.067124724E-01 -1.977879088E-03 3.798480467E-01
 9.173934460E-01 -1.234948169E-03 3.885723012E-01
 9.271094203E-01 -6.570941769E-04 3.944931190E-01
 9.363296032E-01 -2.026402071E-04 3.986781200E-01
 9.481860399E-01 2.382814273E-04 3.981362284E-01
 9.617168903E-01 5.618670257E-04 4.025505183E-01
 9.764229059E-01 7.054938469E-04 4.105217341E-01
 9.893611670E-01 6.545677315E-04 3.860571216E-01
 -5.000000000E-01 -1.000000000E+00 5.639070507E-02
 3.500000000E+00 -1.000000000E+00 1.414756581E-02
 3.500000000E+00 1.000000000E+00 -1.117262652E-03
 -5.000000000E-01 1.000000000E+00 5.827112910E-02
 -5.000000000E-01 5.000000000E-01 1.163669913E-01
 -5.000000000E-01 2.752797990E-12 1.750064177E-01
 -5.000000000E-01 -5.000000000E-01 1.260351020E-01
 -9.421907698E-13 -1.000000000E+00 2.982767227E-02
 5.000000000E-01 -1.000000000E+00 -3.092424555E-02
 1.000000000E+00 -1.000000000E+00 -1.442337789E-02
 1.500000000E+00 -1.000000000E+00 3.153559249E-02
 2.000000000E+00 -1.000000000E+00 3.109025128E-02
 2.500000000E+00 -1.000000000E+00 2.111743297E-02
 3.000000000E+00 -1.000000000E+00 1.549459824E-02
 3.500000000E+00 -5.000000000E-01 1.483203901E-02
 3.500000000E+00 -2.752797990E-12 1.365565796E-02
 3.500000000E+00 5.000000000E-01 6.245073485E-03
 3.000000000E+00 1.000000000E+00 -7.673315150E-03
 2.500000000E+00 1.000000000E+00 -1.694583445E-02
 2.000000000E+00 1.000000000E+00 -3.462627430E-02
 1.500000000E+00 1.000000000E+00 -8.393693786E-02
 1.000000000E+00 1.000000000E+00 -1.521751763E-01
 5.000000000E-01 1.000000000E+00 -9.979893598E-02
 1.733724275E-12 1.000000000E+00 1.897695314E-02
 6.684158029E-01 -4.995236249E-02 2.030315707E-02
 7.699940158E-01 -3.200433741E-02 1.864036222E-01
 8.904781903E-01 -1.380079329E-02 3.520595730E-01
 5.760099966E-01 -6.363515129E-02 -1.707217957E-01
 7.095749466E-01 6.553711756E-02 -4.413751401E-01
 2.770944180E-01 8.003584032E-02 -5.471514092E-01
 3.672245917E-01 8.448840068E-02 -6.449156197E-01
 9.121117310E-01 3.290582367E-02 -1.421620117E-02
 2.875436823E-01 -8.291759060E-02 -6.473892168E-01
 8.187338483E-01 5.129522855E-02 -2.236258201E-01
 5.825190336E-01 8.035055422E-02 -7.571241574E-01
 4.090834074E-01 -7.994805770E-02 -6.825246040E-01
 4.828109636E-01 8.505506968E-02 -7.570541412E-01
 1.836122394E+00 -6.022597984E-01 3.156715858E-02
 1.783286850E+00 6.789448112E-01 -2.397261242E-02
 3.031180303E+00 2.156819063E-01 6.098709843E-03
 7.636017931E-01 -6.072901150E-01 -1.351655673E-02
 4.829615487E-01 -7.295255245E-02 -4.649959472E-01
 3.333359704E-01 -6.179549394E-01 -9.992351444E-02
 1.257817479E-01 -6.249921675E-02 -3.528179809E-01
 1.858274689E-01 -7.007905098E-02 -4.684798997E-01
 7.882984311E-01 5.338441338E-01 -2.441066793E-01
 2.869736796E-01 6.836906321E-01 -1.151009802E-01
 1.207492328E-01 6.274849485E-02 -3.161011295E-01
 1.801692209E-01 6.835171606E-02 -4.260933545E-01
 2.734835560E+00 -5.327038688E-01 1.320472276E-02
 1.191468167E+00 6.812378840E-01 -8.189914762E-02
 9.664882078E-01 3.267133088E-01 -5.907966572E-02
 1.255281482E+00 -6.146278325E-01 5.380689175E-02
 1.536352153E+00 -2.495614232E-01 3.851606469E-02
 2.248887347E+00 -5.891196687E-01 1.885382088E-02
 1.982091435E+00 -2.150884967E-01 1.580676948E-02
 2.413061150E+00 -1.872087657E-01 8.298177988E-03
 2.184577032E+00 1.581264251E-01 3.609640207E-03
 1.785091576E+00 1.301222672E-01 5.900577188E-03
 -2.220509234E-01 -2.274457980E-01 2.095575111E-01
 -1.485412201E-01 -6.314218026E-01 6.594430682E-02
 1.346287427E-01 -3.538663009E-01 -9.236108313E-02
 7.043087958E-02 -5.374697116E-02 -1.697126436E-01
 -2.718843178E-01 2.375616097E-01 1.928162964E-01
 -6.697703352E-02 6.047390480E-01 2.905586082E-02
 1.081262478E-01 3.655398264E-01 -6.633310289E-02
 6.884489552E-02 4.717019722E-02 -1.564021761E-01
 2.239794855E+00 5.591137301E-01 -9.436062453E-03
 2.746132426E+00 5.968366578E-01 -2.840904401E-03
 -2.416425079E-01 2.772064395E-03 2.364174610E-01
 -1.205136021E-01 1.428891122E-01 2.585319287E-01
 -6.823651386E-02 3.236651713E-01 1.082096389E-01
 9.540560547E-03 1.864045717E-01 1.101850795E-01
 3.448320047E-02 3.395695020E-02 3.133712127E-02
 1.591529350E-01 2.215754838E-01 -2.151912321E-01
 2.267903853E-01 7.699966837E-02 -4.908906984E-01
 2.017307048E-01 7.414593634E-02 -4.558892989E-01
 -3.675499875E-02 9.975417297E-02 3.670622602E-01
 -1.086189480E-01 2.547387487E-02 4.096113493E-01
 3.650513715E-02 1.142398972E-01 8.923048173E-02
 3.109353531E+00 -2.612855430E-01 1.222233806E-02
 -5.016903680E-02 4.082859909E-02 4.172696501E-01
 -6.788903959E-03 6.194298123E-02 4.151729723E-01
 9.416137851E-03 1.901336016E-02 2.951163872E-01
 1.722295250E-02 2.499415078E-02 1.976606057E-01
 3.266370768E-02 7.251582154E-02 8.085959410E-02
 4.854158423E-02 4.269451717E-02 -4.662894046E-02
 -1.264251186E-02 2.064060631E-02 6.893011338E-01
 -2.257600470E-02 -8.692757728E-03 7.885362861E-01
 1.955995715E-03 1.633370293E-02 5.189128929E-01
 2.561812748E+00 2.043055424E-01 9.519290135E-04
 6.834514579E-02 2.636417196E-01 -1.032067320E-02
 2.606678018E-01 3.118412253E-01 -2.900357745E-01
 2.768882842E-01 1.969358060E-01 -4.115211726E-01
 3.285537998E-01 7.977835061E-02 -6.105706730E-01
 3.018163837E-01 8.313336545E-02 -5.719686898E-01
 3.638184298E-01 2.521029643E-01 -4.488830159E-01
 4.275493363E-01 8.301059281E-02 -7.135121056E-01
 4.017481240E-01 8.212462139E-02 -6.881961860E-01
 4.548689472E-01 8.831982056E-02 -7.307231700E-01
 3.627182117E-01 1.737797364E-01 -5.359774894E-01
 4.448828199E-01 1.953805203E-01 -5.810446425E-01
 5.319520483E-01 8.271013775E-02 -7.893147896E-01
 5.569048387E-01 8.202383240E-02 -7.824867537E-01
 4.633093325E-01 2.919832476E-01 -4.807079643E-01
 5.427897978E-01 2.164359282E-01 -5.830793617E-01
 6.507121067E-01 7.135895710E-02 -5.915030163E-01
 6.279341797E-01 7.397314731E-02 -6.531311575E-01
 6.759317844E-01 6.843073375E-02 -5.235367240E-01
 6.058655582E-01 7.702416342E-02 -7.096429496E-01
 5.658726692E-01 3.033384492E-01 -4.821139774E-01
 6.556713951E-01 2.376527696E-01 -4.832250504E-01
 6.098580247E-01 1.612162874E-01 -6.105609524E-01
 7.063677191E-01 1.585870471E-01 -4.053334950E-01
 7.692569350E-01 5.289071327E-02 -3.179496907E-01
 7.429918514E-01 5.814376741E-02 -3.703382222E-01
 7.916537045E-01 4.857754980E-02 -2.762217142E-01
 7.533285585E-01 2.594227570E-01 -3.097083959E-01
 7.816309386E-01 1.708039750E-01 -2.549104902E-01
 8.647344250E-01 4.145471551E-02 -1.353522821E-01
 2.067853144E-01 1.512124834E-01 -3.591774159E-01
 1.193095444E-01 1.393386726E-01 -2.044505164E-01
 5.510021953E-01 1.486854518E-01 -6.814257289E-01
 7.497145587E-01 1.210386462E-01 -3.298148970E-01
 7.992159627E-01 1.093544385E-01 -2.457229234E-01
 8.466678309E-01 1.552335217E-01 -1.588730007E-01
 9.641634331E-01 2.422039960E-02 1.368137162E-01
 8.523182859E-01 2.515289616E-01 -1.571439750E-01
 9.263780153E-01 1.977340727E-01 -5.149217454E-02
 1.073181231E+00 2.232434272E-01 3.794183836E-02
 9.299151451E-01 1.160680725E-01 -1.232552166E-02
 8.509406345E-01 9.088146286E-02 -1.568236372E-01
 8.411563095E-01 4.533741477E-02 -1.822858657E-01
 6.740416177E-01 3.766421006E-01 -3.606757774E-01
 6.555515596E-01 1.313496759E-01 -5.400489601E-01
 2.631935549E-01 1.372758566E-01 -4.609688829E-01
 4.126398234E-01 1.435289785E-01 -6.191563747E-01
 4.617288026E-01 1.392677442E-01 -6.641452640E-01
 8.731147138E-02 1.095040936E-01 -1.612616182E-01
 9.318109112E-02 5.561320296E-02 -2.417019821E-01
 1.653994543E-01 1.189849723E-01 -3.264791987E-01
 1.281559749E-01 1.023509952E-01 -2.723471676E-01
 1.534784552E-01 6.803289973E-02 -3.820743214E-01
 5.858812964E-01 1.215888687E-01 -6.963173584E-01
 6.227301137E-01 1.094661711E-01 -6.353740593E-01
 4.541484522E-01 4.434232438E-01 -3.319625693E-01
 8.343014735E-01 3.795270593E-01 -1.984980049E-01
 3.680388882E-01 1.264405748E-01 -5.966090604E-01
 3.167475579E-01 1.344171614E-01 -5.256824612E-01
 1.136223081E+00 3.976898311E-01 -9.734887970E-03
 1.236391086E+00 2.206413689E-01 4.887985815E-02
 1.162343893E+00 7.044981141E-02 1.114252910E-01
 1.288259559E+00 5.614598428E-02 6.652957923E-02
 1.234605248E+00 -1.016533293E-01 9.924928399E-02
 1.124415639E+00 -6.512778218E-02 1.563148997E-01
 9.708564732E-01 -1.009975249E-02 3.870488007E-01
 9.321130804E-01 -8.414779807E-03 3.852708672E-01
 9.134484204E-01 -1.174438615E-02 3.732610179E-01
 9.265469604E-01 -2.565558260E-02 3.572161562E-01
 1.064643449E+00 1.160210820E-01 1.103520389E-01
 1.345628914E+00 4.402488794E-01 -4.339564907E-03
 2.260902224E-01 1.166012678E-01 -4.393678716E-01
 2.534302121E-01 8.266650475E-02 -5.165249308E-01
 7.662838530E-01 8.933153605E-02 -3.113986842E-01
 7.370231808E-01 9.127595395E-02 -3.673636946E-01
 6.534526352E-02 8.092214695E-02 -9.499359860E-02
 1.017764301E-01 7.632981684E-02 -2.308114510E-01
 5.498873419E-02 5.737312099E-02 -5.716846157E-02
 3.388170329E-01 1.110857862E-01 -5.837174500E-01
 1.987010585E-01 1.132419401E-01 -4.003941290E-01
 3.384688644E-01 8.034545286E-02 -6.216387005E-01
 3.524782551E-01 8.337978935E-02 -6.300224768E-01
 3.573887735E-01 9.949303360E-02 -6.155325827E-01
 3.804878658E-01 9.810877431E-02 -6.444171690E-01
 1.361506128E-01 7.685166730E-02 -3.313158239E-01
 4.031850943E-01 1.137668201E-01 -6.486633869E-01
 4.384019042E-01 1.117045289E-01 -6.831146078E-01
 1.425504879E+00 -8.873466909E-02 4.646704066E-02
 2.865057451E-01 1.122637656E-01 -5.186353580E-01
 9.937382131E-01 1.334092187E-01 5.875113325E-02
 3.516563946E-02 4.743267924E-02 6.668849454E-02
 1.583722634E-02 4.751705749E-02 2.435429112E-01
 2.253222942E-03 3.377127593E-02 3.830188509E-01
 2.312688752E-02 3.463327409E-02 1.499122981E-01
 3.122403270E-01 1.031050965E-01 -5.607765604E-01
 3.178274829E-01 8.373764657E-02 -5.912400139E-01
 8.132923745E-01 7.370258275E-02 -2.263855072E-01
 7.895083788E-01 8.016840151E-02 -2.706637771E-01
 1.554040539E-01 8.689886902E-02 -3.544032007E-01
 3.896807583E-01 8.434878063E-02 -6.731769614E-01
 8.038997671E-01 5.102058323E-02 -2.503720881E-01
 8.346902645E-01 6.082865799E-02 -1.906547570E-01
 8.539998818E-01 5.706860685E-02 -1.532892331E-01
 8.778423881E-01 5.734462061E-02 -1.043401380E-01
 8.885393022E-01 3.744012484E-02 -7.227280271E-02
 9.022503082E-01 5.166772331E-02 -4.125057834E-02
 9.237684767E-01 4.238231478E-02 1.410676227E-02
 9.360949499E-01 2.750613298E-02 5.362114091E-02
 9.497559025E-01 4.544148730E-02 7.651879233E-02
 8.944469921E-01 8.539084707E-02 -6.715391947E-02
 9.492318424E-01 2.386699466E-02 9.058403404E-02
 9.816870754E-01 4.026006991E-02 1.549835403E-01
 9.628905276E-01 8.036647899E-02 7.226401268E-02
 7.564426997E-01 5.615691363E-02 -3.390613208E-01
 8.522625066E-01 4.080213016E-02 -1.619965670E-01
 7.811073521E-01 5.242637915E-02 -2.963593158E-01
 2.584516821E-01 1.067218089E-01 -4.889514151E-01
 1.472316029E+00 1.759582320E-01 2.085626637E-02
 5.482830117E-01 1.142129775E-01 -7.367649125E-01
 5.164576607E-01 1.227530724E-01 -7.206001249E-01
 5.082783930E-01 8.424847887E-02 -7.802679872E-01
 5.015812019E-01 1.589502913E-01 -6.638122204E-01
 8.762717532E-01 3.746472994E-02 -1.060255857E-01
 9.011815866E-01 -1.095704037E-02 3.628869714E-01
 4.159522606E-01 8.414362452E-02 -6.973155820E-01
 1.432902263E-01 6.249711914E-02 -3.720908696E-01
 4.377564478E-01 8.827332856E-02 -7.171541115E-01
 3.789731283E-01 8.240661571E-02 -6.611603139E-01
 8.291628952E-01 4.408761324E-02 -2.065355900E-01
 1.680524620E-01 7.081727997E-02 -4.022897065E-01
 9.865460074E-01 -9.538457832E-03 4.225265676E-01
 1.331798414E-01 6.093795936E-02 -3.517300024E-01
 1.013545413E+00 7.442752008E-02 1.406425155E-01
 1.065190462E+00 4.965214283E-02 1.773404925E-01
 1.014094070E+00 3.628173512E-02 2.210643898E-01
 9.952065704E-01 1.812461409E-02 2.719226953E-01
 1.040346794E+00 1.667279982E-03 2.367478909E-01
 9.796341047E-01 1.845639737E-02 1.773811769E-01
 1.010847243E+00 7.612513548E-03 2.790799562E-01
 9.521836894E-01 -1.753342493E-02 3.863475885E-01
 4.876086240E-01 1.213839265E-01 -7.089818189E-01
 5.218129362E-01 9.853650652E-02 -7.648096381E-01
 6.538607132E-01 1.024400419E-01 -5.623645863E-01
 6.853949239E-01 1.034323818E-01 -4.788136136E-01
 6.184469157E-01 8.659054957E-02 -6.677401842E-01
 5.976600622E-01 9.283275759E-02 -7.114282549E-01
 5.691879617E-01 9.518181646E-02 -7.517516912E-01
 5.450988979E-01 9.311813955E-02 -7.701538297E-01
 7.511030581E-01 7.207865986E-02 -3.470192752E-01
 7.282823282E-01 6.997799872E-02 -3.955536363E-01
 7.114795343E-01 8.618272901E-02 -4.256425886E-01
 6.931107862E-01 7.481917218E-02 -4.755248838E-01
 7.179959834E-01 1.121033516E-01 -3.976027980E-01
 2.887995174E-01 7.911351602E-02 -5.621161219E-01
 7.724381669E-02 6.119418492E-02 -1.644004235E-01
 9.707914172E-01 5.253122434E-01 -1.107338510E-01
 1.480368945E+00 6.439453450E-01 -2.788348823E-02
 1.320017822E+00 -2.935749349E-01 7.430081845E-02
 1.161878675E+00 -2.308234326E-01 1.279508094E-01
 9.780467158E-01 -3.047999464E-02 3.490940987E-01
 1.657453698E+00 -9.496754644E-02 2.435820246E-02
 1.064325387E-01 6.230915442E-02 -2.796077633E-01
 5.687264061E-01 7.869948955E-02 -7.801229532E-01
 1.108028168E+00 -7.796590164E-04 1.573255310E-01
 1.060195363E+00 -5.093723280E-02 2.184732045E-01
 1.026282425E+00 -3.356760827E-02 2.829385319E-01
 9.967513996E-01 -6.424329777E-02 2.994361876E-01
 1.053441411E+00 -1.102699239E-01 2.088369527E-01
 9.759257578E-01 -1.370732976E-01 2.396151854E-01
 8.339575583E-01 -2.223652411E-02 2.817436807E-01
 8.563812876E-01 -1.842483067E-02 3.103428441E-01
 8.113186900E-01 -2.725745155E-02 2.438010018E-01
 9.368729953E-01 -8.514655365E-02 2.959167501E-01
 8.984248776E-01 -1.467050323E-01 2.222936969E-01
 9.314516514E-01 -2.145975669E-01 1.781245440E-01
 8.394851501E-01 -2.273992595E-01 1.434052886E-01
 7.941110843E-01 -1.578634830E-01 1.395149045E-01
 7.319547479E-01 -2.311979913E-01 5.493800631E-02
 7.204547783E-01 -4.000033998E-02 1.109047041E-01
 7.511979129E-01 -3.316141694E-02 1.592967606E-01
 6.920655436E-01 -1.458493230E-01 3.507758929E-02
 6.347365494E-01 -1.986720628E-01 -5.105165362E-02
 6.127987575E-01 -5.781353706E-02 -8.435491979E-02
 5.996453638E-01 -1.444953020E-01 -1.153146211E-01
 5.452991082E-01 -2.135888214E-01 -2.228562271E-01
 5.256886277E-01 -6.974589352E-02 -3.183427037E-01
 5.506969852E-01 -6.561357566E-02 -2.416606682E-01
 6.176163798E-01 -3.089046617E-01 -9.475632184E-02
 4.670645710E-01 -2.979685978E-01 -2.804628288E-01
 3.469918180E-01 -8.227783071E-02 -7.257120963E-01
 4.440990072E-01 -1.925986455E-01 -4.303024452E-01
 4.487848185E-01 -7.679843938E-02 -5.770980962E-01
 3.639103702E-01 -2.672259147E-01 -3.826977064E-01
 3.495274525E-01 -1.743224669E-01 -5.318385478E-01
 2.407068645E-01 -7.860571554E-02 -5.670421380E-01
 2.641332303E-01 -7.956312525E-02 -6.130333276E-01
 5.225095978E-01 -1.436827124E-01 -2.960098510E-01
 2.754572369E-01 -2.289081178E-01 -3.967260643E-01
 8.315294746E-01 -9.991270290E-02 2.163931967E-01
 7.366386705E-01 -9.996264000E-02 1.012868791E-01
 9.162099816E-01 -3.652131275E-01 1.062973116E-01
 8.884102945E-01 -7.068897179E-02 2.856148129E-01
 6.349994192E-01 -1.032936633E-01 -4.655080355E-02
 6.425078095E-01 -5.318896242E-02 -2.583167843E-02
 2.785850584E-01 -1.520440838E-01 -5.098195286E-01
 2.122576335E-01 -1.813304582E-01 -3.712354658E-01
 4.666477605E-01 -1.324007735E-01 -4.721179208E-01
 9.003336007E-01 -2.631590428E-02 3.428785475E-01
 8.803174823E-01 -2.430248722E-02 3.334881466E-01
 8.505970725E-01 -5.486344575E-02 2.696760477E-01
 8.202718298E-01 -6.165798316E-02 2.353777683E-01
 4.049359507E-01 -1.343283941E-01 -5.860330776E-01
 5.002774573E-01 -4.466732326E-01 -1.563577840E-01
 3.252770140E-01 -1.267639738E-01 -6.137280313E-01
 3.168701868E-01 -8.038945431E-02 -6.988195559E-01
 3.627637404E-01 -1.205028636E-01 -6.435090624E-01
 3.811571213E-01 -8.121363733E-02 -7.283283409E-01
 2.286970606E-01 -1.267374420E-01 -4.695523828E-01
 1.693787701E-01 -1.271380769E-01 -3.544017706E-01
 1.362630127E-01 -1.840528124E-01 -2.183876437E-01
 2.238774702E-02 -3.278242699E-02 1.581116815E-01
 9.195857508E-02 -1.311791162E-01 -1.604400693E-01
 6.456288109E-02 -1.801407731E-01 -1.949763665E-02
 2.462212107E-02 -1.338930068E-01 1.270326829E-01
 9.110702877E-03 -2.182505892E-02 3.124687908E-01
 4.498922189E-02 -3.921402782E-02 -5.282722248E-02
 1.876036665E-01 -2.631848200E-01 -2.438996008E-01
 -2.650628702E-02 -3.500185009E-01 7.613602830E-02
 5.637223742E-01 -1.055743808E-01 -1.911724372E-01
 1.297806890E-01 -1.042034127E-01 -2.951673259E-01
 1.550975239E-01 -6.664188874E-02 -4.123394572E-01
 1.991564479E-01 -1.038731907E-01 -4.449742694E-01
 2.149389883E-01 -7.343771051E-02 -5.217206767E-01
 4.319378560E-01 -1.129408051E-01 -5.691820496E-01
 7.640551517E-01 -3.611630554E-01 4.102857845E-02
 1.004779929E+00 -6.001324677E-01 5.043608125E-02
 8.695282172E-01 -1.629812276E-02 3.295129323E-01
 1.005524289E+00 -1.829120755E-02 3.610874833E-01
 3.937172256E-01 -8.218330277E-02 -7.067115722E-01
 4.070044210E-01 -1.004960451E-01 -6.467029722E-01
 5.262065136E-01 -1.056671763E-01 -2.980496763E-01
 4.906098476E-01 -1.075624323E-01 -4.016296193E-01
 5.093952240E-01 -7.209576553E-02 -3.708681637E-01
 2.585244304E-01 -3.840381223E-01 -2.236270916E-01
 2.660368321E-01 -1.158516355E-01 -5.536752068E-01
 2.930649517E-01 -1.077686466E-01 -6.094222405E-01
 3.030802594E-01 -8.504697288E-02 -6.697249062E-01
 9.122843019E-01 -4.860402180E-02 3.274429491E-01
 6.036176262E-02 -9.437033410E-02 -5.946783683E-02
 9.752549183E-02 -9.040393303E-02 -2.345351429E-01
 9.184703472E-02 -5.382291838E-02 -2.650458639E-01
 5.381698331E-01 -6.538823272E-02 -2.793547577E-01
 5.412782709E-01 -8.241286698E-02 -2.630978552E-01
 5.636111374E-01 -7.654053683E-02 -2.033308681E-01
 5.866852908E-01 -8.055671344E-02 -1.496767538E-01
 4.331638500E-01 -7.923615500E-02 -6.245444328E-01
 4.233297722E-01 -9.151861618E-02 -6.279353965E-01
 8.654321262E-01 -2.978183975E-02 3.081744082E-01
 8.465110386E-01 -3.078489069E-02 2.886751109E-01
 2.735334831E-01 -9.378021007E-02 -6.058065216E-01
 2.518828382E-01 -9.525338933E-02 -5.616116554E-01
 2.246447898E-01 -9.211657411E-02 -5.105426866E-01
 1.979889591E-01 -8.306036410E-02 -4.777598938E-01
 1.796524828E-01 -9.035926096E-02 -4.238597300E-01
 8.450014650E-01 -1.900708218E-02 2.980689785E-01
 2.526073363E-01 -7.595338088E-02 -5.950249508E-01
 2.281700352E-01 -7.456381413E-02 -5.477201227E-01
 8.795402075E-01 -1.268877899E-02 3.432225742E-01
 9.496968167E-01 -4.630767947E-02 3.441868914E-01
 1.552488953E-02 -8.598781500E-02 2.997492564E-01
 4.596636703E-01 -1.063431332E-01 -5.032830948E-01
 4.670027028E-01 -8.341203087E-02 -5.053892053E-01
 8.271134399E-01 -3.746350252E-02 2.599374185E-01
 4.421201844E-01 -9.539962423E-02 -5.708422859E-01
 5.935471002E-01 -6.360623797E-02 -1.251971619E-01
 6.100582023E-01 -8.013503305E-02 -9.050455510E-02
 6.307823500E-01 -6.974595276E-02 -4.829250152E-02
 6.556172155E-01 -7.038224889E-02 -5.545968728E-03
 6.805845739E-01 -6.876684473E-02 3.600304871E-02
 7.022162821E-01 -4.150213917E-02 8.051003377E-02
 6.849730534E-01 -4.755927779E-02 5.081530346E-02
 1.115452681E+00 -3.842898398E-01 1.028822860E-01
 5.502615436E-01 -6.202145142E-01 -9.056610018E-02
 4.978149046E-01 -8.715238727E-02 -4.018978277E-01
 1.547280618E-01 -8.973676412E-02 -3.774784262E-01
 1.399752411E-01 -7.526274833E-02 -3.619104659E-01
 1.199831968E-01 -7.981960361E-02 -3.076433047E-01
 8.009430150E-02 -7.055835209E-02 -2.027192340E-01
 5.112323274E-02 -6.804251682E-02 -3.587405006E-02
 1.052243483E-01 -6.724193096E-02 -2.911854893E-01
 2.688129589E-02 -5.494249213E-02 1.266682553E-01
 -3.814805651E-04 -4.222393196E-02 3.696784094E-01
 -7.288774899E-02 -8.426401099E-02 3.660510457E-01
 3.186467227E-02 -4.165433285E-02 8.389239721E-02
 -2.121145140E-02 -2.059104376E-01 1.690637890E-01
 1.040825126E+00 -2.266082257E-01 1.641864292E-01
 6.281033773E-01 -5.260483265E-02 -5.215196871E-02
 4.210741984E-01 9.845551988E-02 -6.858420156E-01
 3.414808621E-01 -1.012193353E-01 -6.812867292E-01
 3.183468619E-01 -9.917243051E-02 -6.623750614E-01
 3.292898351E-01 -8.723628762E-02 -7.019234490E-01
 5.990221301E-01 -1.028110185E-01 -1.085693736E-01
 6.552564292E-01 -4.942606141E-02 -2.135756259E-03
 3.846225599E-01 -4.027721613E-01 -2.449276673E-01
 5.941212325E-01 7.598896547E-02 -7.357028201E-01
 4.973331742E-01 9.894505473E-02 -7.492238603E-01
 4.699423639E-01 1.027239159E-01 -7.237007067E-01
 5.201160806E-01 8.145588521E-02 -7.914578610E-01
 4.688693196E-01 8.452757736E-02 -7.470299299E-01
 3.133974596E+00 6.339745962E-01 -8.360872649E-04
 4.965533087E-01 -7.127101691E-02 -4.176377371E-01
 1.699536132E-01 -7.214790236E-02 -4.337826045E-01