TITLE     = "Visualization of the solution"
VARIABLES = "x"
"y"
"Pressure_Coefficient"
ZONE T="Zone"
 STRANDID=0, SOLUTIONTIME=0
 Nodes=701, Elements=1187, ZONETYPE=FEQuadrilateral
 DATAPACKING=POINT
 DT=(DOUBLE DOUBLE DOUBLE )
 1.000133395E+00 5.299912300E-04 2.765255723E-01
 9.884684086E-01 2.562848153E-03 2.356628511E-01
 9.771144986E-01 4.571268335E-03 1.311381912E-01
 9.641880393E-01 6.857979577E-03 9.056968535E-02
 9.514553547E-01 9.096281603E-03 2.597132522E-02
 9.389727116E-01 1.130616665E-02 -1.208222314E-02
 9.280106425E-01 1.312990207E-02 -5.441949783E-02
 9.157016873E-01 1.520787831E-02 -9.107084801E-02
 9.039545059E-01 1.702819765E-02 -1.173060831E-01
 8.918472528E-01 1.889822073E-02 -1.519058672E-01
 8.796256185E-01 2.070477977E-02 -1.770839818E-01
 8.676785827E-01 2.235886082E-02 -1.956462696E-01
 8.550223112E-01 2.404398471E-02 -2.059066716E-01
 8.429909945E-01 2.555176802E-02 -2.103713990E-01
 8.308616281E-01 2.704806440E-02 -2.200554095E-01
 8.173564672E-01 2.868652157E-02 -2.337849497E-01
 8.040656447E-01 3.026638180E-02 -2.455075939E-01
 7.917683721E-01 3.167845309E-02 -2.576881774E-01
 7.790409327E-01 3.312550858E-02 -2.713249537E-01
 7.661749125E-01 3.454440087E-02 -2.815439883E-01
 7.525181174E-01 3.600312769E-02 -2.961080165E-01
 7.381117344E-01 3.753271699E-02 -3.104147687E-01
 7.267948389E-01 3.868316859E-02 -3.233923239E-01
 7.153127193E-01 3.984733298E-02 -3.401170612E-01
 7.032351494E-01 4.103200138E-02 -3.586046170E-01
 6.889429688E-01 4.239789397E-02 -3.775630234E-01
 6.751841307E-01 4.364202917E-02 -3.931837572E-01
 6.651036739E-01 4.452699795E-02 -4.066259740E-01
 6.531939507E-01 4.552802444E-02 -4.226739799E-01
 6.418155432E-01 4.645973817E-02 -4.421935021E-01
 6.298103333E-01 4.739928246E-02 -4.585762061E-01
 6.184864640E-01 4.822525010E-02 -4.728187103E-01
 6.070839763E-01 4.902516305E-02 -4.865530154E-01
 5.940178037E-01 4.987614229E-02 -5.008953278E-01
 5.819647312E-01 5.060800910E-02 -5.186171019E-01
 5.684472322E-01 5.137554184E-02 -5.349942488E-01
 5.558576584E-01 5.200778693E-02 -5.426718862E-01
 5.434781909E-01 5.255225673E-02 -5.473059080E-01
 5.325694680E-01 5.299272016E-02 -5.502426968E-01
 5.207320452E-01 5.339852720E-02 -5.575009118E-01
 5.078929663E-01 5.379847065E-02 -5.641424432E-01
 4.967319965E-01 5.406653881E-02 -5.631012857E-01
 4.834463000E-01 5.431782454E-02 -5.633666964E-01
 4.704200923E-01 5.450352654E-02 -5.577591573E-01
 4.558309019E-01 5.460860953E-02 -5.486499680E-01
 4.419747293E-01 5.462394282E-02 -5.417681403E-01
 4.288611710E-01 5.457856879E-02 -5.377971548E-01
 4.160196483E-01 5.447621271E-02 -5.286655196E-01
 4.037560225E-01 5.428916216E-02 -5.183402506E-01
 3.917449713E-01 5.407490954E-02 -5.107567173E-01
 3.794633150E-01 5.378749594E-02 -4.991935842E-01
 3.685525358E-01 5.348443985E-02 -4.852718696E-01
 3.556810021E-01 5.306055024E-02 -4.752896758E-01
 3.439210057E-01 5.264489725E-02 -4.654259830E-01
 3.317126930E-01 5.213870853E-02 -4.531911525E-01
 3.210986257E-01 5.165416747E-02 -4.395124289E-01
 3.089092374E-01 5.104558542E-02 -4.285009033E-01
 2.956278920E-01 5.033463240E-02 -4.163101624E-01
 2.816208601E-01 4.949581623E-02 -4.030890081E-01
 2.684875727E-01 4.865579307E-02 -3.942071316E-01
 2.563769221E-01 4.782337695E-02 -3.829549828E-01
 2.435278594E-01 4.688090086E-02 -3.702256408E-01
 2.303237766E-01 4.583996534E-02 -3.577773302E-01
 2.178436220E-01 4.480466247E-02 -3.470300757E-01
 2.060627043E-01 4.376470670E-02 -3.365609607E-01
 1.948405802E-01 4.272176698E-02 -3.259935888E-01
 1.822556406E-01 4.148680717E-02 -3.150123565E-01
 1.702525914E-01 4.024175182E-02 -3.038108041E-01
 1.586060077E-01 3.896173090E-02 -2.901480590E-01
 1.465303898E-01 3.757138923E-02 -2.809925977E-01
 1.357263327E-01 3.626741841E-02 -2.725696782E-01
 1.242288575E-01 3.479565680E-02 -2.604368886E-01
 1.125684604E-01 3.321504965E-02 -2.482379662E-01
 1.019867361E-01 3.169626743E-02 -2.365417571E-01
 9.216639400E-02 3.020727448E-02 -2.190963444E-01
 8.090546727E-02 2.838439308E-02 -1.998173601E-01
 6.898736954E-02 2.630364150E-02 -1.820565028E-01
 5.953139812E-02 2.451610751E-02 -1.600690522E-01
 5.000846833E-02 2.255917899E-02 -1.448738527E-01
 4.152641818E-02 2.065306157E-02 -1.323812724E-01
 3.430371359E-02 1.886703633E-02 -1.046955338E-01
 2.809461579E-02 1.717176847E-02 -8.759304387E-02
 2.283982001E-02 1.558867004E-02 -5.630907456E-02
 1.906372048E-02 1.433527842E-02 -2.894877010E-02
 1.558178943E-02 1.306993701E-02 -7.773789225E-04
 1.308029611E-02 1.207439415E-02 6.207456245E-02
 1.083907206E-02 1.109577157E-02 8.681422267E-02
 9.187338874E-03 1.032026671E-02 1.000595912E-01
 7.682471070E-03 9.550293908E-03 1.314614730E-01
 6.248866674E-03 8.756840602E-03 1.611860246E-01
 4.328510258E-03 7.561105303E-03 2.213736268E-01
 2.632757183E-03 6.320993882E-03 2.816189451E-01
 1.130736317E-03 4.975298420E-03 4.735921777E-01
 -3.268104920E-04 3.217223799E-03 8.355486764E-01
 -1.100046444E-03 1.792410389E-03 9.173367881E-01
 -1.464723377E-03 6.495980197E-04 1.027332636E+00
 -1.617699047E-03 -7.096267655E-04 9.956163304E-01
 -1.430129050E-03 -2.259711269E-03 1.151504403E+00
 -7.854845608E-04 -3.979904577E-03 9.920272353E-01
 4.194290086E-04 -5.839104764E-03 6.027345970E-01
 2.249928657E-03 -7.803100161E-03 4.333457651E-01
 3.915076610E-03 -9.217009880E-03 3.539273598E-01
 5.910310894E-03 -1.064736210E-02 2.959965399E-01
 7.407666650E-03 -1.160135586E-02 2.643543096E-01
 9.314173833E-03 -1.269846223E-02 2.274244783E-01
 1.156898402E-02 -1.387726422E-02 2.062571155E-01
 1.466845628E-02 -1.533405948E-02 1.623327362E-01
 1.768147014E-02 -1.661386900E-02 1.107934132E-01
 2.150443010E-02 -1.808352396E-02 3.527747246E-02
 2.678067423E-02 -1.990649477E-02 -5.333826433E-03
 3.233689815E-02 -2.163876779E-02 -4.147561107E-02
 3.973947465E-02 -2.369974926E-02 -6.473507592E-02
 4.725416750E-02 -2.559715696E-02 -9.930998589E-02
 5.602009967E-02 -2.760211192E-02 -1.209214883E-01
 6.468901783E-02 -2.941760607E-02 -1.559516874E-01
 7.486443967E-02 -3.137480840E-02 -1.799085999E-01
 8.483037353E-02 -3.315614909E-02 -2.065231894E-01
 9.518193454E-02 -3.487726673E-02 -2.316779681E-01
 1.059120893E-01 -3.655069694E-02 -2.483570717E-01
 1.174352840E-01 -3.823268041E-02 -2.620071809E-01
 1.288397014E-01 -3.980136290E-02 -2.752397751E-01
 1.397423446E-01 -4.121796787E-02 -2.895371951E-01
 1.506936401E-01 -4.256420210E-02 -3.028891727E-01
 1.626901031E-01 -4.395264387E-02 -3.161230582E-01
 1.746004224E-01 -4.525259882E-02 -3.314134912E-01
 1.867121458E-01 -4.649485275E-02 -3.461211281E-01
 1.974667609E-01 -4.753853753E-02 -3.637097779E-01
 2.088437229E-01 -4.857537895E-02 -3.816086418E-01
 2.213787884E-01 -4.963438585E-02 -3.967472255E-01
 2.345012277E-01 -5.067440495E-02 -4.153234605E-01
 2.472713292E-01 -5.159979314E-02 -4.391370407E-01
 2.604396939E-01 -5.245272815E-02 -4.603479480E-01
 2.719992697E-01 -5.312186480E-02 -4.790384163E-01
 2.852175832E-01 -5.380594730E-02 -4.978979397E-01
 2.984757721E-01 -5.437922850E-02 -5.200397887E-01
 3.113700747E-01 -5.483621359E-02 -5.393714418E-01
 3.232437372E-01 -5.516809598E-02 -5.582493646E-01
 3.356610835E-01 -5.541557074E-02 -5.743608965E-01
 3.465844989E-01 -5.553819239E-02 -5.896243109E-01
 3.578149080E-01 -5.557597801E-02 -5.997964633E-01
 3.689276278E-01 -5.550383031E-02 -6.064580954E-01
 3.795875907E-01 -5.535354093E-02 -6.105257228E-01
 3.908506036E-01 -5.509850383E-02 -6.124631663E-01
 4.031903446E-01 -5.467651412E-02 -6.038080592E-01
 4.154120386E-01 -5.415263772E-02 -5.869527317E-01
 4.284998178E-01 -5.345174298E-02 -5.675137519E-01
 4.411428869E-01 -5.262183771E-02 -5.394906714E-01
 4.537499845E-01 -5.166655034E-02 -5.014303770E-01
 4.659634829E-01 -5.062434822E-02 -4.628899646E-01
 4.785379469E-01 -4.944458604E-02 -4.269920986E-01
 4.897302985E-01 -4.827954620E-02 -3.880332561E-01
 5.019446015E-01 -4.695370421E-02 -3.452546780E-01
 5.155696869E-01 -4.537983611E-02 -3.082603116E-01
 5.292413235E-01 -4.369118810E-02 -2.632308867E-01
 5.430120826E-01 -4.193607718E-02 -2.193151393E-01
 5.565581918E-01 -4.013494775E-02 -1.820762374E-01
 5.690627694E-01 -3.844878450E-02 -1.478909312E-01
 5.822116733E-01 -3.663773835E-02 -1.163859964E-01
 5.940253139E-01 -3.499260172E-02 -8.671397366E-02
 6.059594750E-01 -3.331330419E-02 -5.927192068E-02
 6.194611788E-01 -3.142350540E-02 -3.237883412E-02
 6.338329911E-01 -2.940408513E-02 -7.385194116E-03
 6.473945379E-01 -2.746999264E-02 2.060807504E-02
 6.608814597E-01 -2.558319643E-02 4.576285622E-02
 6.744542718E-01 -2.369081974E-02 6.593302248E-02
 6.868050098E-01 -2.196401544E-02 8.930700486E-02
 6.994470954E-01 -2.025732957E-02 1.099939463E-01
 7.137255669E-01 -1.834899560E-02 1.254259127E-01
 7.264809608E-01 -1.664965972E-02 1.460037180E-01
 7.380384207E-01 -1.513258647E-02 1.671040702E-01
 7.502094507E-01 -1.360409427E-02 1.816628090E-01
 7.624037862E-01 -1.206802763E-02 1.975515782E-01
 7.748733759E-01 -1.055424474E-02 2.175833841E-01
 7.866805792E-01 -9.200200438E-03 2.298928197E-01
 7.987006307E-01 -7.799301762E-03 2.458867276E-01
 8.101912141E-01 -6.575523876E-03 2.630189795E-01
 8.215844631E-01 -5.365925375E-03 2.751700407E-01
 8.340414762E-01 -4.136254080E-03 2.933080525E-01
 8.464215398E-01 -3.024045378E-03 3.058933751E-01
 8.584250808E-01 -2.020791639E-03 3.176477079E-01
 8.710874319E-01 -1.080802758E-03 3.284510289E-01
 8.833853006E-01 -2.680390608E-04 3.396430331E-01
 8.973165154E-01 4.654728109E-04 3.457376144E-01
 9.075098634E-01 9.064595215E-04 3.538628908E-01
 9.175964594E-01 1.242795610E-03 3.566454123E-01
 9.272801876E-01 1.470144372E-03 3.560401439E-01
 9.362646341E-01 1.608335180E-03 3.547724805E-01
 9.491535425E-01 1.681192662E-03 3.510786413E-01
 9.622811079E-01 1.606030739E-03 3.571225158E-01
 9.770938754E-01 1.350512146E-03 3.474364243E-01
 9.896838665E-01 9.781345725E-04 3.639246345E-01
 -5.000000000E-01 -1.000000000E+00 4.336896347E-02
 3.500000000E+00 -1.000000000E+00 1.071905584E-02
 3.500000000E+00 1.000000000E+00 -7.073712284E-05
 -5.000000000E-01 1.000000000E+00 4.029406827E-02
 -5.000000000E-01 5.000000000E-01 7.876725491E-02
 -5.000000000E-01 2.752797990E-12 1.230836957E-01
 -5.000000000E-01 -5.000000000E-01 8.280425670E-02
 -9.421907698E-13 -1.000000000E+00 1.730850766E-02
 5.000000000E-01 -1.000000000E+00 -2.425005961E-02
 1.000000000E+00 -1.000000000E+00 -2.975154656E-03
 1.500000000E+00 -1.000000000E+00 3.052134120E-02
 2.000000000E+00 -1.000000000E+00 2.721447165E-02
 2.500000000E+00 -1.000000000E+00 1.800346839E-02
 3.000000000E+00 -1.000000000E+00 1.278234088E-02
 3.500000000E+00 -5.000000000E-01 1.121850609E-02
 3.500000000E+00 -2.752797990E-12 1.131767816E-02
 3.500000000E+00 5.000000000E-01 6.140897014E-03
 3.000000000E+00 1.000000000E+00 -6.025415719E-03
 2.500000000E+00 1.000000000E+00 -1.446393369E-02
 2.000000000E+00 1.000000000E+00 -2.922627115E-02
 1.500000000E+00 1.000000000E+00 -6.324751279E-02
 1.000000000E+00 1.000000000E+00 -1.110275023E-01
 5.000000000E-01 1.000000000E+00 -7.285172652E-02
 1.733724275E-12 1.000000000E+00 9.815149808E-03
 6.808966270E-01 -3.324461463E-02 7.329992592E-02
 7.817591724E-01 -1.915259770E-02 2.182325286E-01
 9.052186145E-01 -9.399812208E-03 3.357603580E-01
 7.076314357E-01 5.040426526E-02 -3.473716328E-01
 8.000247541E-01 4.369583267E-02 -2.446104235E-01
 2.743549523E-01 6.000840404E-02 -3.903827665E-01
 2.794844342E-01 -6.309622587E-02 -4.750915883E-01
 9.142341077E-01 2.801456584E-02 -8.581699704E-02
 6.134530618E-01 6.231395659E-02 -4.683677811E-01
 5.516981427E-01 -5.416726403E-02 -1.908525678E-01
 3.856886818E-01 -6.640598990E-02 -5.872728251E-01
 4.353790622E-01 6.584027890E-02 -5.293092385E-01
 1.837346392E+00 -6.011867203E-01 2.580985682E-02
 1.721078165E+00 6.327805859E-01 -1.904152415E-02
 3.031183521E+00 2.156802798E-01 5.105220388E-03
 7.500000000E-01 -5.669872981E-01 -1.075105044E-02
 4.579612954E-01 -6.424472441E-02 -4.668402157E-01
 7.385548757E-01 6.354076604E-01 -1.655265556E-01
 5.154873892E-01 6.770517175E-02 -5.436607200E-01
 2.734828618E+00 -5.327110523E-01 1.094508625E-02
 1.183661305E+00 6.295987458E-01 -6.354971699E-02
 9.831808572E-01 3.463140285E-01 -6.299257900E-02
 1.263972526E+00 -6.316332611E-01 4.635962975E-02
 1.535194904E+00 -2.529574781E-01 2.962213233E-02
 3.326084715E-01 6.146813214E-01 -1.031529786E-01
 1.067473050E-01 4.187569027E-02 -2.307634730E-01
 1.603677261E-01 5.465105568E-02 -2.771699677E-01
 3.492479270E-01 6.052459131E-02 -4.626857035E-01
 2.234538391E-01 -5.322566417E-01 -5.923427138E-02
 7.700023936E-02 -4.282758628E-02 -1.704568754E-01
 1.283902371E-01 -5.169752235E-02 -2.587404096E-01
 1.911855958E-01 -5.633046500E-02 -3.424986279E-01
 2.249085272E+00 -5.889500130E-01 1.556652070E-02
 1.982525461E+00 -2.129456427E-01 1.259587378E-02
 2.413159738E+00 -1.868393142E-01 6.837294522E-03
 2.184555669E+00 1.580704285E-01 1.143038845E-03
 1.795637441E+00 1.153002312E-01 4.822304599E-03
 -2.689777886E-01 2.392281625E-01 1.330093496E-01
 -9.926014854E-02 6.174296641E-01 2.589909946E-02
 2.185462312E-02 3.251393516E-01 1.788623340E-02
 4.268401670E-02 3.120892518E-02 -8.613994939E-02
 -2.709405842E-01 -2.508913704E-01 1.371001425E-01
 -1.596554271E-01 -5.613663490E-01 5.289530128E-02
 2.201737254E+00 5.882140678E-01 -9.625033676E-03
 2.739791217E+00 6.016859916E-01 -3.041266586E-03
 -2.508071935E-01 8.082438529E-04 1.802437866E-01
 -1.423661477E-01 1.241553104E-01 1.937005131E-01
 -1.381982913E-01 -1.218355644E-01 2.075836108E-01
 3.425898482E-02 -3.022187013E-02 -1.406681162E-02
 3.024776344E-02 -3.775024182E-01 2.818300130E-02
 2.791574123E-01 -3.152968089E-01 -2.066772252E-01
 3.289212901E-01 -6.837440105E-02 -5.414260895E-01
 -1.207033386E-01 2.340167866E-03 2.752283437E-01
 -5.591127445E-02 6.541882616E-02 3.147184215E-01
 1.956587679E-02 1.890436612E-02 3.187475990E-03
 -3.862988769E-02 1.760604384E-01 1.388039898E-01
 6.773953922E-03 9.387928849E-02 1.511733518E-01
 7.307437832E-02 4.059337524E-02 -1.543975193E-01
 4.547503568E-02 1.742530816E-01 2.524995243E-03
 1.820587286E-01 2.574372526E-01 -1.533147947E-01
 2.233548483E-01 5.647670565E-02 -3.407828484E-01
 1.578458803E-01 1.536985135E-01 -1.925993920E-01
 7.142364873E-02 1.066028114E-01 -6.548684501E-02
 1.218056847E-01 1.038794746E-01 -1.831488839E-01
 1.268275954E-01 4.978504373E-02 -2.441895690E-01
 -1.024448682E-02 5.079144955E-02 3.202648261E-01
 -5.438496898E-02 1.262077356E-02 4.318578351E-01
 2.010828682E-02 5.907938729E-02 1.309887901E-01
 4.965305358E-02 6.816955766E-02 -1.999944242E-02
 1.514931346E-01 4.300044414E-01 -6.006090201E-02
 3.110413231E-01 3.339965644E-01 -2.343795881E-01
 2.769509067E-01 2.042694320E-01 -2.831095246E-01
 4.144315503E-01 2.435516981E-01 -3.543018346E-01
 4.602934496E-01 4.204513441E-01 -2.693303391E-01
 5.512146900E-01 2.735412681E-01 -3.517722192E-01
 5.618082357E-01 6.386213537E-02 -5.263314141E-01
 4.971301433E-01 1.690136446E-01 -4.379157834E-01
 4.794365168E-01 6.834147852E-02 -5.457021196E-01
 6.125027938E-01 1.832247758E-01 -3.801085950E-01
 6.646657371E-01 5.609121519E-02 -4.006731345E-01
 6.838376383E-01 5.562157793E-02 -3.765638327E-01
 6.638265302E-01 2.726698814E-01 -2.910958645E-01
 7.213694469E-01 1.856564205E-01 -2.775114951E-01
 3.813597546E-01 1.705989325E-01 -3.963255932E-01
 3.972194990E-01 6.866186530E-02 -5.000486605E-01
 3.733539795E-01 6.627957150E-02 -4.803304774E-01
 6.660914744E-01 1.405449406E-01 -3.511580420E-01
 7.793062338E-01 2.881978371E-01 -2.002477669E-01
 8.236554204E-01 1.772810050E-01 -1.818095059E-01
 8.622985836E-01 3.580807574E-02 -1.893855332E-01
 8.399998892E-01 4.065777253E-02 -2.053298606E-01
 7.877861632E-01 1.154552988E-01 -2.334076679E-01
 7.454073973E-01 4.906795039E-02 -2.982999853E-01
 5.656704715E-01 1.364228936E-01 -4.516714338E-01
 5.996807534E-01 4.243364173E-01 -2.551625008E-01
 3.109349702E+00 -2.612919967E-01 9.961056703E-03
 9.006050351E-02 7.294799301E-02 -1.590688345E-01
 -2.512427665E-02 2.074786619E-02 5.189750683E-01
 -3.274673741E-03 3.048778535E-02 4.167986371E-01
 1.103465443E-02 1.377930516E-02 1.208749345E-01
 5.854237381E-03 1.076726647E-02 2.262736483E-01
 1.542175881E-02 3.793710296E-02 1.408883664E-01
 2.983917198E-02 2.300051953E-02 -5.859867590E-02
 2.554423146E+00 2.100108070E-01 2.489509418E-04
 -7.376369304E-03 1.395030111E-02 5.632737570E-01
 8.112056205E-04 7.867604694E-03 4.175173065E-01
 1.186944772E-01 7.201374813E-02 -2.129085759E-01
 8.717319863E-02 5.341178887E-02 -1.695531583E-01
 1.476355510E-01 7.650010351E-02 -2.392759027E-01
 1.429175888E-01 5.700408725E-02 -2.522429614E-01
 1.744533340E-01 7.354813499E-02 -2.764683374E-01
 2.003671559E-01 5.467921280E-02 -3.185594470E-01
 1.608201031E-01 1.017882737E-01 -2.339914773E-01
 2.023600657E-01 1.013151419E-01 -2.769011082E-01
 2.182651428E-01 1.602494412E-01 -2.550681144E-01
 2.682059637E-01 1.293571329E-01 -3.242838171E-01
 3.185016618E-01 6.457761681E-02 -4.257684950E-01
 2.412286218E-01 9.465141645E-02 -3.307287735E-01
 2.499513911E-01 5.958594189E-02 -3.662810152E-01
 1.866608100E-01 5.507561635E-02 -3.060929383E-01
 2.632376477E-01 5.832028573E-02 -3.814267908E-01
 2.644522317E-01 7.471547756E-02 -3.657131381E-01
 2.994014457E-01 1.035899471E-01 -3.737568347E-01
 2.893826411E-01 7.804288669E-02 -3.870811458E-01
 1.071435010E-02 2.485955275E-02 1.790568585E-01
 2.960567415E-03 1.695196925E-02 3.823413392E-01
 1.925421479E-01 6.773018729E-02 -3.010563560E-01
 2.125612161E-01 6.930993295E-02 -3.210051587E-01
 8.436402812E-01 4.288125432E-01 -1.359889171E-01
 8.883810529E-01 2.785034154E-01 -1.164795319E-01
 9.510785837E-01 1.818068199E-01 -4.877694427E-02
 1.057572673E+00 2.212963876E-01 1.542510100E-02
 9.731082261E-01 1.516953542E-02 1.025043129E-01
 9.460537548E-01 1.806279223E-02 8.484541322E-03
 1.079308680E+00 1.162839176E-01 7.189253010E-02
 1.188700094E+00 1.477174747E-01 4.319899804E-02
 1.172703710E+00 3.142981031E-02 7.625878605E-02
 1.313999234E+00 6.286709091E-02 4.028338370E-02
 1.354112979E+00 2.445536052E-01 1.304871857E-02
 1.238398048E+00 -9.088842884E-02 7.220486939E-02
 1.106795315E+00 -1.368347648E-01 1.276542019E-01
 9.697585054E-01 -1.222146264E-02 3.259742864E-01
 8.885864064E-01 1.178621276E-01 -1.218002963E-01
 9.681104612E-01 1.079510392E-01 1.020379425E-02
 1.178575741E+00 -2.363936731E-01 9.128457593E-02
 1.057390549E+00 -2.617840745E-01 1.221627792E-01
 9.935698224E-01 -1.525894982E-01 1.862205348E-01
 8.413956265E-01 -1.509665647E-02 2.885887475E-01
 8.161291616E-01 -1.923253959E-02 2.575089553E-01
 8.645293179E-01 -1.513289683E-02 3.087357597E-01
 9.223399035E-01 -2.463499405E-01 1.463862679E-01
 8.599686646E-01 -1.507925752E-01 1.879912351E-01
 7.324394901E-01 -2.560396516E-02 1.524302741E-01
 7.587237994E-01 -2.193061907E-02 1.873289390E-01
 7.961470441E-01 -2.330046294E-01 1.064761228E-01
 6.155211391E-01 -4.146342546E-02 -4.271454167E-02
 6.435340993E-01 -4.127850262E-02 8.350511587E-03
 7.372537787E-01 -1.606846183E-01 9.424560922E-02
 6.836729515E-01 -2.330637642E-01 6.708179752E-03
 6.425920163E-01 -1.405579704E-01 -1.636033307E-02
 5.855185303E-01 -1.948343066E-01 -1.058018351E-01
 5.556614659E-01 -1.393972060E-01 -1.706294629E-01
 4.958084282E-01 -5.960208979E-02 -3.543560182E-01
 5.020679863E-01 -2.069610120E-01 -2.233850437E-01
 5.509091578E-01 -2.974756290E-01 -1.349622656E-01
 4.800580903E-01 -1.349561803E-01 -3.250840959E-01
 4.263009227E-01 -6.767412782E-02 -5.429451644E-01
 4.294470593E-01 -1.911191472E-01 -3.351960898E-01
 8.069296941E-01 -9.576915389E-02 1.938349897E-01
 9.826312690E-01 -4.082407449E-01 8.782488903E-02
 6.978742090E-01 -1.058501413E-01 6.687546521E-02
 9.222410510E-01 -8.966673277E-02 2.469528429E-01
 9.293830486E-01 -7.523667163E-03 3.441428703E-01
 4.173179007E-01 -1.275324514E-01 -4.448599138E-01
 3.620626050E-01 -1.594810330E-01 -4.081369380E-01
 5.944408593E-01 -1.090799553E-01 -8.542070456E-02
 3.733153003E-01 -1.099650721E-01 -4.952892162E-01
 3.041041809E-01 -1.394531392E-01 -4.024201194E-01
 3.609208562E-01 -6.733044231E-02 -5.781316005E-01
 1.082057255E+00 3.532397289E-02 1.183187218E-01
 5.192526559E-01 -1.039046488E-01 -2.611884538E-01
 5.238647408E-01 -5.634977918E-02 -2.769396800E-01
 9.277350771E-01 8.011520199E-02 -4.968328479E-02
 1.043734907E+00 -7.912675555E-02 1.891130547E-01
 1.429848525E+00 -9.232881093E-02 3.466514431E-02
 2.996357934E-01 -2.074551202E-01 -3.175016312E-01
 2.480028499E-01 -1.541904134E-01 -3.212600819E-01
 2.271283398E-01 -6.460260533E-02 -3.883652580E-01
 2.723833140E-01 -1.109761267E-01 -4.035011455E-01
 3.044389263E-01 -9.699409499E-02 -4.600395743E-01
 3.032498377E-01 -7.103225511E-02 -5.019374012E-01
 4.520076960E-01 -1.031885180E-01 -4.257408679E-01
 3.982669676E-01 -9.770343557E-02 -5.180858817E-01
 6.904729741E-01 -3.582512051E-01 -1.351550927E-02
 6.282938933E-01 -4.213380262E-02 -1.910222469E-02
 6.383549568E-01 -6.035619103E-02 -4.764830218E-03
 6.561329606E-01 -5.094246987E-02 2.844084954E-02
 6.616383761E-01 -8.087780471E-02 2.499476012E-02
 3.687576529E-01 -2.514232422E-01 -2.909513959E-01
 3.963757739E-01 -3.623139742E-01 -1.840799734E-01
 5.125772051E-01 -4.727860917E-01 -1.171434709E-01
 5.082476728E-01 -5.621403898E-02 -3.198133009E-01
 5.074745328E-01 -7.488712326E-02 -3.080004293E-01
 4.866893558E-01 -7.213575567E-02 -3.730372981E-01
 4.220436256E-01 -8.941656667E-02 -5.062561205E-01
 6.553909274E-01 -3.629877154E-02 3.123293556E-02
 4.100311878E-01 -6.706665649E-02 -5.662332257E-01
 4.431864323E-01 -7.637523503E-02 -4.856284406E-01
 4.374504389E-01 -6.253341956E-02 -5.305089246E-01
 4.852099293E-01 -5.919716829E-02 -3.928475535E-01
 2.908343861E-01 -6.512980515E-02 -4.898497838E-01
 2.819671906E-01 -7.988163937E-02 -4.561732943E-01
 2.517272106E-01 -6.613997308E-02 -4.277519706E-01
 2.577964118E-01 -8.409880978E-02 -4.141491233E-01
 2.672357018E-01 -6.646520684E-02 -4.520032240E-01
 2.382512015E-01 -7.738022720E-02 -3.919069053E-01
 2.180677554E-01 -8.438726609E-02 -3.537390545E-01
 2.394663649E-01 -1.038164300E-01 -3.640590944E-01
 2.007395619E-01 -1.142855191E-01 -2.937923304E-01
 1.899625586E-01 -1.660909036E-01 -2.319978138E-01
 1.459068727E-01 -1.329068114E-01 -1.996629917E-01
 1.613976570E-01 -9.453733389E-02 -2.604477931E-01
 1.560377265E-01 -5.648096388E-02 -2.955278821E-01
 1.157804607E-01 -9.611055222E-02 -1.876578832E-01
 8.641055205E-02 -1.433394554E-01 -6.890643037E-02
 1.104102758E-01 -4.875232486E-02 -2.357082038E-01
 6.403927701E-02 -9.722551132E-02 -5.453372394E-02
 1.336760051E-01 -1.996373598E-01 -1.252493900E-01
 3.524889369E-02 -2.102109824E-01 3.039084423E-02
 2.397758618E-01 -6.207940074E-02 -4.116133065E-01
 4.731144057E-01 -6.241990521E-02 -4.239091859E-01
 -9.251481161E-02 -2.756670950E-01 1.065030206E-01
 -3.394404804E-02 -1.395011081E-01 1.916518681E-01
 1.014891564E+00 -6.363735044E-01 5.258208919E-02
 2.119865961E-01 -6.432638475E-02 -3.667086116E-01
 1.919825781E-01 -7.492150860E-02 -3.240160681E-01
 3.170039531E-01 -8.067023777E-02 -5.070633437E-01
 3.359392202E-01 -8.341667343E-02 -5.232899520E-01
 9.016278665E-02 -7.563447446E-02 -1.555818058E-01
 1.156035050E+00 3.795548296E-01 -2.027550809E-02
 1.404009032E+00 4.844635377E-01 -1.467038789E-02
 1.612547388E+00 3.162973750E-01 -1.588569491E-03
 1.666564459E+00 -1.064892754E-01 1.920431483E-02
 2.175070198E-01 -2.250978794E-01 -2.227427583E-01
 1.532151556E-01 -3.100003484E-01 -1.043383951E-01
 4.849299388E-01 -9.552597528E-02 -3.505615651E-01
 1.424486356E-01 -6.963990039E-02 -2.555874082E-01
 1.705307331E-01 -6.925274320E-02 -2.976245769E-01
 4.495115260E-01 -2.618586009E-01 -2.454101147E-01
 1.145066457E+00 -4.070219816E-01 7.671104200E-02
 3.439359709E-01 -7.026823536E-02 -5.575579124E-01
 3.581316452E-01 -8.517266415E-02 -5.326853374E-01
 3.772126921E-01 -8.068420935E-02 -5.558618835E-01
 -7.419208666E-02 -6.568706438E-02 3.184390240E-01
 -3.919964847E-02 -3.287910514E-02 4.945942973E-01
 1.605568557E-02 -1.922141763E-02 1.693454096E-01
 1.943987332E-03 -7.731187283E-02 2.419196150E-01
 -2.942623501E-02 -5.450417385E-03 6.466406228E-01
 -5.030790429E-03 -4.050313024E-02 4.321351797E-01
 -1.301706018E-02 -2.139085587E-02 6.253025680E-01
 1.570627571E-02 -4.153404967E-02 1.864510670E-01
 -2.432036809E-04 -1.604001197E-02 5.021419452E-01
 9.630396241E-03 -1.668930188E-02 2.941458164E-01
 2.251286592E-02 -2.470567280E-02 6.557403565E-02
 3.330378324E-02 -5.003341253E-02 1.006240801E-01
 6.168783510E-02 -3.822547378E-02 -1.280303409E-01
 8.328340170E-03 -2.646419769E-02 3.778802223E-01
 5.934572972E-02 -6.395217614E-02 -4.238802355E-02
 5.989070091E-03 -1.281558399E-02 3.696049091E-01
 9.198449798E-02 -5.522213920E-02 -2.004469492E-01
 -8.166883412E-03 6.566883634E-04 9.604105496E-01
 1.115915971E+00 -4.325818966E-02 1.186458417E-01
 1.052195780E+00 -1.837760157E-02 1.671902294E-01
 1.011359946E+00 -4.156532080E-02 2.486493024E-01
 9.938273700E-01 -2.445810688E-02 2.964954548E-01
 9.752587174E-01 -4.114897936E-02 2.876113791E-01
 9.470895384E-01 -2.954677365E-02 3.150893900E-01
 1.032447613E+00 2.424029059E-02 1.712737726E-01
 1.021406171E+00 7.283321740E-02 1.005747313E-01
 1.004154693E+00 3.862787060E-02 1.488413266E-01
 9.705516899E-01 6.144868298E-02 4.366020218E-02
 9.424098001E-01 4.802387156E-02 -9.564156559E-03
 9.141625264E-01 4.898191608E-02 -8.219359984E-02
 8.854003612E-01 3.347995974E-02 -1.534742604E-01
 9.290216216E-01 3.316804119E-02 -4.546607479E-02
 4.656812677E-01 -8.043938277E-02 -4.197863617E-01
 9.807264244E-01 -7.694461260E-02 2.503820934E-01
 8.343248154E-01 1.188865476E-01 -1.834665277E-01
 8.594631278E-01 8.005471097E-02 -1.674329550E-01
 8.146514435E-01 8.182343464E-02 -2.164543015E-01
 7.758038805E-01 7.783239281E-02 -2.567038685E-01
 7.431680292E-01 9.484365372E-02 -2.859625030E-01
 7.730483290E-01 5.130494723E-02 -2.690044942E-01
 7.583308623E-01 4.676855243E-02 -2.854055054E-01
 7.548566564E-01 6.400569157E-02 -2.832093881E-01
 7.346928319E-01 6.512343730E-02 -3.054063169E-01
 7.075373922E-01 8.055778735E-02 -3.327345892E-01
 7.945286007E-01 5.909357047E-02 -2.455204535E-01
 7.048456395E-01 1.210716833E-01 -3.165062698E-01
 6.721925149E-01 9.945750314E-02 -3.684104925E-01
 6.268292426E-01 1.052200355E-01 -4.215639488E-01
 6.366274106E-01 6.023980857E-02 -4.393964740E-01
 5.851031672E-01 9.911717308E-02 -4.724335788E-01
 5.876883441E-01 6.354406953E-02 -4.993813983E-01
 5.740340237E-01 6.144092741E-02 -5.176017897E-01
 5.734040980E-01 7.809835454E-02 -5.001366538E-01
 5.388745019E-01 6.500464365E-02 -5.354723280E-01
 6.019502440E-01 7.807520744E-02 -4.691985272E-01
 6.254328649E-01 7.318451578E-02 -4.440221000E-01
 5.524313369E-01 7.510020752E-02 -5.197493402E-01
 5.252252374E-01 1.150674483E-01 -4.865517015E-01
 4.614788037E-01 1.309683251E-01 -4.736675503E-01
 5.304660907E-01 8.127384791E-02 -5.209538324E-01
 5.077425449E-01 9.027491576E-02 -5.204221225E-01
 6.504563833E-01 7.482740737E-02 -4.100268574E-01
 4.979429702E-01 6.907668329E-02 -5.473386775E-01
 4.872762702E-01 8.625133183E-02 -5.270024878E-01
 4.609481208E-01 8.822752102E-02 -5.136577894E-01
 4.262188253E-01 1.087704134E-01 -4.814849266E-01
 5.504899848E-01 6.170540604E-02 -5.348951692E-01
 5.272193784E-01 6.338090110E-02 -5.414863372E-01
 6.984999902E-01 6.441465020E-02 -3.522896497E-01
 4.266355876E-01 1.553265299E-01 -4.336698775E-01
 3.791944483E-01 1.090561658E-01 -4.493823163E-01
 3.349793000E-01 1.323799486E-01 -3.786044022E-01
 3.466966753E-01 9.476190864E-02 -4.321720439E-01
 3.194700530E-01 8.726684586E-02 -4.071424278E-01
 3.324897197E-01 7.253713900E-02 -4.338700910E-01
 3.642233033E-01 8.135782745E-02 -4.566048859E-01
 3.842542953E-01 7.924568502E-02 -4.759745829E-01
 4.046188977E-01 8.694857280E-02 -4.862920425E-01
 4.129500123E-01 7.077285467E-02 -5.113715974E-01
 8.927574621E-01 7.138021754E-02 -1.182933320E-01
 4.608257192E-02 -3.942440103E-02 -7.304009599E-02
 9.579973442E-01 1.859672422E-02 5.082387213E-02
 9.469223572E-01 2.854385211E-02 9.604910133E-03
 9.696389284E-01 3.247932915E-02 6.916247564E-02
 5.304088998E-01 -7.830534923E-02 -2.392890164E-01
 1.010935034E-01 1.490989513E-01 -1.169438994E-01
 3.489345958E-02 4.439839197E-02 -2.759684890E-02
 4.467990499E-01 -7.181235465E-01 -4.590083879E-02
 5.318621994E-01 6.225486842E-01 -1.900048482E-01
 3.970767544E-01 -7.917755126E-02 -5.566632889E-01
 8.380859273E-01 6.225315548E-02 -2.011893593E-01
 6.008386860E-01 6.056690778E-02 -4.842672475E-01
 6.493518050E-01 5.662923875E-02 -4.231386914E-01
 5.553834003E-01 9.751332082E-02 -4.948787061E-01
 4.305582501E-01 7.935676729E-02 -5.101426427E-01
 4.489670441E-01 6.880521490E-02 -5.306862385E-01
 9.381941032E-01 -5.757038889E-02 2.866126415E-01
 8.993781961E-01 -5.268437373E-02 2.878524692E-01
 9.230554830E-01 -3.396376833E-02 3.064937451E-01
 9.182260530E-01 -1.638794203E-02 3.333733310E-01
 9.009479727E-01 -2.770990225E-02 3.118487038E-01
 8.879393611E-01 -1.695226073E-02 3.225785048E-01
 8.735845360E-01 -3.277454811E-02 2.943745009E-01
 8.599002107E-01 -7.147784938E-02 2.429832448E-01
 8.207090305E-01 -5.591311285E-02 2.299367773E-01
 7.835925063E-01 -5.920530510E-02 1.931615967E-01
 8.479403867E-01 -4.313923192E-02 2.672117462E-01
 8.028382266E-01 -3.642348858E-02 2.313950949E-01
 8.303690499E-01 -3.021419433E-02 2.609653299E-01
 7.555211336E-01 -9.787320809E-02 1.387826558E-01
 7.225615048E-01 -6.845825927E-02 1.144787681E-01
 7.067564098E-01 -2.948770872E-02 1.145666143E-01
 7.507105763E-01 -5.442882875E-02 1.597600421E-01
 6.931093887E-01 -7.079953599E-02 7.548678315E-02
 7.209898812E-01 -2.911538447E-02 1.318147013E-01
 7.310675186E-01 -4.232467168E-02 1.397701707E-01
 8.043151302E-01 -1.746646598E-02 2.451572483E-01
 6.951794629E-01 -3.262695053E-02 9.438278979E-02
 7.069567110E-01 -4.636201456E-02 1.066993217E-01
 4.632030054E-01 6.531692160E-02 -5.404528262E-01
 3.167577786E-01 -6.601624070E-02 -5.298452057E-01
 6.677981763E-01 -3.691357725E-02 5.124647352E-02
 2.194962960E-02 2.758573289E-02 2.687268138E-02
 -1.309238017E-01 2.653784637E-01 1.115590831E-01
 2.364471805E-01 7.007792605E-02 -3.443307349E-01