TITLE     = "Visualization of the solution"
VARIABLES = "x"
"y"
"Pressure_Coefficient"
ZONE T="Zone"
 STRANDID=0, SOLUTIONTIME=0
 Nodes=708, Elements=1201, ZONETYPE=FEQuadrilateral
 DATAPACKING=POINT
 DT=(DOUBLE DOUBLE DOUBLE )
 1.000164986E+00 5.107618636E-04 3.149401884E-01
 9.878599048E-01 3.055758076E-03 2.844534143E-01
 9.744470119E-01 5.707096308E-03 1.890038161E-01
 9.583522677E-01 9.044820443E-03 1.355665096E-01
 9.433614016E-01 1.203165110E-02 7.342736221E-02
 9.288727045E-01 1.499241590E-02 3.238176932E-02
 9.172452092E-01 1.730076224E-02 3.018718285E-04
 9.055081010E-01 1.963375509E-02 -4.404348520E-02
 8.941797018E-01 2.192145959E-02 -7.988694700E-02
 8.821246624E-01 2.418757230E-02 -1.060427120E-01
 8.700453043E-01 2.647782117E-02 -1.338591271E-01
 8.576560020E-01 2.873292752E-02 -1.627634218E-01
 8.456491232E-01 3.093131259E-02 -1.904078411E-01
 8.346395493E-01 3.285852447E-02 -2.088095550E-01
 8.231388330E-01 3.484296426E-02 -2.394823953E-01
 8.109298944E-01 3.694359586E-02 -2.711182415E-01
 7.984445095E-01 3.900482506E-02 -2.869914160E-01
 7.858934402E-01 4.098086059E-02 -3.072766796E-01
 7.738580704E-01 4.289920628E-02 -3.291169783E-01
 7.620359659E-01 4.468704760E-02 -3.482706502E-01
 7.490450144E-01 4.664475098E-02 -3.748321418E-01
 7.355365753E-01 4.860691726E-02 -4.033889116E-01
 7.250288725E-01 5.011012033E-02 -4.283594350E-01
 7.138479352E-01 5.164790154E-02 -4.466979812E-01
 7.021468282E-01 5.319367722E-02 -4.719607400E-01
 6.888418794E-01 5.492925271E-02 -5.053239662E-01
 6.759111881E-01 5.653343350E-02 -5.381086950E-01
 6.657034755E-01 5.776248127E-02 -5.676344066E-01
 6.540375352E-01 5.909724161E-02 -5.988950705E-01
 6.425657272E-01 6.038073450E-02 -6.275248714E-01
 6.307604313E-01 6.158857420E-02 -6.547316388E-01
 6.193329692E-01 6.272795051E-02 -6.892806434E-01
 6.086715460E-01 6.371912360E-02 -7.253760563E-01
 5.964402556E-01 6.480436027E-02 -7.627873852E-01
 5.849856138E-01 6.575375795E-02 -7.832388700E-01
 5.716440678E-01 6.674896926E-02 -7.923044320E-01
 5.593558550E-01 6.758304685E-02 -7.938028275E-01
 5.471639037E-01 6.832618266E-02 -7.940301225E-01
 5.363261700E-01 6.893890351E-02 -7.853204641E-01
 5.245373249E-01 6.950165331E-02 -7.781807568E-01
 5.123534203E-01 7.003017515E-02 -7.813625633E-01
 5.014664531E-01 7.046351582E-02 -7.723543536E-01
 4.882577062E-01 7.085397840E-02 -7.546966942E-01
 4.749012887E-01 7.116102427E-02 -7.421838547E-01
 4.610951245E-01 7.139594853E-02 -7.304681611E-01
 4.478257895E-01 7.154113799E-02 -7.161117376E-01
 4.350478351E-01 7.158967108E-02 -7.005392223E-01
 4.222154617E-01 7.156696171E-02 -6.882474452E-01
 4.099153578E-01 7.148323953E-02 -6.735288422E-01
 3.972728550E-01 7.130926847E-02 -6.598106649E-01
 3.848575056E-01 7.107693702E-02 -6.507940340E-01
 3.730493486E-01 7.080390304E-02 -6.391558261E-01
 3.598249257E-01 7.040732354E-02 -6.226096611E-01
 3.469420969E-01 6.994014233E-02 -6.054315207E-01
 3.338907361E-01 6.939528883E-02 -5.946270303E-01
 3.228419423E-01 6.888530403E-02 -5.830911983E-01
 3.102433383E-01 6.822960079E-02 -5.682808755E-01
 2.967444360E-01 6.742984802E-02 -5.543180996E-01
 2.828789949E-01 6.653679907E-02 -5.420238168E-01
 2.705541253E-01 6.564111263E-02 -5.278810240E-01
 2.588732243E-01 6.473173201E-02 -5.167017318E-01
 2.464421690E-01 6.369777769E-02 -5.013343270E-01
 2.340876162E-01 6.255668402E-02 -4.840003937E-01
 2.217885703E-01 6.135537475E-02 -4.730995939E-01
 2.100750953E-01 6.013949215E-02 -4.614647129E-01
 1.982022077E-01 5.880810320E-02 -4.457648378E-01
 1.859474927E-01 5.734576657E-02 -4.269324052E-01
 1.740984917E-01 5.582132936E-02 -4.099058643E-01
 1.626262665E-01 5.426611379E-02 -3.952529841E-01
 1.507223696E-01 5.253937468E-02 -3.794111067E-01
 1.399828494E-01 5.087448657E-02 -3.567612177E-01
 1.281999648E-01 4.892333969E-02 -3.307398345E-01
 1.169408262E-01 4.693983868E-02 -3.057272865E-01
 1.062932760E-01 4.493672401E-02 -2.871373360E-01
 9.639796615E-02 4.295919836E-02 -2.602185652E-01
 8.536313474E-02 4.059003294E-02 -2.222164443E-01
 7.374656200E-02 3.789032251E-02 -1.810363405E-01
 6.395883113E-02 3.542970493E-02 -1.351587636E-01
 5.411891639E-02 3.273580596E-02 -8.887968443E-02
 4.552386701E-02 3.018002212E-02 -3.956034581E-02
 3.808256984E-02 2.775732987E-02 1.310585795E-02
 3.147525713E-02 2.541145869E-02 6.767623709E-02
 2.582448535E-02 2.322680689E-02 1.188918661E-01
 2.169555798E-02 2.148278803E-02 1.592391209E-01
 1.775434241E-02 1.968490332E-02 2.032794808E-01
 1.466348860E-02 1.814345829E-02 2.610441613E-01
 1.178878080E-02 1.659014635E-02 2.966525241E-01
 9.693900123E-03 1.535388269E-02 3.316155911E-01
 7.867123932E-03 1.419149153E-02 3.556092865E-01
 6.155055948E-03 1.300103124E-02 4.360511572E-01
 3.920137882E-03 1.124082040E-02 4.804331979E-01
 1.996233827E-03 9.438377805E-03 6.612818198E-01
 4.296718980E-04 7.602345198E-03 7.288416188E-01
 -1.091821236E-03 5.019140895E-03 7.853501337E-01
 -1.706252107E-03 3.080717288E-03 9.241036441E-01
 -1.873744535E-03 1.539529883E-03 9.178826366E-01
 -1.735747093E-03 -1.281019795E-04 9.285050145E-01
 -1.275711227E-03 -1.783151878E-03 1.071449472E+00
 -3.026040795E-04 -3.776220139E-03 7.039487116E-01
 1.165271737E-03 -5.822112784E-03 6.706187297E-01
 3.165251808E-03 -7.925881073E-03 6.230669459E-01
 4.981966689E-03 -9.489949793E-03 2.652063805E-01
 7.067640778E-03 -1.104104053E-02 2.712623264E-01
 8.746444248E-03 -1.216074824E-02 1.754942984E-01
 1.086162589E-02 -1.344495732E-02 1.164033438E-01
 1.324193086E-02 -1.476235967E-02 7.677907169E-02
 1.655884832E-02 -1.642026566E-02 4.195908192E-02
 1.954550669E-02 -1.776812039E-02 1.126576765E-02
 2.337238565E-02 -1.936166361E-02 -1.677503261E-02
 2.872908674E-02 -2.136540040E-02 -6.771894627E-02
 3.445911407E-02 -2.330207080E-02 -9.634107475E-02
 4.146756232E-02 -2.542763203E-02 -1.244822207E-01
 4.910502210E-02 -2.752853185E-02 -1.602350786E-01
 5.812098458E-02 -2.976941690E-02 -1.860459198E-01
 6.691201031E-02 -3.177169338E-02 -2.119536253E-01
 7.712120563E-02 -3.390254080E-02 -2.359567887E-01
 8.719308674E-02 -3.584762663E-02 -2.571523043E-01
 9.750009328E-02 -3.769479319E-02 -2.746123870E-01
 1.086495370E-01 -3.955634683E-02 -2.918821665E-01
 1.198700443E-01 -4.131205380E-02 -3.113284585E-01
 1.315594614E-01 -4.301957041E-02 -3.273288796E-01
 1.423536986E-01 -4.450671002E-02 -3.428198434E-01
 1.535850465E-01 -4.595876485E-02 -3.556345928E-01
 1.658381075E-01 -4.745510593E-02 -3.702117301E-01
 1.776321530E-01 -4.879771918E-02 -3.883707617E-01
 1.895617396E-01 -5.006899685E-02 -4.046003017E-01
 2.004370689E-01 -5.115914345E-02 -4.223662024E-01
 2.118337303E-01 -5.222137645E-02 -4.380335209E-01
 2.242263705E-01 -5.329549685E-02 -4.547892759E-01
 2.367180735E-01 -5.428398401E-02 -4.752213990E-01
 2.489760369E-01 -5.518030748E-02 -4.971296045E-01
 2.612184584E-01 -5.597491190E-02 -5.183339514E-01
 2.723595798E-01 -5.661490560E-02 -5.366872469E-01
 2.850371599E-01 -5.725014955E-02 -5.529397498E-01
 2.975099981E-01 -5.777692050E-02 -5.731035602E-01
 3.101821244E-01 -5.820214376E-02 -5.937052887E-01
 3.219640553E-01 -5.849815905E-02 -6.106044880E-01
 3.346474171E-01 -5.871856585E-02 -6.262791107E-01
 3.454495668E-01 -5.879073963E-02 -6.378876998E-01
 3.569163382E-01 -5.878390744E-02 -6.406743494E-01
 3.678295910E-01 -5.867196992E-02 -6.423601383E-01
 3.786939681E-01 -5.846877769E-02 -6.401381800E-01
 3.903122842E-01 -5.814763531E-02 -6.317965559E-01
 4.034354687E-01 -5.764683336E-02 -6.160661752E-01
 4.159338176E-01 -5.701624230E-02 -5.911062498E-01
 4.287676811E-01 -5.624229088E-02 -5.589923907E-01
 4.412881434E-01 -5.535973236E-02 -5.291105604E-01
 4.534702301E-01 -5.439401790E-02 -4.959704702E-01
 4.652710855E-01 -5.336586386E-02 -4.600019519E-01
 4.775846601E-01 -5.215251073E-02 -4.181469770E-01
 4.893340766E-01 -5.094066262E-02 -3.759639717E-01
 5.019430518E-01 -4.952150211E-02 -3.366111062E-01
 5.159530044E-01 -4.788522795E-02 -2.948763211E-01
 5.291851759E-01 -4.622973502E-02 -2.537510046E-01
 5.423924327E-01 -4.452553764E-02 -2.123822628E-01
 5.551127195E-01 -4.282921180E-02 -1.770851035E-01
 5.685989261E-01 -4.101125896E-02 -1.458910759E-01
 5.815967917E-01 -3.919940442E-02 -1.154726947E-01
 5.939376950E-01 -3.746598586E-02 -8.457214954E-02
 6.064546108E-01 -3.566853330E-02 -5.483448057E-02
 6.208018661E-01 -3.362624720E-02 -2.635297731E-02
 6.351211667E-01 -3.156606480E-02 2.012762072E-04
 6.499581337E-01 -2.945210598E-02 2.659375541E-02
 6.627903581E-01 -2.758763172E-02 5.327462289E-02
 6.763484478E-01 -2.567650937E-02 7.508569077E-02
 6.886195540E-01 -2.392235026E-02 9.467358084E-02
 7.009901404E-01 -2.218174376E-02 1.167846646E-01
 7.153881192E-01 -2.020390704E-02 1.350186411E-01
 7.284329534E-01 -1.841122098E-02 1.555878632E-01
 7.402130365E-01 -1.682152785E-02 1.756731898E-01
 7.536137104E-01 -1.505446900E-02 1.918691842E-01
 7.655375004E-01 -1.348276809E-02 2.131690269E-01
 7.791501880E-01 -1.181584876E-02 2.277221187E-01
 7.906978130E-01 -1.036506426E-02 2.429566631E-01
 8.033240438E-01 -8.863182738E-03 2.651935660E-01
 8.145400286E-01 -7.621075027E-03 2.752601448E-01
 8.255364895E-01 -6.369728595E-03 2.930413911E-01
 8.387681842E-01 -5.048170686E-03 3.087789622E-01
 8.508328795E-01 -3.850532463E-03 3.221613709E-01
 8.631456494E-01 -2.763939556E-03 3.386803410E-01
 8.745654821E-01 -1.846338855E-03 3.495470730E-01
 8.858747482E-01 -1.030781190E-03 3.595542224E-01
 8.989942670E-01 -2.470453328E-04 3.669744218E-01
 9.093497992E-01 2.609177609E-04 3.743461789E-01
 9.199656248E-01 6.810442428E-04 3.763547485E-01
 9.294679761E-01 9.696091875E-04 3.803994776E-01
 9.385615587E-01 1.158531057E-03 3.794910136E-01
 9.500700831E-01 1.293739886E-03 3.822265862E-01
 9.629844427E-01 1.303498517E-03 3.783483979E-01
 9.769299030E-01 1.156243379E-03 3.889475825E-01
 9.889669418E-01 8.837573696E-04 4.074274851E-01
 -5.000000000E-01 -1.000000000E+00 5.575599262E-02
 3.500000000E+00 -1.000000000E+00 1.339806663E-02
 3.500000000E+00 1.000000000E+00 -1.973734406E-03
 -5.000000000E-01 1.000000000E+00 5.241149827E-02
 -5.000000000E-01 5.000000000E-01 1.038075138E-01
 -5.000000000E-01 2.752797990E-12 1.559094695E-01
 -5.000000000E-01 -5.000000000E-01 1.036191379E-01
 -9.421907698E-13 -1.000000000E+00 2.631678173E-02
 5.000000000E-01 -1.000000000E+00 -9.507951459E-03
 1.000000000E+00 -1.000000000E+00 5.778246854E-03
 1.500000000E+00 -1.000000000E+00 3.799018005E-02
 2.000000000E+00 -1.000000000E+00 3.388916762E-02
 2.500000000E+00 -1.000000000E+00 2.269427728E-02
 3.000000000E+00 -1.000000000E+00 1.592102342E-02
 3.500000000E+00 -5.000000000E-01 1.391639249E-02
 3.500000000E+00 -2.752797990E-12 1.284999832E-02
 3.500000000E+00 5.000000000E-01 5.279211526E-03
 3.000000000E+00 1.000000000E+00 -8.578131940E-03
 2.500000000E+00 1.000000000E+00 -1.879630894E-02
 2.000000000E+00 1.000000000E+00 -3.927586631E-02
 1.500000000E+00 1.000000000E+00 -8.741496750E-02
 1.000000000E+00 1.000000000E+00 -1.502154593E-01
 5.000000000E-01 1.000000000E+00 -9.747740990E-02
 1.733724275E-12 1.000000000E+00 1.423375718E-02
 6.825685669E-01 -3.830691140E-02 8.067196804E-02
 7.867641016E-01 -2.258155881E-02 2.318911273E-01
 9.034568829E-01 -8.948995345E-03 3.592890824E-01
 5.878425621E-01 -4.838312259E-02 -9.918649437E-02
 2.771803676E-01 -6.841558829E-02 -5.248835092E-01
 6.996654651E-01 6.551093933E-02 -4.720308714E-01
 2.772699409E-01 7.628273555E-02 -5.218336757E-01
 3.675157055E-01 8.284474830E-02 -6.161037357E-01
 9.133722456E-01 3.062230605E-02 -2.049346071E-02
 7.953996886E-01 5.250961440E-02 -2.861133081E-01
 6.034055288E-01 7.383757589E-02 -7.298232567E-01
 4.102307510E-01 -6.815542553E-02 -5.774829086E-01
 5.062358672E-01 7.953229589E-02 -7.632046980E-01
 1.842014623E+00 -5.956327807E-01 3.170999812E-02
 1.734077954E+00 5.424005762E-01 -1.987219568E-02
 3.031171983E+00 2.156857022E-01 5.363208750E-03
 7.500000000E-01 -5.669872981E-01 7.736593564E-03
 4.925418166E-01 -6.324900553E-02 -3.549308690E-01
 7.539256051E-01 6.556814889E-01 -2.222648636E-01
 2.867217382E-01 6.812013854E-01 -1.131800992E-01
 1.211408790E-01 5.688603604E-02 -2.985565384E-01
 1.799266622E-01 6.668106077E-02 -4.015375553E-01
 2.734856636E+00 -5.326829028E-01 1.358982223E-02
 1.196148065E+00 6.132476573E-01 -6.438933593E-02
 1.039562004E+00 4.042077789E-01 -5.183404515E-02
 8.550476506E-01 4.167389108E-02 -1.666880448E-01
 1.241032022E+00 -6.263934632E-01 6.213865604E-02
 1.511579870E+00 -2.414506303E-01 4.164580951E-02
 2.500000000E-01 -5.669872981E-01 -6.593919703E-02
 8.149628352E-02 -4.320428245E-02 -2.315360174E-01
 1.330298992E-01 -5.500718738E-02 -3.120512380E-01
 1.980894898E-01 -6.141378395E-02 -4.037161054E-01
 2.249887866E+00 -5.879861210E-01 1.954995832E-02
 1.983707821E+00 -2.142053879E-01 1.542073573E-02
 2.413520368E+00 -1.868260900E-01 8.802864119E-03
 2.184649325E+00 1.582941828E-01 1.468140524E-03
 1.811906670E+00 1.426871634E-01 1.499502644E-03
 -2.712490274E-01 -2.477502754E-01 1.686040682E-01
 -1.563365096E-01 -5.629308078E-01 6.855373233E-02
 -2.715953755E-01 2.369486330E-01 1.679416297E-01
 -6.702952835E-02 6.047862336E-01 2.443823311E-02
 1.082399715E-01 3.643657803E-01 -6.396621102E-02
 6.521984980E-02 4.667422512E-02 -1.180339880E-01
 2.191322517E+00 6.008647588E-01 -1.335470918E-02
 2.738050112E+00 6.037967549E-01 -4.654291250E-03
 -2.349553691E-01 2.151015288E-03 2.272329285E-01
 -1.272638344E-01 -1.261464558E-01 2.493473830E-01
 4.298603683E-02 -4.002896167E-01 3.584002184E-02
 2.721774625E-01 -3.063700253E-01 -2.329921528E-01
 3.502439068E-01 -6.965973426E-02 -6.156713548E-01
 3.147582117E-01 -6.991496130E-02 -5.799795741E-01
 -1.198174670E-01 1.417046753E-01 2.431330355E-01
 -6.791070404E-02 3.225741880E-01 9.781765499E-02
 9.009006695E-03 1.850542442E-01 1.162994830E-01
 3.077234283E-02 3.242444461E-02 1.065150816E-01
 1.584244714E-01 2.202307231E-01 -2.007718908E-01
 2.264859130E-01 7.531692035E-02 -4.620922507E-01
 2.014554747E-01 7.247926040E-02 -4.307618856E-01
 -3.788955058E-02 9.829353150E-02 3.482083260E-01
 -1.101700364E-01 2.400829785E-02 3.643313859E-01
 -7.047672833E-02 -5.510861621E-02 3.849559562E-01
 3.593134162E-02 -3.155365952E-02 -4.915530470E-02
 1.946338893E-02 -2.256344772E-02 6.634747991E-02
 3.517128764E-02 1.125604741E-01 1.030779398E-01
 3.109365367E+00 -2.612672633E-01 1.186432832E-02
 -4.700595552E-02 3.689242627E-02 5.002415830E-01
 -5.069324214E-02 -1.100595776E-02 5.639863468E-01
 -2.079703428E-02 -5.579758136E-02 4.371578865E-01
 -3.778134852E-02 -1.037868781E-01 2.879507294E-01
 2.911997791E-02 -1.030116244E-01 7.283043912E-02
 5.108764417E-04 -1.788701126E-01 1.489431297E-01
 8.625394621E-02 -1.697012796E-01 -7.690920486E-02
 1.007492796E-01 -1.105526207E-01 -1.753168382E-01
 1.617917296E-01 -1.376702911E-01 -2.539263354E-01
 2.300827188E-01 -6.644908436E-02 -4.486324186E-01
 1.649519769E-01 -2.351659892E-01 -1.815289856E-01
 2.353588472E-01 -1.868949560E-01 -3.203077570E-01
 3.745658971E-01 -2.313645342E-01 -3.319436515E-01
 3.981739745E-01 -3.612752109E-01 -1.982632678E-01
 4.788712769E-01 -2.406796679E-01 -2.489053806E-01
 4.284499828E-01 -1.626386283E-01 -3.934638432E-01
 4.596752834E-01 -6.941344345E-02 -4.517950900E-01
 4.346885599E-01 -6.817670362E-02 -5.241472151E-01
 5.174066160E-01 -1.760412153E-01 -2.180451137E-01
 5.510589566E-01 -5.460577016E-02 -1.884369853E-01
 5.252394038E-01 -5.962968839E-02 -2.569809613E-01
 5.742247122E-01 -2.302666019E-01 -1.099253620E-01
 6.218681474E-01 -1.554194028E-01 -3.954597255E-02
 6.448986445E-01 -4.116919658E-02 1.509856162E-02
 6.691216930E-01 -2.291802030E-01 9.327034788E-03
 7.358291722E-01 -2.945842988E-02 1.620162937E-01
 7.611045848E-01 -2.577513491E-02 1.980643579E-01
 7.024277861E-01 -1.487637368E-01 6.855698158E-02
 7.602703197E-01 -2.131902652E-01 1.006483221E-01
 8.459059749E-01 -1.432633232E-02 3.075462174E-01
 8.217138211E-01 -1.704526617E-02 2.775074084E-01
 8.003579533E-01 -1.364830604E-01 1.729029835E-01
 8.448715837E-01 -1.884995933E-01 1.656795680E-01
 9.699146339E-01 -1.476981169E-02 3.658434186E-01
 9.456014614E-01 -7.387221761E-03 3.701675174E-01
 8.950948880E-01 -1.289289284E-01 2.290315706E-01
 9.448940965E-01 -2.042454870E-01 1.848232509E-01
 1.006219607E+00 -1.275752129E-01 2.171396147E-01
 1.040471629E+00 -1.899166489E-01 1.716203916E-01
 1.089210721E+00 -1.210220953E-01 1.727576812E-01
 1.011580821E+00 -3.064520712E-01 1.367370158E-01
 1.135026995E+00 -2.141825674E-01 1.303186373E-01
 1.167895297E+00 -9.584972197E-02 1.166823899E-01
 1.144867793E+00 1.301588229E-02 1.178856561E-01
 1.262782419E+00 2.154968322E-02 7.100340048E-02
 1.172426775E+00 1.398307134E-01 7.341038153E-02
 1.341222309E+00 1.737852508E-01 3.075405629E-02
 3.560572973E-01 -1.474197723E-01 -4.599004194E-01
 8.376482296E-01 -8.574526550E-02 2.354755444E-01
 9.317920360E-01 -7.819548731E-02 2.832288771E-01
 7.498715539E-01 -9.599941495E-02 1.416029763E-01
 1.033832741E+00 -7.283120291E-02 2.335092788E-01
 1.435386221E+00 -2.363662060E-02 3.890239735E-02
 6.551288938E-01 -1.085144215E-01 1.653086937E-02
 5.393422493E-01 -3.401023727E-01 -1.322067544E-01
 4.783611123E-01 -1.301100467E-01 -3.342807594E-01
 5.718677736E-01 -1.194935723E-01 -1.256377611E-01
 1.217966180E+00 3.242018535E-01 9.030021353E-03
 1.044980359E+00 1.582764369E-01 6.119815356E-02
 9.720847817E-01 2.811209173E-02 1.478259034E-01
 5.276874014E-01 -4.978753548E-01 -1.109096191E-01
 1.074624651E+00 7.856500961E-03 1.674173956E-01
 3.968827835E-01 -1.117347092E-01 -5.095088763E-01
 3.860165613E-01 -7.104481500E-02 -6.080441279E-01
 8.300604735E-01 -3.275647046E-01 9.939448567E-02
 4.384010609E-01 -1.071442002E-01 -4.519127063E-01
 2.220817538E-01 -1.217658819E-01 -3.685045042E-01
 2.772011678E-01 -1.313406041E-01 -4.284197113E-01
 1.414747039E+00 4.221338157E-01 -8.566813311E-03
 3.651264430E-01 -1.074753169E-01 -5.384004554E-01
 2.567393805E-01 -1.006221434E-01 -4.438879657E-01
 2.532862682E-01 -6.833484340E-02 -4.866821555E-01
 1.290523001E+00 -1.865197896E-01 7.727110452E-02
 -8.278841501E-03 6.040466621E-02 3.983700190E-01
 1.165624995E-02 1.986842035E-02 3.219401789E-01
 3.072514003E-02 7.188124820E-02 1.326860692E-01
 4.581354503E-02 3.951288258E-02 -1.447877895E-02
 1.399033907E-01 -9.683573848E-02 -2.693632208E-01
 1.626477040E-01 -6.041008575E-02 -3.485891061E-01
 1.166555643E+00 -3.705355213E-01 9.735346857E-02
 9.886068299E-01 -4.913799770E-01 8.794535297E-02
 3.288831553E-01 -7.003808031E-02 -5.967293070E-01
 3.226082873E-01 -8.574420387E-02 -5.623360156E-01
 3.045554616E-01 -7.993524277E-02 -5.472727562E-01
 3.080421321E-01 -1.033401059E-01 -5.129538928E-01
 1.800195291E-01 -9.719467739E-02 -3.273509665E-01
 3.392821473E-01 -8.023845643E-02 -5.867435404E-01
 2.918186265E-01 -6.909254319E-02 -5.462300048E-01
 2.830425903E-01 -8.814686908E-02 -4.998329599E-01
 1.465473982E+00 6.795608322E-01 -3.969441824E-02
 3.610592340E-01 -6.741747805E-02 -6.215177306E-01
 3.568685850E-01 -8.199257832E-02 -5.883175278E-01
 3.791293710E-01 -8.830699921E-02 -5.752286788E-01
 3.974327321E-01 -8.359943718E-02 -5.672815381E-01
 3.037648845E-01 -6.698436230E-02 -5.687534128E-01
 3.397012387E-01 -6.748911530E-02 -6.135607668E-01
 4.214172695E-01 -6.661080632E-02 -5.554955479E-01
 4.193905727E-01 -8.366330739E-02 -5.263637166E-01
 2.654961298E-01 -7.974566015E-02 -4.869301043E-01
 2.659081608E-01 -6.581718187E-02 -5.122102154E-01
 3.715995517E-01 -7.098376970E-02 -6.148963675E-01
 2.552483881E+00 2.125305876E-01 -1.293523891E-04
 -2.076961426E-02 3.136756069E-02 5.550720948E-01
 2.931139212E-03 1.406720709E-02 5.629261200E-01
 -2.267623862E-02 6.371670795E-03 7.636151996E-01
 -1.142914718E-02 -1.432139570E-02 7.723285913E-01
 3.084008952E-01 -1.870578476E-01 -3.825939348E-01
 1.112871339E-01 -7.732241228E-02 -2.399818728E-01
 9.756471178E-02 -5.511746085E-02 -2.439711505E-01
 7.780028339E-02 -7.697939897E-02 -1.303820196E-01
 1.189420774E-01 -6.077227350E-02 -2.825947717E-01
 4.132551462E-02 -6.730375922E-02 -2.342481718E-02
 6.016532484E-02 -3.902592668E-02 -1.710282352E-01
 1.687203037E-02 -5.668002121E-02 1.848982550E-01
 1.087917472E-02 -1.736999214E-02 1.628082204E-01
 6.900146313E-02 -5.385438129E-02 -1.618818076E-01
 7.093925749E-02 -4.035176492E-02 -2.070655999E-01
 4.669220929E-01 -9.314133222E-02 -3.991620398E-01
 5.025127339E-01 -9.580102791E-02 -3.022905680E-01
 5.380829593E-01 -9.471815741E-02 -2.068171277E-01
 5.684378286E-01 -8.614043737E-02 -1.413241810E-01
 6.060220507E-01 -9.832603742E-02 -6.224161998E-02
 6.351012630E-01 -7.870620125E-02 -1.120041091E-02
 6.166591812E-01 -4.491369286E-02 -3.570462904E-02
 6.672774985E-01 -7.568220334E-02 4.488451953E-02
 5.638723298E-01 -6.342612156E-02 -1.546860431E-01
 6.297456867E-01 -4.499703413E-02 -9.251101601E-03
 6.989053484E-01 -9.391486411E-02 8.274290969E-02
 7.220132958E-01 -6.716970417E-02 1.255739660E-01
 7.097012445E-01 -3.220050604E-02 1.249218703E-01
 7.569318376E-01 -5.986659716E-02 1.731792758E-01
 7.914175155E-01 -8.079838333E-02 2.021614648E-01
 8.173881834E-01 -5.509229311E-02 2.425045605E-01
 8.517969670E-01 -4.993681908E-02 2.807657513E-01
 8.709125749E-01 -1.341043648E-02 3.330900228E-01
 8.830499895E-01 -7.472626087E-02 2.705425153E-01
 9.105455344E-01 -4.859241534E-02 3.166615838E-01
 9.442941718E-01 -4.645765717E-02 3.224046332E-01
 9.767334797E-01 -7.068378847E-02 2.803546170E-01
 1.004377045E+00 -4.238922330E-02 2.906192407E-01
 9.954115346E-01 -1.011554909E-02 4.160478092E-01
 6.939613736E-01 -5.972177224E-02 8.951833606E-02
 6.697241680E-01 -5.074603978E-02 5.696718621E-02
 9.254661343E-01 -2.366636778E-02 3.462528830E-01
 9.248141547E-01 -7.363891078E-03 3.674529613E-01
 7.889881938E-01 -5.368480032E-02 2.126933126E-01
 9.140288617E-01 -1.084979837E-02 3.618058510E-01
 8.574477982E-01 -1.552956408E-02 3.183674581E-01
 8.649405403E-01 -3.006182201E-02 3.083493916E-01
 8.812990007E-01 -2.276239705E-02 3.284117175E-01
 8.789114486E-01 -4.399647990E-02 3.079321192E-01
 8.809691856E-01 -1.088082250E-02 3.454765890E-01
 7.279493374E-01 -4.420063007E-02 1.439770262E-01
 9.353469344E-01 -9.802103250E-03 3.682203997E-01
 9.733916545E-01 -3.788609402E-02 3.294491168E-01
 6.091145295E-01 -7.165065584E-02 -5.341440105E-02
 9.830263177E-01 -9.081112410E-03 3.569213097E-01
 8.919524431E-01 -1.165525658E-02 3.503391956E-01
 9.008086151E-01 -2.435310148E-02 3.347377004E-01
 9.561704467E-01 -9.218549042E-03 3.669001052E-01
 8.037641520E-01 -3.627445503E-02 2.426795277E-01
 7.744591834E-01 -3.732114438E-02 2.072011412E-01
 7.506026654E-01 -3.821508614E-02 1.755443851E-01
 7.734031116E-01 -2.219529099E-02 2.154420239E-01
 -8.246636621E-02 -2.853745502E-01 1.143213192E-01
 1.144260258E-03 3.874833079E-02 4.299402185E-01
 2.022024341E-02 5.128384765E-02 2.488364210E-01
 2.234035908E-02 2.629259022E-02 1.761842719E-01
 3.351147186E-02 4.173245022E-02 8.502465854E-02
 1.353155429E+00 -3.781813043E-01 6.435459625E-02
 1.670449071E+00 -9.156127718E-02 2.242645620E-02
 2.122658035E-01 -9.229845535E-02 -3.859956813E-01
 1.746452028E-01 -7.562233727E-02 -3.463544906E-01
 5.098582548E-01 -6.165319108E-02 -3.038029064E-01
 5.198385043E-01 -7.631336813E-02 -2.650573332E-01
 5.407867651E-01 -7.112227614E-02 -2.063306306E-01
 7.482726339E-01 -2.506492955E-02 1.807877740E-01
 4.329114291E-02 -4.717155806E-02 -3.789145043E-02
 9.881729729E-01 -2.658749334E-02 3.255288054E-01
 2.130821024E-02 -3.903741879E-02 7.914500460E-02
 5.723498010E-03 -2.602519204E-02 3.252795318E-01
 8.264081724E-01 -3.272544479E-02 2.702436561E-01
 6.812697313E-02 2.622545785E-01 -8.305151021E-03
 2.602896211E-01 3.099728421E-01 -2.758738624E-01
 4.466852939E-01 8.320620648E-02 -6.999477334E-01
 2.761551319E-01 1.952169210E-01 -3.885389657E-01
 3.290518499E-01 7.820696196E-02 -5.784678710E-01
 3.044564177E-01 7.739120255E-02 -5.485956959E-01
 3.626510728E-01 2.496000672E-01 -4.293427420E-01
 3.615234311E-01 1.719110979E-01 -5.076225271E-01
 4.034468361E-01 8.209841062E-02 -6.539460435E-01
 4.427803281E-01 1.925091511E-01 -5.592094309E-01
 5.534777692E-01 7.967520026E-02 -7.746327454E-01
 5.319320218E-01 8.039939392E-02 -7.662449261E-01
 4.610806887E-01 2.879976888E-01 -4.649587871E-01
 5.404042122E-01 2.141948737E-01 -5.684368477E-01
 5.622992270E-01 2.985271494E-01 -4.800208736E-01
 6.494585723E-01 2.333319722E-01 -4.987881641E-01
 6.494131687E-01 6.967386517E-02 -5.960373314E-01
 6.051684797E-01 1.661591165E-01 -6.096183682E-01
 6.873775187E-01 1.686939511E-01 -4.477888022E-01
 7.448157870E-01 6.059099207E-02 -3.795210096E-01
 7.169344236E-01 6.251075497E-02 -4.347753764E-01
 7.354885036E-01 2.316788398E-01 -3.415330911E-01
 7.969332779E-01 1.634791017E-01 -2.473141342E-01
 2.058554792E-01 1.495274866E-01 -3.380251354E-01
 1.181769365E-01 1.379374037E-01 -1.856569725E-01
 5.069881319E-01 1.529556619E-01 -6.488154246E-01
 8.239181146E-01 2.228825997E-01 -2.072916727E-01
 8.725902998E-01 1.533038246E-01 -1.328345928E-01
 8.274961857E-01 1.103514569E-01 -2.151206363E-01
 8.892888487E-01 9.172983512E-02 -8.533142080E-02
 8.771758137E-01 3.722581302E-02 -1.143161857E-01
 7.758073909E-01 1.047023832E-01 -2.968681089E-01
 7.699890758E-01 5.695009956E-02 -3.288884120E-01
 6.766638886E-01 3.682574585E-01 -3.532949617E-01
 2.622919264E-01 1.354622349E-01 -4.357292169E-01
 6.499325937E-01 1.319810414E-01 -5.534056811E-01
 4.143819067E-01 1.453739852E-01 -5.879936332E-01
 8.605294169E-02 1.080770927E-01 -1.328045819E-01
 8.802076872E-02 5.073717828E-02 -2.081953410E-01
 1.643054100E-01 1.173074685E-01 -3.052312735E-01
 1.258998574E-01 9.710357824E-02 -2.505543527E-01
 1.530875292E-01 6.646744392E-02 -3.589677333E-01
 4.534958106E-01 4.388743150E-01 -3.298522817E-01
 8.530610655E-01 7.839401292E-02 -1.663940328E-01
 8.222218258E-01 4.769106860E-02 -2.386228746E-01
 3.668181150E-01 1.246820412E-01 -5.666367010E-01
 3.161698411E-01 1.329995554E-01 -4.979087219E-01
 9.303311854E-01 2.617232280E-01 -8.768432099E-02
 2.250541615E-01 1.148686873E-01 -4.126113487E-01
 2.504007716E-01 7.934275173E-02 -4.867508151E-01
 6.182563235E-02 8.093129633E-02 -5.539074031E-02
 9.460421821E-02 8.062404548E-02 -1.824119882E-01
 1.386880229E-01 7.486144510E-02 -3.148606400E-01
 1.979855764E-01 1.115614014E-01 -3.762772305E-01
 3.382968737E-01 1.093725037E-01 -5.533718559E-01
 2.881847331E-01 1.113434618E-01 -4.893746601E-01
 8.046302245E-01 8.462507296E-02 -2.592323696E-01
 3.390747344E-01 7.866843992E-02 -5.888366020E-01
 3.529706468E-01 8.155874344E-02 -5.982941317E-01
 3.564667119E-01 9.815074046E-02 -5.845258931E-01
 3.803972183E-01 9.661570991E-02 -6.129459446E-01
 4.039923197E-01 1.137181168E-01 -6.162823965E-01
 4.422098724E-01 1.207476863E-01 -6.462769673E-01
 4.664649746E-01 8.543360129E-02 -7.153199507E-01
 4.188808966E-01 9.669785223E-02 -6.516472810E-01
 4.801533852E-01 1.180317198E-01 -6.789577836E-01
 3.160177383E-01 7.864285696E-02 -5.623230123E-01
 3.080876913E-01 9.718061967E-02 -5.318394110E-01
 9.504644879E-01 1.384720351E-01 -5.635421892E-03
 1.011532326E+00 9.131149598E-02 1.093811074E-01
 9.463477366E-01 7.677883995E-02 2.952368313E-02
 9.377697055E-01 2.807373252E-02 5.002294050E-02
 1.080869517E+00 7.483467520E-02 1.405644206E-01
 1.030821730E+00 4.497798635E-02 1.875812047E-01
 9.116617261E-01 6.350021218E-02 -4.087454082E-02
 9.859390124E-01 5.842365028E-02 1.342893456E-01
 3.902272350E-01 8.314263906E-02 -6.412724472E-01
 1.551262245E-01 8.456782160E-02 -3.324802377E-01
 4.818533246E-01 8.291891374E-02 -7.311020127E-01
 1.434455479E-01 6.091886438E-02 -3.473881762E-01
 8.085462393E-01 4.776749929E-02 -2.678881970E-01
 4.166141932E-01 8.085874166E-02 -6.685426816E-01
 3.792094026E-01 8.089678746E-02 -6.333424355E-01
 8.911641606E-01 3.484407290E-02 -8.368345578E-02
 8.903552151E-01 5.400753960E-02 -8.403882492E-02
 8.689973646E-01 5.662635533E-02 -1.311769730E-01
 9.055820627E-01 4.318673834E-02 -4.440340794E-02
 9.271366815E-01 4.493140626E-02 1.161116921E-02
 9.526090671E-01 4.427083147E-02 7.903677234E-02
 9.982971009E-01 2.968540308E-02 2.202585169E-01
 2.579130250E-01 1.007814307E-01 -4.673755864E-01
 1.315778533E-01 6.121397648E-02 -3.185301915E-01
 8.128494328E-01 6.298520692E-02 -2.527882826E-01
 8.353042497E-01 6.165486430E-02 -2.056260340E-01
 7.855179242E-01 7.037594287E-02 -2.968446215E-01
 7.578755514E-01 7.546460815E-02 -3.444940332E-01
 7.381197443E-01 1.016002214E-01 -3.741008942E-01
 7.821316398E-01 5.274314474E-02 -3.087274998E-01
 4.296851586E-01 8.340636547E-02 -6.802252859E-01
 2.893022453E-01 7.872702477E-02 -5.326883688E-01
 8.096856102E-01 -2.129336011E-02 2.636323015E-01
 7.234601653E-01 -2.889493880E-02 1.428070585E-01
 9.528354447E-01 2.430662545E-02 9.539357971E-02
 6.779375829E-01 -4.067764852E-01 -1.449075596E-02
 8.345007414E-01 -1.791135602E-02 2.919408558E-01
 3.974855595E-01 -6.771882928E-02 -6.031040303E-01
 6.969729119E-01 -3.742233332E-02 1.037723562E-01
 9.481703209E-01 -2.252327912E-02 3.469196548E-01
 9.820447930E-02 5.872567646E-02 -2.351091843E-01
 4.962810342E-01 7.978783937E-02 -7.502186216E-01
 5.035918199E-01 9.517049300E-02 -7.303582544E-01
 1.341297477E-01 -7.011657462E-02 -2.899700258E-01
 7.494352221E-02 6.124439681E-02 -1.421053521E-01
 5.191108799E-01 8.001425743E-02 -7.642283185E-01
 5.265770630E-01 9.663224994E-02 -7.427409995E-01
 5.126475821E-01 1.159129237E-01 -7.052313456E-01
 5.459275105E-01 1.167744937E-01 -7.117836902E-01
 5.438111461E-01 9.141566564E-02 -7.566207402E-01
 5.646003336E-01 9.625581460E-02 -7.492339761E-01
 5.774681113E-01 8.001288902E-02 -7.660388898E-01
 5.878334551E-01 1.004963914E-01 -7.262749922E-01
 5.931212868E-01 8.018424177E-02 -7.492888857E-01
 5.653092274E-01 7.805518400E-02 -7.769353058E-01
 9.622505107E-01 5.558594068E-01 -1.358415426E-01
 8.468854394E-01 4.251236808E-01 -1.900752174E-01
 8.657844270E-01 3.814736162E-02 -1.414832931E-01
 6.035635894E-01 -5.254564941E-02 -6.490062017E-02
 7.564525193E-01 5.469190572E-02 -3.544178036E-01
 3.133974596E+00 6.339745962E-01 -1.633023003E-03
 7.745876750E-02 4.742723113E-02 -1.752448956E-01
 4.861696260E-01 -8.059617235E-02 -3.562218545E-01