TITLE     = "Visualization of the solution"
VARIABLES = "x"
"y"
"Pressure_Coefficient"
ZONE T="Zone"
 STRANDID=0, SOLUTIONTIME=0
 Nodes=719, Elements=1223, ZONETYPE=FEQuadrilateral
 DATAPACKING=POINT
 DT=(DOUBLE DOUBLE DOUBLE )
 9.996838570E-01 5.143409362E-04 2.895782940E-01
 9.880343676E-01 2.696289914E-03 2.317603190E-01
 9.761048555E-01 4.999883939E-03 1.559920556E-01
 9.609444737E-01 7.832750678E-03 1.082051191E-01
 9.464011192E-01 1.053587254E-02 6.173804041E-02
 9.319652915E-01 1.325376797E-02 1.659293028E-02
 9.204515815E-01 1.541299839E-02 -2.724044509E-02
 9.081319571E-01 1.767401397E-02 -6.167760723E-02
 8.961719275E-01 1.978180557E-02 -8.983298271E-02
 8.840523958E-01 2.188655920E-02 -1.228155179E-01
 8.719609976E-01 2.394721285E-02 -1.512016885E-01
 8.597471714E-01 2.591704950E-02 -1.732257124E-01
 8.472177982E-01 2.790050209E-02 -1.956295021E-01
 8.360118866E-01 2.961790003E-02 -2.108991830E-01
 8.241929412E-01 3.136215732E-02 -2.271540516E-01
 8.112996221E-01 3.324496746E-02 -2.448939955E-01
 7.984089255E-01 3.506803513E-02 -2.624391181E-01
 7.860764265E-01 3.678189218E-02 -2.845562482E-01
 7.737089396E-01 3.847392276E-02 -3.013467974E-01
 7.614126205E-01 4.007453099E-02 -3.192943641E-01
 7.482627034E-01 4.178795218E-02 -3.385833017E-01
 7.342887521E-01 4.352495447E-02 -3.561133144E-01
 7.235318422E-01 4.484455660E-02 -3.800249615E-01
 7.126478553E-01 4.617074877E-02 -4.004998779E-01
 7.009228468E-01 4.751407355E-02 -4.195243849E-01
 6.873924732E-01 4.903898016E-02 -4.418174543E-01
 6.740388870E-01 5.046094209E-02 -4.629674094E-01
 6.642426848E-01 5.148138106E-02 -4.841268029E-01
 6.527383924E-01 5.263091624E-02 -5.009543016E-01
 6.410282850E-01 5.374179035E-02 -5.246156382E-01
 6.293467283E-01 5.483029783E-02 -5.502075586E-01
 6.181885004E-01 5.580119789E-02 -5.662709112E-01
 6.071786284E-01 5.668903142E-02 -5.850705843E-01
 5.943879485E-01 5.768493563E-02 -6.055710865E-01
 5.827260613E-01 5.851591378E-02 -6.158040992E-01
 5.692663789E-01 5.938571319E-02 -6.263566736E-01
 5.570154786E-01 6.012050062E-02 -6.386712995E-01
 5.449334383E-01 6.077544019E-02 -6.508952230E-01
 5.341608524E-01 6.130772457E-02 -6.572408495E-01
 5.226337314E-01 6.180733442E-02 -6.551138294E-01
 5.100030899E-01 6.226355582E-02 -6.561232229E-01
 4.988810420E-01 6.263412535E-02 -6.555307476E-01
 4.856602550E-01 6.297951937E-02 -6.503034311E-01
 4.723860919E-01 6.324511021E-02 -6.456065895E-01
 4.582980573E-01 6.344955415E-02 -6.355551654E-01
 4.447802007E-01 6.353818625E-02 -6.227135526E-01
 4.317886531E-01 6.355373561E-02 -6.144737547E-01
 4.189941585E-01 6.351771206E-02 -6.056544272E-01
 4.065825939E-01 6.339480728E-02 -5.961055325E-01
 3.944954574E-01 6.323590875E-02 -5.857895606E-01
 3.821076751E-01 6.298936158E-02 -5.740563516E-01
 3.706791103E-01 6.271412224E-02 -5.615942884E-01
 3.575953245E-01 6.233213469E-02 -5.510872689E-01
 3.453389704E-01 6.191677600E-02 -5.402062903E-01
 3.325612247E-01 6.140887365E-02 -5.294923069E-01
 3.213145137E-01 6.090465933E-02 -5.155404988E-01
 3.084864020E-01 6.025747582E-02 -5.010060067E-01
 2.951660156E-01 5.951851606E-02 -4.863073750E-01
 2.810835242E-01 5.865046009E-02 -4.746578638E-01
 2.683329284E-01 5.779403821E-02 -4.648312470E-01
 2.562302351E-01 5.691815168E-02 -4.518243230E-01
 2.435441762E-01 5.592155457E-02 -4.391459246E-01
 2.307852060E-01 5.484554544E-02 -4.261001428E-01
 2.183433473E-01 5.372457579E-02 -4.165348791E-01
 2.066599131E-01 5.260436609E-02 -4.027140758E-01
 1.951085776E-01 5.141161382E-02 -3.867688815E-01
 1.826186478E-01 5.004972592E-02 -3.716631723E-01
 1.706349254E-01 4.865070805E-02 -3.587505244E-01
 1.593274772E-01 4.726789892E-02 -3.436585979E-01
 1.472703964E-01 4.568612948E-02 -3.266219736E-01
 1.364624649E-01 4.417558014E-02 -3.073698607E-01
 1.246715188E-01 4.244336113E-02 -2.900358984E-01
 1.130974889E-01 4.062435403E-02 -2.731518404E-01
 1.024580300E-01 3.884376958E-02 -2.568621030E-01
 9.249515831E-02 3.707281500E-02 -2.347067477E-01
 8.119633049E-02 3.491983935E-02 -2.094578527E-01
 6.932385266E-02 3.246384487E-02 -1.831859783E-01
 5.954258144E-02 3.026061133E-02 -1.536297262E-01
 4.973495379E-02 2.785966732E-02 -1.249225066E-01
 4.130288586E-02 2.560183592E-02 -8.809790788E-02
 3.414095566E-02 2.348665893E-02 -5.876380060E-02
 2.787441015E-02 2.146283351E-02 -1.993325543E-02
 2.254928648E-02 1.956622116E-02 3.742351722E-02
 1.876710169E-02 1.808240078E-02 1.146104087E-01
 1.520473789E-02 1.655933633E-02 1.373085680E-01
 1.250645798E-02 1.530546509E-02 1.959450080E-01
 1.002231147E-02 1.403103210E-02 1.817078104E-01
 8.218689822E-03 1.302687079E-02 1.737880916E-01
 6.615350954E-03 1.205948927E-02 2.414393093E-01
 5.141225178E-03 1.108032558E-02 3.858829418E-01
 3.169866046E-03 9.599912912E-03 7.286100098E-01
 1.463290770E-03 8.071151562E-03 6.797240868E-01
 3.504310007E-05 6.460214965E-03 7.540406529E-01
 -1.317301299E-03 4.262160510E-03 8.666928118E-01
 -1.900793985E-03 2.540444490E-03 1.264989778E+00
 -2.068058122E-03 1.171079814E-03 1.018373043E+00
 -1.962532522E-03 -3.060360323E-04 1.060636859E+00
 -1.535532647E-03 -1.842293655E-03 1.145287549E+00
 -6.410168717E-04 -3.632035805E-03 1.009842817E+00
 7.441368070E-04 -5.495711695E-03 7.918850829E-01
 2.673334209E-03 -7.427633274E-03 4.658614249E-01
 4.413579591E-03 -8.840880357E-03 3.314493539E-01
 6.449466106E-03 -1.026247814E-02 3.051969736E-01
 8.030409925E-03 -1.124772988E-02 2.791765259E-01
 1.005626284E-02 -1.239347365E-02 1.886369909E-01
 1.236190833E-02 -1.357754879E-02 1.433637541E-01
 1.558968425E-02 -1.506957598E-02 8.359813865E-02
 1.853268966E-02 -1.630098373E-02 3.823393661E-02
 2.232884802E-02 -1.774313301E-02 -1.622887994E-02
 2.761704661E-02 -1.955291629E-02 -4.816624954E-02
 3.329309449E-02 -2.130119130E-02 -9.815195317E-02
 4.054354131E-02 -2.330121212E-02 -1.320454962E-01
 4.806219786E-02 -2.516701259E-02 -1.537845959E-01
 5.703131482E-02 -2.719031833E-02 -1.744230641E-01
 6.577999890E-02 -2.899128012E-02 -2.004223136E-01
 7.587580383E-02 -3.091096878E-02 -2.210681842E-01
 8.585324138E-02 -3.265834972E-02 -2.353870632E-01
 9.594050050E-02 -3.431228921E-02 -2.477384564E-01
 1.067564562E-01 -3.597527370E-02 -2.615820974E-01
 1.179226190E-01 -3.757972270E-02 -2.765677180E-01
 1.294428408E-01 -3.913607821E-02 -2.895490996E-01
 1.403164864E-01 -4.051885754E-02 -3.028212671E-01
 1.513847113E-01 -4.185875505E-02 -3.170179484E-01
 1.634115875E-01 -4.322366789E-02 -3.309610431E-01
 1.752141416E-01 -4.448392987E-02 -3.443661970E-01
 1.872380972E-01 -4.569331184E-02 -3.594381417E-01
 1.980027407E-01 -4.671247303E-02 -3.767716751E-01
 2.093658149E-01 -4.772154614E-02 -3.917201834E-01
 2.217071205E-01 -4.874873906E-02 -4.087157663E-01
 2.346052676E-01 -4.973213747E-02 -4.263521443E-01
 2.472824752E-01 -5.062156543E-02 -4.455045263E-01
 2.600363791E-01 -5.142769590E-02 -4.648204849E-01
 2.712407708E-01 -5.205687881E-02 -4.818815222E-01
 2.841820717E-01 -5.270731449E-02 -4.981433921E-01
 2.970971465E-01 -5.325002596E-02 -5.174372027E-01
 3.098523021E-01 -5.369063094E-02 -5.370941620E-01
 3.216520548E-01 -5.399628356E-02 -5.545128900E-01
 3.340584636E-01 -5.422559008E-02 -5.683844845E-01
 3.449768126E-01 -5.433785543E-02 -5.822125382E-01
 3.562149107E-01 -5.434436351E-02 -5.884715838E-01
 3.672853112E-01 -5.428931490E-02 -5.948572460E-01
 3.779522777E-01 -5.412090570E-02 -5.996485699E-01
 3.892591000E-01 -5.385418981E-02 -5.943331909E-01
 4.021412432E-01 -5.342807248E-02 -5.832869255E-01
 4.144821167E-01 -5.288253352E-02 -5.664897959E-01
 4.274348617E-01 -5.220563337E-02 -5.460530184E-01
 4.399044216E-01 -5.137814209E-02 -5.153293109E-01
 4.520227909E-01 -5.050318688E-02 -4.784179839E-01
 4.638997912E-01 -4.952469468E-02 -4.474104472E-01
 4.764576852E-01 -4.837856442E-02 -4.104435428E-01
 4.876924157E-01 -4.727260023E-02 -3.674333983E-01
 5.003027916E-01 -4.594458640E-02 -3.245433892E-01
 5.141761899E-01 -4.438701272E-02 -2.826319918E-01
 5.278380513E-01 -4.279369116E-02 -2.456168064E-01
 5.415751934E-01 -4.109533876E-02 -2.090240875E-01
 5.545194745E-01 -3.943824023E-02 -1.717109366E-01
 5.677943826E-01 -3.771915659E-02 -1.395224561E-01
 5.809838772E-01 -3.599141166E-02 -1.122441896E-01
 5.927543044E-01 -3.438793868E-02 -8.459695550E-02
 6.051675677E-01 -3.270353749E-02 -5.439637723E-02
 6.193788052E-01 -3.076856583E-02 -2.713585416E-02
 6.338727474E-01 -2.877586521E-02 -6.508105857E-04
 6.483220458E-01 -2.677575126E-02 2.881611503E-02
 6.616918445E-01 -2.497051656E-02 5.115540217E-02
 6.751177311E-01 -2.313766442E-02 7.079709199E-02
 6.876466274E-01 -2.145319805E-02 9.253509725E-02
 6.998579502E-01 -1.980464160E-02 1.138861256E-01
 7.141710520E-01 -1.793189347E-02 1.333860171E-01
 7.273545265E-01 -1.624561474E-02 1.490659504E-01
 7.393561006E-01 -1.471734047E-02 1.652129463E-01
 7.517995834E-01 -1.311791223E-02 1.860641630E-01
 7.637303472E-01 -1.164600346E-02 2.085272821E-01
 7.769457698E-01 -1.010433678E-02 2.193225337E-01
 7.881941795E-01 -8.771987632E-03 2.359791871E-01
 8.006656170E-01 -7.371500134E-03 2.567659189E-01
 8.120691776E-01 -6.184156518E-03 2.683424710E-01
 8.237074018E-01 -4.987524822E-03 2.800702504E-01
 8.365597725E-01 -3.750285367E-03 2.980998946E-01
 8.488821983E-01 -2.644079970E-03 3.138403967E-01
 8.608856797E-01 -1.658707624E-03 3.280500433E-01
 8.731834888E-01 -7.751407684E-04 3.383274938E-01
 8.852817416E-01 -1.260671979E-05 3.469581154E-01
 8.985765576E-01 6.844517193E-04 3.555083001E-01
 9.092735052E-01 1.103999442E-03 3.623618596E-01
 9.196121097E-01 1.420764602E-03 3.613980634E-01
 9.288537502E-01 1.620639116E-03 3.640702458E-01
 9.374446869E-01 1.730570337E-03 3.627000076E-01
 9.494282007E-01 1.770353061E-03 3.616403105E-01
 9.620243311E-01 1.675387146E-03 3.558633136E-01
 9.760918021E-01 1.404371345E-03 3.527560371E-01
 9.884129763E-01 1.019884483E-03 3.872795415E-01
 -5.000000000E-01 -1.000000000E+00 4.711151123E-02
 3.500000000E+00 -1.000000000E+00 1.184940254E-02
 3.500000000E+00 1.000000000E+00 -1.951944455E-03
 -5.000000000E-01 1.000000000E+00 4.139846273E-02
 -5.000000000E-01 5.000000000E-01 9.326070133E-02
 -5.000000000E-01 2.752797990E-12 1.349836751E-01
 -5.000000000E-01 -5.000000000E-01 9.266611326E-02
 -9.421907698E-13 -1.000000000E+00 2.311496877E-02
 5.000000000E-01 -1.000000000E+00 -1.836237343E-02
 1.000000000E+00 -1.000000000E+00 6.294890269E-03
 1.500000000E+00 -1.000000000E+00 3.394936775E-02
 2.000000000E+00 -1.000000000E+00 3.016711449E-02
 2.500000000E+00 -1.000000000E+00 2.022948151E-02
 3.000000000E+00 -1.000000000E+00 1.421139390E-02
 3.500000000E+00 -5.000000000E-01 1.267576865E-02
 3.500000000E+00 -2.752797990E-12 1.249928732E-02
 3.500000000E+00 5.000000000E-01 5.234232770E-03
 3.000000000E+00 1.000000000E+00 -7.779078934E-03
 2.500000000E+00 1.000000000E+00 -1.660150707E-02
 2.000000000E+00 1.000000000E+00 -3.328014007E-02
 1.500000000E+00 1.000000000E+00 -7.240667279E-02
 1.000000000E+00 1.000000000E+00 -1.244584565E-01
 5.000000000E-01 1.000000000E+00 -8.719535501E-02
 1.733724275E-12 1.000000000E+00 8.018165329E-03
 6.839844519E-01 -3.679928871E-02 8.146285008E-02
 7.830543677E-01 -1.942905093E-02 2.224415245E-01
 9.042822320E-01 -8.213095470E-03 3.441565044E-01
 6.964237613E-01 6.013901472E-02 -4.200219889E-01
 6.009052867E-01 6.955159186E-02 -5.823895461E-01
 2.736421069E-01 -6.459411294E-02 -4.667522381E-01
 2.710830030E-01 7.375317700E-02 -4.497163583E-01
 3.651147329E-01 7.422781414E-02 -5.451097398E-01
 9.055276836E-01 3.311957751E-02 -6.478728193E-02
 7.948508922E-01 4.723958213E-02 -2.663255587E-01
 5.650748478E-01 -5.489686528E-02 -1.452103688E-01
 3.947841662E-01 -6.535677061E-02 -5.645098641E-01
 5.073294168E-01 7.378368568E-02 -6.416935493E-01
 6.692651715E-01 5.940784584E-02 -4.681656238E-01
 1.838942708E+00 -5.994812881E-01 2.818167716E-02
 1.739200305E+00 6.353391062E-01 -2.246227888E-02
 3.031167228E+00 2.156879046E-01 5.222131478E-03
 7.656170157E-01 -5.512859860E-01 1.263218385E-03
 4.722046225E-01 -5.783236838E-02 -4.131057556E-01
 7.527180148E-01 5.591053655E-01 -2.079901156E-01
 3.331322705E-01 6.149837369E-01 -1.556447941E-01
 1.166283541E-01 5.246373569E-02 -2.605130755E-01
 1.884788810E-01 6.246376869E-02 -3.655045008E-01
 2.734868497E+00 -5.326710589E-01 1.249374301E-02
 1.166867729E+00 6.149837369E-01 -5.698087807E-02
 1.020979853E+00 3.707178193E-01 -4.950646345E-02
 1.270601047E+00 -6.036843462E-01 5.936737390E-02
 1.474351934E+00 -2.500053869E-01 4.051986081E-02
 2.065367842E-01 -5.348184249E-01 -4.888870101E-02
 7.846620494E-02 -4.104369468E-02 -2.028012727E-01
 1.331710382E-01 -4.973813054E-02 -2.795692588E-01
 1.916003822E-01 -5.796803425E-02 -3.528093066E-01
 2.249386277E+00 -5.886112535E-01 1.757829811E-02
 1.988096925E+00 -2.114079750E-01 1.290864006E-02
 2.414181134E+00 -1.864377366E-01 7.592641854E-03
 2.184689629E+00 1.583886908E-01 1.417665735E-03
 1.802363054E+00 1.264607696E-01 3.572967407E-03
 -2.710585614E-01 -2.546518938E-01 1.490402536E-01
 -1.622729331E-01 -5.652653584E-01 5.684506473E-02
 -2.654024528E-01 2.066898292E-01 1.586779014E-01
 -1.538883465E-01 6.868020083E-01 3.585587200E-02
 2.782483900E-02 3.290441607E-01 1.785186879E-02
 4.977757626E-02 4.052169501E-02 -8.065161761E-02
 2.212809204E+00 5.764254986E-01 -1.022081585E-02
 2.741629120E+00 5.997244750E-01 -3.703001069E-03
 -2.457653343E-01 -3.707592626E-03 2.035519685E-01
 -1.413191964E-01 -1.293686562E-01 2.227822742E-01
 3.208976264E-02 -2.988131265E-02 -3.590844144E-02
 4.058972083E-02 -3.624494229E-01 2.531892547E-02
 2.804308503E-01 -3.088761616E-01 -2.000443036E-01
 3.382716427E-01 -6.376963787E-02 -5.566632050E-01
 -1.347860891E-01 1.107661172E-01 2.215191716E-01
 -1.079456317E-01 1.093018868E-03 3.272052651E-01
 -5.463714317E-02 -6.601636649E-02 3.593204326E-01
 -4.955417458E-02 -1.501304059E-01 1.768202124E-01
 2.571726090E-03 -9.354334960E-02 1.799172545E-01
 2.807069754E-02 -1.992294674E-01 4.016426743E-02
 1.637937532E-02 -1.892560032E-02 1.126943456E-01
 6.697214304E-02 -1.068306515E-01 -5.788178466E-02
 1.154187126E-01 -1.585086000E-01 -1.311591434E-01
 -1.499724759E-02 -5.245545021E-02 3.824703968E-01
 -5.675197005E-02 -1.414218108E-02 3.313070620E-01
 1.212618335E-01 -9.730519755E-02 -2.039319072E-01
 1.774116736E-01 -1.249045936E-01 -2.637731195E-01
 2.420928321E-01 -6.593021141E-02 -4.190643000E-01
 1.945666225E-01 -2.206278120E-01 -2.023454969E-01
 2.397936481E-01 -1.547948869E-01 -3.173429138E-01
 1.074032806E-01 -2.592475355E-01 -7.488811447E-02
 1.576786089E-01 -8.443777683E-02 -2.742982776E-01
 1.673364984E-01 -5.508414153E-02 -3.217847924E-01
 2.258606762E-01 -1.082605638E-01 -3.474213196E-01
 2.146050232E-01 -6.124171240E-02 -3.839165135E-01
 2.724659942E-01 -1.097447679E-01 -4.028197305E-01
 2.987953354E-01 -1.570536263E-01 -3.681400800E-01
 3.052756614E-01 -6.696171170E-02 -5.071325376E-01
 3.231971922E-01 -1.123955265E-01 -4.564926518E-01
 3.531563474E-01 -1.555273153E-01 -4.047720762E-01
 3.738816466E-01 -1.062530946E-01 -4.904654562E-01
 4.353492720E-01 -6.373946256E-02 -5.040070641E-01
 4.052828140E-01 -1.484302270E-01 -4.102905964E-01
 3.975349019E-01 -1.966126626E-01 -3.456968798E-01
 4.579358726E-01 -1.846089125E-01 -3.036383759E-01
 4.128027640E-01 -2.759401795E-01 -2.505603441E-01
 5.307070279E-01 -2.473773204E-01 -1.603552598E-01
 6.283704005E-01 -4.120115587E-02 -1.207238875E-02
 5.994831912E-01 -4.832610099E-02 -7.125420549E-02
 5.644059003E-01 -1.596001574E-01 -1.152228020E-01
 6.320456938E-01 -2.190702172E-01 -2.882729240E-02
 5.092828508E-01 -5.930859300E-02 -2.855722574E-01
 6.602073884E-01 -1.422655072E-01 1.359052491E-02
 7.205183459E-01 -1.903348258E-01 7.075860001E-02
 8.450772828E-01 -1.631656850E-02 2.951906481E-01
 7.346446447E-01 -2.758735217E-02 1.539120936E-01
 8.193950628E-01 -1.907122072E-02 2.644412403E-01
 7.590396757E-01 -2.271430231E-02 1.905032071E-01
 8.685346641E-01 -1.265027656E-02 3.195600359E-01
 7.446678351E-01 -1.198527789E-01 1.210676383E-01
 8.030452881E-01 -1.645717640E-01 1.484643398E-01
 9.686587276E-01 -1.149476430E-02 3.442021590E-01
 9.441832925E-01 -9.040774324E-03 3.482007473E-01
 8.246526146E-01 -9.737673811E-02 2.071471965E-01
 5.029700842E-01 -3.825658016E-01 -1.343175613E-01
 3.619374349E-01 -6.382549737E-02 -5.713395161E-01
 7.923365932E-01 -2.751462918E-01 8.970936211E-02
 8.976194965E-01 -2.287743606E-01 1.550064460E-01
 4.768952696E-01 -1.263856176E-01 -3.207072661E-01
 6.024373312E-01 -1.095749477E-01 -6.757079492E-02
 6.949882814E-01 -9.363716245E-02 7.676966308E-02
 7.761873437E-01 -7.564143994E-02 1.792734239E-01
 8.711651980E-01 -3.782271553E-01 8.335865363E-02
 1.010077425E+00 -2.940896353E-01 1.213135459E-01
 1.035876602E+00 -1.812027439E-01 1.571709701E-01
 1.140278623E+00 -2.252700605E-01 1.089539272E-01
 1.159171065E+00 -8.895102968E-02 1.119263234E-01
 1.072638923E+00 -6.683109853E-02 1.689700409E-01
 9.266241169E-01 -1.301868025E-01 2.188910701E-01
 1.266487147E+00 -1.722195246E-01 7.195247825E-02
 1.279657517E+00 -4.176069502E-02 6.393839123E-02
 1.178844632E+00 2.406355958E-02 8.044868248E-02
 1.290062076E+00 1.028218403E-01 4.610674208E-02
 1.407774351E+00 1.586536878E-02 3.529326921E-02
 1.498534444E+00 1.760930576E-01 1.258640182E-02
 1.240032823E+00 2.890181295E-01 1.465535122E-02
 1.002061667E+00 -4.900696251E-01 7.885755845E-02
 4.161919452E-01 -1.049343043E-01 -4.676349616E-01
 1.076746620E+00 1.929636140E-01 4.187982039E-02
 9.569317299E-01 2.514770056E-02 8.430269513E-02
 9.508606343E-01 2.019378656E-01 -4.207437446E-02
 8.434147068E-01 4.161005180E-02 -1.940125196E-01
 8.711127443E-01 3.937485524E-02 -1.445323110E-01
 8.206073432E-01 4.482753443E-02 -2.270182565E-01
 8.580635414E-01 2.935945262E-01 -1.468647221E-01
 8.040416365E-01 1.873868270E-01 -2.195883401E-01
 7.337159708E-01 2.590110067E-01 -2.824543945E-01
 7.420887280E-01 5.461467277E-02 -3.425122116E-01
 7.198277414E-01 5.741769764E-02 -3.813008462E-01
 6.986625044E-01 1.704307986E-01 -3.615655247E-01
 6.347839298E-01 2.296519773E-01 -4.032347524E-01
 4.250373211E-01 7.941934699E-02 -5.923887753E-01
 4.667463289E-01 7.492174272E-02 -6.270960564E-01
 5.503319792E-01 7.138362280E-02 -6.334975757E-01
 4.010295170E-01 7.372903047E-02 -5.803793832E-01
 6.084569599E-01 1.547249165E-01 -4.955031929E-01
 5.479401510E-01 2.134935970E-01 -4.719394116E-01
 6.374878802E-01 6.550147946E-02 -5.251010265E-01
 5.493021941E-01 3.065189964E-01 -3.989919518E-01
 4.574789136E-01 2.707124872E-01 -4.156672336E-01
 8.849233381E-01 1.276935816E-01 -9.984948166E-02
 4.371584412E-01 1.770434676E-01 -4.947616756E-01
 3.536816106E-01 2.115735977E-01 -3.948144484E-01
 5.402891318E-01 1.405501678E-01 -5.530540429E-01
 7.515079367E-01 1.257717535E-01 -3.029089245E-01
 6.609272241E-01 1.224317160E-01 -4.413327010E-01
 1.014865065E+00 1.156736371E-01 6.643036690E-02
 3.505669000E-01 3.255181281E-01 -3.158012648E-01
 2.502562808E-01 2.587274073E-01 -2.713711171E-01
 2.667001848E-01 1.726901171E-01 -3.492041429E-01
 2.371926751E-01 7.424881770E-02 -4.130141231E-01
 3.260156810E-01 7.508844682E-02 -5.064980727E-01
 3.024537024E-01 7.135521044E-02 -4.839246254E-01
 1.748969717E-01 1.843978902E-01 -2.427751276E-01
 3.833887499E-01 1.460099799E-01 -4.936469309E-01
 3.250838533E-01 1.310688651E-01 -4.474787847E-01
 4.829847820E-01 1.320664953E-01 -5.631115791E-01
 5.851954186E-01 1.081847495E-01 -5.622245368E-01
 5.778100434E-01 7.081889263E-02 -6.066020339E-01
 2.213332113E-01 1.303909969E-01 -3.314684760E-01
 1.475503045E-01 1.279413319E-01 -2.317424252E-01
 1.517053455E-01 5.608637211E-02 -3.192171846E-01
 1.106825100E-01 1.649402225E-01 -1.316640354E-01
 7.807624579E-02 1.134144543E-01 -7.889946508E-02
 8.606922828E-02 4.669642889E-02 -1.989339356E-01
 3.538360012E-02 1.793235966E-01 4.713707570E-02
 2.363769652E-02 1.013739682E-01 1.051761573E-01
 1.593724695E-02 2.182323703E-02 1.729103598E-01
 2.608350562E-02 2.704199055E-02 2.252638909E-02
 2.298220033E-01 4.005752340E-01 -1.718376892E-01
 4.300675750E-01 1.287161636E-01 -5.415734188E-01
 1.453741599E+00 4.605746393E-01 -1.507803159E-02
 4.525232305E-01 -9.708913461E-02 -4.114678164E-01
 2.743947037E-01 1.212186349E-01 -4.062573111E-01
 1.207433501E-01 9.178959412E-02 -2.166623957E-01
 5.805529948E-02 7.895890455E-02 -4.796991079E-02
 3.109372018E+00 -2.612569040E-01 1.106260726E-02
 1.829971625E-01 1.021869370E-01 -3.202931827E-01
 2.066308364E-01 6.535704001E-02 -3.861696775E-01
 5.484469968E-01 1.009947175E-01 -5.984883633E-01
 5.288057292E-01 7.195347963E-02 -6.415490961E-01
 1.302621226E+00 -3.551036956E-01 6.331070771E-02
 4.846303939E-01 4.393416136E-01 -2.908625016E-01
 3.833795188E-02 -7.232554480E-02 3.055296940E-02
 6.000319110E-02 -3.677000147E-02 -1.548140948E-01
 1.568941767E-02 -5.059918234E-02 1.631775956E-01
 2.591944031E-02 6.231020676E-02 9.747310646E-02
 -1.531577993E-02 7.347724277E-02 2.792748874E-01
 -4.083217734E-02 1.280625426E-01 2.215403490E-01
 -7.862433128E-02 2.261300697E-01 1.439727281E-01
 -2.686365747E-02 -2.341627659E-02 5.620869794E-01
 4.413967665E-03 -1.100893171E-02 3.798750409E-01
 3.621166583E-01 1.110519141E-01 -5.057271939E-01
 3.528474938E-01 7.169512645E-02 -5.370530646E-01
 4.107258730E-01 -6.535968362E-02 -5.465790993E-01
 4.820414734E-01 -5.663391309E-02 -3.800693402E-01
 4.787803109E-01 -7.287217305E-02 -3.776873233E-01
 4.588524814E-01 -6.083126541E-02 -4.414118960E-01
 -1.482853876E-01 4.083802116E-01 8.341208972E-02
 9.130650487E-02 -7.803363335E-02 -1.699586407E-01
 1.082181162E-01 -4.800127512E-02 -2.473226708E-01
 5.635935200E-01 7.201110476E-02 -6.194239324E-01
 5.701974521E-01 8.668826425E-02 -5.972342298E-01
 5.890131283E-01 8.163608503E-02 -5.837413986E-01
 6.093055542E-01 8.496889714E-02 -5.545356487E-01
 2.442210127E-01 1.017110210E-01 -3.984137786E-01
 4.233924641E-01 -6.250626990E-02 -5.340721383E-01
 4.268836166E-01 -7.832481782E-02 -4.964335121E-01
 4.475450658E-01 -7.578792870E-02 -4.525084823E-01
 3.456926416E-01 -9.256377307E-02 -5.109247490E-01
 -4.334549623E-03 -3.256240774E-02 4.571336250E-01
 2.678475209E-01 -2.110256117E-01 -2.907660578E-01
 6.199956556E-01 -3.443616432E-01 -4.096493165E-02
 1.944802960E-01 -9.047828674E-02 -3.195533761E-01
 1.539339814E-01 -6.418003268E-02 -2.920871076E-01
 6.642843607E-02 -6.848367786E-02 -1.174439433E-01
 4.610628307E-02 -5.063086188E-02 -6.092859000E-02
 2.158639687E-02 -3.459999335E-02 6.530053483E-02
 2.329821807E-02 -2.386799347E-02 3.373204335E-02
 3.501397924E-01 -6.630944902E-02 -5.614732608E-01
 3.211854073E-01 -8.090162107E-02 -5.076317196E-01
 4.588864503E-01 1.075837599E-01 -5.818677318E-01
 4.874595447E-01 9.711355153E-02 -6.081566404E-01
 4.441734034E-01 8.837219357E-02 -5.958840889E-01
 4.007833860E-01 -8.314850299E-02 -5.253874388E-01
 3.815261377E-01 -7.751279658E-02 -5.478114031E-01
 9.134201678E-02 7.946320152E-02 -1.649292116E-01
 6.259523813E-01 6.418912889E-02 -5.468325188E-01
 6.274342619E-01 7.686839088E-02 -5.303938446E-01
 6.488336148E-01 7.720204943E-02 -4.944060800E-01
 6.275898798E-01 1.036118200E-01 -5.103858539E-01
 6.831348729E-01 9.295586855E-02 -4.228011545E-01
 8.660457835E-01 -1.410885696E-01 2.008437521E-01
 4.930130236E-01 -6.001946899E-02 -3.347307630E-01
 5.006117291E-01 -7.796478841E-02 -2.944459637E-01
 5.249486678E-01 -7.404023562E-02 -2.344198014E-01
 5.083655230E-01 -1.043196380E-01 -2.598382723E-01
 5.494105900E-01 -9.813457206E-02 -1.690977410E-01
 5.352126905E-01 -5.569943696E-02 -2.186617025E-01
 5.796270825E-01 -8.048122198E-02 -1.157224238E-01
 6.124589499E-01 -7.437693805E-02 -4.879482390E-02
 5.222916901E-01 -5.524579389E-02 -2.532525057E-01
 9.289485821E-02 -5.555565992E-02 -1.991403831E-01
 4.394787901E-01 7.397062245E-02 -6.076496444E-01
 4.527131766E-01 7.557405504E-02 -6.156561801E-01
 5.482764450E-01 -5.202698548E-02 -1.859615242E-01
 5.477678939E-01 -6.911125707E-02 -1.798856130E-01
 5.832873528E-01 -5.842618120E-02 -1.003785543E-01
 6.478458671E-01 6.333269787E-02 -5.048871765E-01
 6.161520518E-01 -4.853223771E-02 -3.486308864E-02
 3.726073580E-01 -6.610399194E-02 -5.724561785E-01
 9.865618807E-02 -4.320520931E-02 -2.393429924E-01
 1.562095815E-01 -5.199469298E-02 -3.103658714E-01
 1.318556205E-01 -6.768418177E-02 -2.573878820E-01
 9.036219862E-02 -4.135504057E-02 -2.280641972E-01
 6.804620914E-01 6.141832088E-02 -4.466858963E-01
 4.263055948E-01 1.018361695E-01 -5.677390352E-01
 5.539581708E-01 6.986151630E-01 -2.053746152E-01
 4.467210369E-01 -6.143128716E-02 -4.767072677E-01
 1.351934469E-01 2.543526601E-01 -1.240909450E-01
 3.832258079E-01 -6.338973093E-02 -5.787840634E-01
 4.126833935E-01 7.405795695E-02 -5.885435012E-01
 2.556783017E+00 2.078675265E-01 1.247383640E-04
 5.161736083E-01 1.107869984E-01 -5.992888264E-01
 1.780345239E-01 -6.842202460E-02 -3.202460935E-01
 4.931702839E-01 1.867732430E-01 -5.088957695E-01
 6.148274355E-01 6.801137301E-02 -5.611662160E-01
 5.146200306E-01 -1.534043697E-01 -2.156112196E-01
 2.161990506E-01 9.018431720E-02 -3.721213500E-01
 2.556697271E-01 8.057405089E-02 -4.259487811E-01
 4.789763645E-01 7.736804918E-02 -6.303025131E-01
 5.864589718E-01 -4.493031075E-02 -1.010367442E-01
 5.760291971E-01 -4.722651844E-02 -1.210182989E-01
 1.615853477E+00 -8.020499478E-02 2.296953501E-02
 8.837217081E-01 -8.874183729E-02 2.490606889E-01
 9.262073261E-01 -6.985578521E-02 2.746062931E-01
 8.963279455E-01 -4.403950219E-02 3.000930610E-01
 8.562353420E-01 -5.144858655E-02 2.694383424E-01
 8.168305488E-01 -5.508083286E-02 2.315944971E-01
 9.248496642E-01 -3.892034949E-02 3.118487756E-01
 9.235562541E-01 -8.287203030E-03 3.493940362E-01
 9.508591333E-01 -4.271904909E-02 3.063630457E-01
 9.689967206E-01 -7.786078151E-02 2.579047573E-01
 1.000172106E+00 -5.640773148E-02 2.495395223E-01
 7.885281648E-01 -4.919900030E-02 2.076369620E-01
 9.135329443E-01 -6.771679676E-03 3.512642176E-01
 9.123103959E-01 -2.074524596E-02 3.308397999E-01
 8.941799978E-01 -2.171151359E-02 3.257588096E-01
 7.664662623E-01 -5.050604565E-02 1.821649678E-01
 7.379792310E-01 -7.009400048E-02 1.378413613E-01
 7.088155946E-01 -3.142725395E-02 1.194121253E-01
 7.065944292E-01 -6.366966230E-02 1.015534786E-01
 6.799108398E-01 -6.031573421E-02 6.547077830E-02
 6.549547671E-01 -3.643848640E-02 3.713807211E-02
 6.477608396E-01 -8.560683867E-02 1.320402626E-02
 6.427362975E-01 -3.961561763E-02 1.263858572E-02
 6.545283496E-01 -5.356064975E-02 2.952392896E-02
 9.332791045E-01 -1.968804793E-02 3.348526245E-01
 1.022324429E+00 -9.761851380E-02 1.993272316E-01
 1.043101875E+00 -2.328968333E-02 1.857062658E-01
 8.340893039E-01 -3.114165193E-02 2.699926420E-01
 9.461388251E-01 1.174196339E-01 -1.925344240E-02
 9.075035801E-01 8.506765692E-02 -6.517510785E-02
 8.600621607E-01 8.310659346E-02 -1.531538605E-01
 8.319926386E-01 1.265495068E-01 -1.876308195E-01
 7.877980425E-01 9.514593133E-02 -2.585566371E-01
 7.691321641E-01 5.019201197E-02 -3.033968236E-01
 8.219935150E-01 8.223233977E-02 -2.130332712E-01
 9.574536061E-01 7.306911804E-02 4.130762125E-02
 9.272491921E-01 2.414959115E-02 -4.882314358E-03
 1.010048170E+00 5.742180811E-02 1.470177670E-01
 9.871792940E-01 1.662867520E-02 2.103383696E-01
 1.086442374E+00 7.584308714E-02 1.109384635E-01
 7.574832585E-01 5.445744307E-02 -3.195399816E-01
 7.495239814E-01 6.792097291E-02 -3.259773464E-01
 7.329471699E-01 6.634166723E-02 -3.544332067E-01
 7.104008780E-01 7.538137922E-02 -3.863989618E-01
 7.078868216E-01 1.127152444E-01 -3.718948312E-01
 8.856896079E-01 6.044716183E-02 -1.116305522E-01
 7.447666724E-01 8.800488705E-02 -3.275325589E-01
 6.986763755E-01 -4.546235709E-02 1.003395695E-01
 7.233348036E-01 -4.458214696E-02 1.328873565E-01
 6.583077302E-01 6.313050674E-02 -4.846763209E-01
 7.702697544E-01 6.782695305E-02 -2.947632328E-01
 1.104677307E-01 -6.584817838E-02 -2.212607628E-01
 6.700811817E-01 7.491837875E-02 -4.552376033E-01
 7.715801617E-01 -2.211825621E-02 2.086168439E-01
 7.478329407E-01 -3.916676749E-02 1.670697046E-01
 9.163196060E-01 5.409964661E-02 -4.243668349E-02
 8.892972379E-01 4.115012975E-02 -1.014251677E-01
 3.019612403E-01 1.017177443E-01 -4.528921400E-01
 3.321993625E-01 9.493630923E-02 -4.914856970E-01
 2.664744382E-03 3.612663508E-02 3.696014359E-01
 8.034486598E-03 1.663162098E-02 8.528781114E-02
 3.680179834E-02 4.731275151E-02 -1.784217957E-02
 -2.607220993E-02 1.552108529E-02 6.252784352E-01
 5.212743596E-02 5.713401664E-02 -6.605033897E-02
 6.781156436E-02 4.344882311E-02 -1.433247343E-01
 9.809017217E-01 -3.150802534E-02 2.971933124E-01
 1.011378951E+00 -3.085775701E-02 2.545789970E-01
 9.965603163E-01 -1.304491209E-02 3.435072418E-01
 9.549982040E-01 -2.228170723E-02 3.286715190E-01
 9.821251088E-01 -1.072468918E-02 3.243497389E-01
 3.547930188E-01 8.531052668E-02 -5.252373655E-01
 3.777640225E-01 8.947822404E-02 -5.427363596E-01
 7.214116158E-01 -2.685483736E-02 1.377422434E-01
 7.575480425E-02 6.088128298E-02 -1.415895598E-01
 9.852147188E-02 5.888182376E-02 -2.098565197E-01
 2.497670564E-01 -8.787525980E-02 -4.036519516E-01
 8.068690608E-01 -3.474216826E-02 2.404661779E-01
 7.963810557E-01 -2.117887899E-02 2.381122304E-01
 2.011649330E-01 -7.141477122E-02 -3.536758238E-01
 2.222071779E-01 -7.779048437E-02 -3.754504351E-01
 2.589612706E-01 -7.094165282E-02 -4.386918108E-01
 2.736389729E-01 -8.036310486E-02 -4.437682459E-01
 4.986200109E-01 -7.052744264E-01 -4.237320590E-02
 2.884544332E-01 -6.710302791E-02 -4.833370794E-01
 2.973696102E-01 -8.624495999E-02 -4.670010990E-01
 5.889684936E-01 6.764148378E-02 -5.993295253E-01
 9.766525948E-01 3.739028091E-02 1.021869094E-01
 9.440504764E-01 4.485242604E-02 3.595192127E-02
 3.964566214E-01 1.125916920E-01 -5.344052797E-01
 6.957554014E-01 -3.150793099E-02 1.014765082E-01
 8.317657648E-01 -1.505345027E-02 2.815849486E-01
 1.723017529E+00 -3.182458056E-01 2.572058920E-02
 4.043868951E-01 8.810812037E-02 -5.674040074E-01
 7.969275861E-01 6.361330672E-02 -2.565317642E-01
 8.346295999E-01 5.869128099E-02 -1.983873208E-01
 8.577074543E-01 5.399898625E-02 -1.640755267E-01
 -8.840979717E-03 -1.968679470E-02 4.818156874E-01
 8.261330160E-04 -9.150933555E-03 5.793181478E-01