TITLE     = "Visualization of the solution"
VARIABLES = "x"
"y"
"Mach"
ZONE T="Zone"
 STRANDID=0, SOLUTIONTIME=0
 Nodes=686, Elements=1157, ZONETYPE=FEQuadrilateral
 DATAPACKING=POINT
 DT=(DOUBLE DOUBLE DOUBLE )
 1.000352025E+00 5.157821579E-04 5.724383674E-01
 9.873349667E-01 3.017763374E-03 6.348197556E-01
 9.750804305E-01 5.350873340E-03 6.569104361E-01
 9.598879218E-01 8.148234338E-03 6.841766566E-01
 9.462056756E-01 1.075664908E-02 7.033494444E-01
 9.333957434E-01 1.314911526E-02 7.212386807E-01
 9.219302535E-01 1.522002276E-02 7.342939736E-01
 9.098582268E-01 1.742309332E-02 7.482723929E-01
 8.982387185E-01 1.947502233E-02 7.630289315E-01
 8.861221671E-01 2.158938348E-02 7.766474139E-01
 8.737542033E-01 2.364560775E-02 7.869046108E-01
 8.614715934E-01 2.560267225E-02 7.953497066E-01
 8.487955332E-01 2.758601308E-02 8.043508789E-01
 8.368822932E-01 2.937720343E-02 8.094099961E-01
 8.246346712E-01 3.114129230E-02 8.136113884E-01
 8.116291761E-01 3.302170709E-02 8.206279380E-01
 7.984983325E-01 3.487475961E-02 8.281887001E-01
 7.864869237E-01 3.653736040E-02 8.355514124E-01
 7.742173076E-01 3.821582347E-02 8.423169687E-01
 7.622525096E-01 3.978515789E-02 8.507458301E-01
 7.496767640E-01 4.145801812E-02 8.595412960E-01
 7.356800437E-01 4.319299012E-02 8.660304214E-01
 7.248023152E-01 4.453394189E-02 8.734910952E-01
 7.137801647E-01 4.586594179E-02 8.811851364E-01
 7.019997239E-01 4.723767936E-02 8.901824198E-01
 6.884733438E-01 4.878367856E-02 9.006475670E-01
 6.755584478E-01 5.019725487E-02 9.099296530E-01
 6.651973128E-01 5.127529427E-02 9.181615439E-01
 6.537079811E-01 5.245862529E-02 9.282577188E-01
 6.425227523E-01 5.355708301E-02 9.372220803E-01
 6.305338740E-01 5.466389284E-02 9.454045940E-01
 6.193446517E-01 5.565800890E-02 9.547694630E-01
 6.085624099E-01 5.657934770E-02 9.632947079E-01
 5.960178375E-01 5.757114664E-02 9.704486454E-01
 5.841060281E-01 5.844446272E-02 9.787850900E-01
 5.705778003E-01 5.937510729E-02 9.873045652E-01
 5.578284860E-01 6.015809253E-02 9.938169304E-01
 5.453513861E-01 6.085241213E-02 9.978602548E-01
 5.343213081E-01 6.140471995E-02 9.989974607E-01
 5.223653316E-01 6.192214787E-02 9.994127870E-01
 5.094690919E-01 6.242275983E-02 1.000318341E+00
 4.983550608E-01 6.277757138E-02 9.989122175E-01
 4.852186143E-01 6.312823296E-02 9.962085834E-01
 4.720340073E-01 6.338333338E-02 9.926898174E-01
 4.577284753E-01 6.357663125E-02 9.890348493E-01
 4.438566864E-01 6.366622448E-02 9.849717284E-01
 4.307098091E-01 6.367576122E-02 9.805644088E-01
 4.178454876E-01 6.360259652E-02 9.753450487E-01
 4.054422081E-01 6.346466392E-02 9.699288110E-01
 3.927872777E-01 6.324792653E-02 9.642005124E-01
 3.805504143E-01 6.296420097E-02 9.597114514E-01
 3.693469167E-01 6.266508251E-02 9.554885244E-01
 3.561892509E-01 6.223686785E-02 9.502814481E-01
 3.439265788E-01 6.176249310E-02 9.450078661E-01
 3.313041925E-01 6.121212244E-02 9.405427143E-01
 3.208321631E-01 6.071433425E-02 9.354162627E-01
 3.084546626E-01 6.004640460E-02 9.293955538E-01
 2.953725457E-01 5.928270146E-02 9.246730961E-01
 2.816796899E-01 5.840143189E-02 9.188523461E-01
 2.688984573E-01 5.748819560E-02 9.123160880E-01
 2.567495704E-01 5.655958131E-02 9.057721073E-01
 2.441617101E-01 5.553968623E-02 8.994625782E-01
 2.313116044E-01 5.439953879E-02 8.934352241E-01
 2.190491259E-01 5.325672776E-02 8.884349211E-01
 2.071661949E-01 5.207054317E-02 8.829923030E-01
 1.957622468E-01 5.086751282E-02 8.756877427E-01
 1.832404137E-01 4.945750535E-02 8.691443662E-01
 1.712998152E-01 4.804603383E-02 8.620725891E-01
 1.596910059E-01 4.657893628E-02 8.549334024E-01
 1.477324814E-01 4.498709738E-02 8.478088971E-01
 1.369011253E-01 4.345758632E-02 8.416529802E-01
 1.256016791E-01 4.178642854E-02 8.350666885E-01
 1.141624302E-01 3.998416290E-02 8.276621983E-01
 1.035625413E-01 3.821182996E-02 8.198858011E-01
 9.369766712E-02 3.646614403E-02 8.119230641E-01
 8.269521594E-02 3.439067677E-02 8.020629402E-01
 7.086020708E-02 3.198685497E-02 7.904292087E-01
 6.103395671E-02 2.982509695E-02 7.786524049E-01
 5.136121437E-02 2.752771415E-02 7.651900948E-01
 4.248127341E-02 2.521611936E-02 7.533899757E-01
 3.497411683E-02 2.306959778E-02 7.411355792E-01
 2.847812511E-02 2.102832124E-02 7.277886420E-01
 2.291012555E-02 1.910395548E-02 7.173099813E-01
 1.893638261E-02 1.758615114E-02 7.015336937E-01
 1.517476980E-02 1.600653864E-02 6.823223596E-01
 1.244888734E-02 1.475477032E-02 6.665466628E-01
 1.003995351E-02 1.353547163E-02 6.478376212E-01
 8.268677630E-03 1.256008632E-02 6.525105176E-01
 6.678576581E-03 1.160526462E-02 6.336422723E-01
 5.208481569E-03 1.062932331E-02 5.842691200E-01
 3.300178330E-03 9.197814390E-03 4.930921048E-01
 1.663808944E-03 7.730847225E-03 4.178261901E-01
 2.613012039E-04 6.154600997E-03 3.847543361E-01
 -1.082677511E-03 3.992095590E-03 3.108928361E-01
 -1.696574385E-03 2.290932229E-03 1.896752895E-01
 -1.916699810E-03 9.328076267E-04 1.229769867E-01
 -1.888951520E-03 -6.952476106E-04 9.357695996E-02
 -1.484450651E-03 -2.548251068E-03 2.070589073E-01
 -5.572412629E-04 -4.688194487E-03 2.172610026E-01
 9.656371549E-04 -6.997655611E-03 3.057442859E-01
 3.123491770E-03 -9.421975352E-03 4.051754997E-01
 5.026234780E-03 -1.116481517E-02 4.454693154E-01
 7.257598918E-03 -1.293472480E-02 4.713912762E-01
 8.903828450E-03 -1.410329808E-02 5.126959005E-01
 1.098217443E-02 -1.545877103E-02 5.513667597E-01
 1.340825576E-02 -1.690860279E-02 5.783015053E-01
 1.671270654E-02 -1.868738979E-02 6.061951711E-01
 1.986187883E-02 -2.023733035E-02 6.267387308E-01
 2.394616790E-02 -2.206915990E-02 6.477038960E-01
 2.944780514E-02 -2.429742366E-02 6.776033005E-01
 3.526717797E-02 -2.640441433E-02 7.044028835E-01
 4.271527752E-02 -2.884702757E-02 7.337100766E-01
 5.031444877E-02 -3.108228371E-02 7.559528133E-01
 5.927162990E-02 -3.347506747E-02 7.759886389E-01
 6.805441529E-02 -3.561739624E-02 7.913935094E-01
 7.848969102E-02 -3.794675320E-02 8.050372561E-01
 8.832127601E-02 -3.996449336E-02 8.165908867E-01
 9.880813211E-02 -4.196317121E-02 8.264306267E-01
 1.096485704E-01 -4.388216883E-02 8.375142665E-01
 1.211547330E-01 -4.577798769E-02 8.474684208E-01
 1.325804442E-01 -4.752900079E-02 8.584017891E-01
 1.429382563E-01 -4.901680350E-02 8.656306550E-01
 1.539727002E-01 -5.051627010E-02 8.721861141E-01
 1.656408757E-01 -5.199261382E-02 8.797370004E-01
 1.771630794E-01 -5.335191265E-02 8.863861251E-01
 1.888326406E-01 -5.464605242E-02 8.941268285E-01
 1.992523968E-01 -5.572110042E-02 9.016538103E-01
 2.102494389E-01 -5.678545684E-02 9.100864289E-01
 2.224491984E-01 -5.787309259E-02 9.192632753E-01
 2.349319309E-01 -5.889096856E-02 9.284559228E-01
 2.469972372E-01 -5.977393314E-02 9.364087672E-01
 2.594367266E-01 -6.058605760E-02 9.443426789E-01
 2.703615129E-01 -6.122762337E-02 9.536577698E-01
 2.830337584E-01 -6.186560541E-02 9.630349945E-01
 2.955256701E-01 -6.238003820E-02 9.731280415E-01
 3.083963394E-01 -6.281004846E-02 9.831827130E-01
 3.199075758E-01 -6.307597458E-02 9.921071657E-01
 3.324939311E-01 -6.327531487E-02 9.997342012E-01
 3.431296349E-01 -6.333411485E-02 1.006050150E+00
 3.545098603E-01 -6.328953058E-02 1.009078744E+00
 3.655708730E-01 -6.316285580E-02 1.013652831E+00
 3.762032390E-01 -6.294912845E-02 1.018191647E+00
 3.876768351E-01 -6.260309368E-02 1.016134549E+00
 4.004116356E-01 -6.206498295E-02 1.007503517E+00
 4.127375185E-01 -6.144224480E-02 9.973362036E-01
 4.257093072E-01 -6.063294783E-02 9.838351775E-01
 4.386082292E-01 -5.971851945E-02 9.673402458E-01
 4.514410496E-01 -5.864895508E-02 9.483255739E-01
 4.637895226E-01 -5.750714242E-02 9.276636520E-01
 4.762733579E-01 -5.624227226E-02 9.073609669E-01
 4.881654382E-01 -5.496076122E-02 8.905737125E-01
 5.007263422E-01 -5.351277068E-02 8.734972522E-01
 5.145247579E-01 -5.180352181E-02 8.559229713E-01
 5.284265280E-01 -5.002801493E-02 8.391751289E-01
 5.415820479E-01 -4.825944081E-02 8.232856827E-01
 5.553187132E-01 -4.637204483E-02 8.076102842E-01
 5.683071017E-01 -4.452909157E-02 7.933587919E-01
 5.818091631E-01 -4.258571938E-02 7.798993469E-01
 5.941500664E-01 -4.078006372E-02 7.676708496E-01
 6.066017747E-01 -3.895099089E-02 7.564724187E-01
 6.202018857E-01 -3.691885620E-02 7.451679659E-01
 6.343451142E-01 -3.479363397E-02 7.336984532E-01
 6.486533880E-01 -3.269232810E-02 7.239513359E-01
 6.619856954E-01 -3.069484420E-02 7.154972352E-01
 6.756548285E-01 -2.863441035E-02 7.049928989E-01
 6.881373525E-01 -2.676942945E-02 6.948840878E-01
 7.006031275E-01 -2.494635805E-02 6.871512494E-01
 7.155042887E-01 -2.279746346E-02 6.797749375E-01
 7.284396291E-01 -2.091629617E-02 6.709625996E-01
 7.402946353E-01 -1.927683875E-02 6.647600558E-01
 7.528390884E-01 -1.751555875E-02 6.580191889E-01
 7.652702332E-01 -1.579325832E-02 6.495623196E-01
 7.784986496E-01 -1.405096240E-02 6.430771720E-01
 7.903234959E-01 -1.248233579E-02 6.354786133E-01
 8.026702404E-01 -1.087612286E-02 6.271387051E-01
 8.138577938E-01 -9.506954812E-03 6.209801160E-01
 8.253148794E-01 -8.154032752E-03 6.155168325E-01
 8.379848003E-01 -6.747215986E-03 6.092851463E-01
 8.500401378E-01 -5.434868392E-03 6.023243184E-01
 8.623709083E-01 -4.226036835E-03 5.956295537E-01
 8.737598062E-01 -3.161681583E-03 5.898455305E-01
 8.857378364E-01 -2.188719111E-03 5.852521899E-01
 8.987891674E-01 -1.253607683E-03 5.812317474E-01
 9.087622762E-01 -6.400285638E-04 5.780301223E-01
 9.190555215E-01 -1.227664616E-04 5.769587693E-01
 9.283677340E-01 2.654902055E-04 5.756183638E-01
 9.372776747E-01 5.568228662E-04 5.731062201E-01
 9.496368766E-01 8.278483292E-04 5.728312943E-01
 9.628413916E-01 9.671992739E-04 5.739328000E-01
 9.774975777E-01 9.395106463E-04 5.708308311E-01
 9.900491834E-01 7.623592392E-04 5.821512411E-01
 -5.000000000E-01 -1.000000000E+00 7.101328453E-01
 3.500000000E+00 -1.000000000E+00 7.309618992E-01
 3.500000000E+00 1.000000000E+00 7.287644129E-01
 -5.000000000E-01 1.000000000E+00 7.103079993E-01
 -5.000000000E-01 5.000000000E-01 6.988690520E-01
 -5.000000000E-01 2.752797990E-12 6.864398190E-01
 -5.000000000E-01 -5.000000000E-01 6.974004477E-01
 -9.421907698E-13 -1.000000000E+00 7.237608158E-01
 5.000000000E-01 -1.000000000E+00 7.471621507E-01
 1.000000000E+00 -1.000000000E+00 7.326228640E-01
 1.500000000E+00 -1.000000000E+00 7.207160439E-01
 2.000000000E+00 -1.000000000E+00 7.229004700E-01
 2.500000000E+00 -1.000000000E+00 7.268235695E-01
 3.000000000E+00 -1.000000000E+00 7.287674428E-01
 3.500000000E+00 -5.000000000E-01 7.334714817E-01
 3.500000000E+00 -2.752797990E-12 7.351636686E-01
 3.500000000E+00 5.000000000E-01 7.325902832E-01
 3.000000000E+00 1.000000000E+00 7.272551536E-01
 2.500000000E+00 1.000000000E+00 7.300608327E-01
 2.000000000E+00 1.000000000E+00 7.354069101E-01
 1.500000000E+00 1.000000000E+00 7.475701723E-01
 1.000000000E+00 1.000000000E+00 7.688704406E-01
 5.000000000E-01 1.000000000E+00 7.693049728E-01
 1.733724275E-12 1.000000000E+00 7.287407274E-01
 6.851437290E-01 -3.930813059E-02 7.044191554E-01
 7.801998543E-01 -2.430235023E-02 6.476709490E-01
 9.042657271E-01 -1.121522472E-02 5.879774725E-01
 5.874792028E-01 -5.607272023E-02 7.793513652E-01
 7.107229519E-01 5.790090399E-02 8.858940822E-01
 2.760443807E-01 -7.520702244E-02 9.599042724E-01
 2.708802889E-01 7.475363187E-02 9.147050663E-01
 9.069116970E-01 3.268739353E-02 7.574194793E-01
 8.069456669E-01 4.622834001E-02 8.265035631E-01
 6.060348598E-01 6.971938141E-02 9.637892262E-01
 4.459337839E-01 -7.009181261E-02 9.529487566E-01
 4.378664075E-01 7.512963036E-02 9.815285654E-01
 1.838754001E+00 -5.976593118E-01 7.284193042E-01
 1.771363521E+00 6.056637705E-01 7.435700284E-01
 3.031187360E+00 2.156785441E-01 7.379966223E-01
 7.831117051E-01 -5.405642467E-01 7.341879900E-01
 3.601479517E-01 -7.262032983E-02 1.008546210E+00
 2.745517961E-01 -6.923559315E-01 7.641140029E-01
 1.156331224E-01 -5.594910607E-02 8.495737951E-01
 1.787130688E-01 -6.760824308E-02 8.934233027E-01
 7.518046811E-01 5.648826337E-01 8.174670868E-01
 5.162333880E-01 7.485261893E-02 9.974172112E-01
 3.264971805E-01 6.248018636E-01 7.907929666E-01
 1.155612462E-01 5.164352146E-02 8.316847719E-01
 1.864056375E-01 6.361812860E-02 8.745867765E-01
 3.613780878E-01 7.210318418E-02 9.523167690E-01
 2.734818851E+00 -5.327207550E-01 7.337146843E-01
 1.158399410E+00 6.953288855E-01 7.638594877E-01
 9.919734260E-01 3.376534254E-01 7.581434131E-01
 1.200777929E+00 -6.880022151E-01 7.191317616E-01
 1.453326893E+00 -2.651805925E-01 7.239257730E-01
 2.249311308E+00 -5.883755882E-01 7.316584815E-01
 1.991437405E+00 -2.113386421E-01 7.349436749E-01
 2.414672009E+00 -1.864972941E-01 7.375189948E-01
 2.184522068E+00 1.579927006E-01 7.408249894E-01
 1.844572940E+00 1.076378557E-01 7.386467796E-01
 -2.742526602E-01 2.322212644E-01 6.792540586E-01
 -1.017492717E-01 6.220240809E-01 7.247057558E-01
 2.062374263E-02 3.364302189E-01 7.280304065E-01
 4.297513745E-02 3.434656195E-02 7.572481563E-01
 -2.711074621E-01 -2.367548299E-01 6.777542811E-01
 -6.890180896E-02 -6.055624105E-01 7.251578672E-01
 1.037365223E-01 -3.643449234E-01 7.646434171E-01
 2.215283075E+00 5.741539616E-01 7.397973545E-01
 2.742050495E+00 5.993419142E-01 7.360239985E-01
 -2.353024568E-01 -4.497968094E-03 6.570757263E-01
 -1.279184927E-01 1.264798301E-01 6.470864793E-01
 -1.095462461E-01 -1.270889720E-01 6.430874461E-01
 6.257436512E-02 -4.415517392E-02 7.875537290E-01
 -6.926592139E-02 -3.221461635E-01 7.027755093E-01
 3.839620723E-04 -1.845576678E-01 6.975817713E-01
 1.680792981E-01 -2.395848210E-01 8.196701887E-01
 2.264318917E-01 -7.412188221E-02 9.256472396E-01
 -2.638494421E-02 -1.044953850E-01 6.314308119E-01
 3.007827207E-02 -3.233521855E-02 6.945446283E-01
 -1.096589975E-01 -2.340008332E-02 6.019501047E-01
 -7.071007681E-02 5.535134516E-02 5.819648283E-01
 3.587560928E-02 -1.119975799E-01 7.190582999E-01
 3.109344216E+00 -2.613004451E-01 7.365807408E-01
 -5.086794209E-02 -3.876696591E-02 5.572038650E-01
 -5.116402591E-02 1.156064804E-02 5.270094836E-01
 -2.867523459E-02 5.010822367E-02 5.640664587E-01
 2.593614535E-02 2.528971660E-02 7.206429534E-01
 -3.668933141E-02 1.020986371E-01 6.342367787E-01
 3.453053306E-02 1.137369754E-01 7.187749186E-01
 8.679409032E-02 4.598683282E-02 8.104242142E-01
 -5.969742096E-03 1.953165749E-01 6.987631632E-01
 8.266290168E-02 1.620193839E-01 7.703694694E-01
 1.720763740E-01 2.871430136E-01 8.021887428E-01
 2.047763086E-01 1.818024835E-01 8.508343931E-01
 2.831253814E-01 2.566654399E-01 8.664253759E-01
 2.376901049E-01 6.612585050E-02 8.990413638E-01
 3.013502516E-01 1.644574200E-01 9.020294487E-01
 3.679362472E-01 2.033591857E-01 9.108296733E-01
 3.252918156E-01 7.509893337E-02 9.384648436E-01
 3.005324339E-01 7.535805083E-02 9.277208280E-01
 3.691896431E-01 1.466255429E-01 9.348918155E-01
 4.365140322E-01 1.835986492E-01 9.423931604E-01
 4.800217830E-01 7.347343634E-02 9.920270205E-01
 4.418151971E-01 2.673432315E-01 9.041583443E-01
 5.302272865E-01 2.136046465E-01 9.354573196E-01
 3.979265760E-01 7.514507681E-02 9.653080108E-01
 5.381229364E-01 3.536749188E-01 8.859386407E-01
 6.340241302E-01 2.726173012E-01 8.901108575E-01
 6.604667808E-01 6.278315529E-02 9.234788319E-01
 6.181814133E-01 1.690585806E-01 9.293629222E-01
 5.638770382E-01 7.206666742E-02 9.887645878E-01
 5.400100417E-01 7.343960800E-02 9.958697670E-01
 7.189615197E-01 1.950535971E-01 8.676058931E-01
 7.585106865E-01 5.248102076E-02 8.559256972E-01
 7.820278593E-01 4.943667844E-02 8.411088603E-01
 7.405282441E-01 2.850179046E-01 8.439549904E-01
 8.300715444E-01 2.151145742E-01 8.112297622E-01
 8.575775956E-01 3.940324208E-02 8.001575191E-01
 8.322950077E-01 4.202588005E-02 8.126209282E-01
 7.822198058E-01 1.389988912E-01 8.392180772E-01
 8.850060423E-01 1.420832796E-01 7.823082440E-01
 9.565666997E-01 2.344917904E-02 7.004912508E-01
 6.794948152E-01 1.337871290E-01 9.023985305E-01
 5.486341606E-01 1.420100560E-01 9.712495679E-01
 1.435993950E-01 1.301122277E-01 8.298552670E-01
 1.530611110E-01 5.984016900E-02 8.557540404E-01
 6.334071523E-01 1.143801866E-01 9.392368999E-01
 6.386934166E-01 6.681949408E-02 9.394868670E-01
 8.311571971E-01 1.066811679E-01 8.150748398E-01
 2.451411184E-01 1.325430927E-01 8.881656206E-01
 4.245908270E-01 1.238222796E-01 9.620285067E-01
 4.830755961E-01 1.363589469E-01 9.718449678E-01
 3.286145042E-01 1.202512371E-01 9.294867022E-01
 8.958680342E-02 1.074923340E-01 7.935717866E-01
 6.774271716E-01 3.969968809E-01 8.510127125E-01
 1.394036499E-01 4.545639995E-01 7.677215420E-01
 5.178557688E-01 1.095923955E-01 9.873402685E-01
 -6.035568200E-03 -6.106849360E-02 6.128055352E-01
 1.086714775E-02 -1.871928028E-02 5.585718895E-01
 3.378738275E-02 -7.275116061E-02 7.228912582E-01
 4.537217940E-02 -4.028822563E-02 7.497677255E-01
 6.674561042E-01 9.418248094E-02 9.188916643E-01
 6.826286650E-01 6.106903536E-02 9.069905807E-01
 7.080289827E-01 9.886077150E-02 8.893578537E-01
 7.280213305E-01 1.326605701E-01 8.711817734E-01
 7.470495372E-01 1.005785190E-01 8.648374137E-01
 7.327263829E-01 5.854098847E-02 8.718609862E-01
 5.503064725E-01 1.041036631E-01 9.855476761E-01
 4.561488941E-01 1.057559097E-01 9.789483934E-01
 9.277359366E-01 2.304353770E-01 7.674992769E-01
 9.726423342E-01 1.355662997E-01 7.328099826E-01
 9.252596265E-01 8.537926254E-02 7.531117590E-01
 1.023471008E+00 2.127619617E-01 7.356457939E-01
 1.084513876E+00 1.122713074E-01 7.067670903E-01
 1.137543377E+00 2.400079844E-01 7.304264348E-01
 1.233474983E+00 7.290397346E-02 7.125014534E-01
 1.332889250E+00 2.616876133E-01 7.331240117E-01
 1.418561944E+00 9.028040889E-02 7.268297788E-01
 1.132055215E+00 1.220460696E-02 6.852315186E-01
 1.020407639E+00 7.482999543E-02 6.940891166E-01
 1.065423466E+00 2.281793931E-02 6.656387240E-01
 1.095599055E+00 -5.466438509E-02 6.731231871E-01
 9.707152481E-01 -1.148860101E-02 5.797823126E-01
 9.482034505E-01 -1.130915654E-02 5.848609268E-01
 9.279590340E-01 -9.109566748E-03 5.824165903E-01
 9.323421944E-01 -2.479941889E-02 5.987128199E-01
 8.437481392E-01 -2.027293210E-02 6.151109919E-01
 8.699431526E-01 -1.241235021E-02 5.986042125E-01
 1.366759136E+00 -8.116117256E-02 7.164374074E-01
 1.043683311E+00 -2.497828795E-02 6.417459350E-01
 1.023202736E+00 -9.215560377E-02 6.544304855E-01
 1.200247058E+00 -7.380834868E-02 6.964206255E-01
 1.110734509E+00 -1.587464290E-01 6.864238776E-01
 1.010200995E+00 -1.765531101E-01 6.688058311E-01
 1.052553194E+00 -2.851406819E-01 6.929392389E-01
 9.386778346E-01 -1.196774865E-01 6.491920646E-01
 8.970192291E-01 -2.177859544E-01 6.770044214E-01
 8.319118986E-01 -1.405468787E-01 6.720171317E-01
 7.426957191E-01 -3.092450975E-02 6.696115793E-01
 7.621541609E-01 -2.916828283E-02 6.591729679E-01
 7.907995097E-01 -2.318590048E-01 7.040327776E-01
 7.257251639E-01 -1.655822201E-01 7.137909989E-01
 5.216977282E-01 -6.471702671E-02 8.489238730E-01
 5.530784585E-01 -6.286230669E-02 8.142554116E-01
 6.922907475E-01 -2.398166096E-01 7.344447706E-01
 6.322509314E-01 -1.647554161E-01 7.597839335E-01
 6.432472861E-01 -4.564575229E-02 7.353523147E-01
 5.947964251E-01 -2.556869355E-01 7.785602394E-01
 5.345800920E-01 -1.805752630E-01 8.268772581E-01
 4.843970688E-01 -6.713405805E-02 8.960162347E-01
 4.886857420E-01 -2.744733892E-01 8.384176882E-01
 4.293860627E-01 -1.887824478E-01 9.021930254E-01
 3.956708481E-01 -7.482079462E-02 1.004990229E+00
 4.181086328E-01 -7.416143282E-02 9.868712858E-01
 3.824746787E-01 -2.729389758E-01 8.776135482E-01
 3.131262674E-01 -2.115692407E-01 9.007769958E-01
 3.172841492E-01 -7.640386447E-02 9.889139971E-01
 6.761490572E-01 -1.100059088E-01 7.313112182E-01
 7.734464499E-01 -9.530819551E-02 6.790060894E-01
 5.766688776E-01 -1.227332834E-01 7.964127328E-01
 4.805356826E-01 -1.424456114E-01 8.831608557E-01
 8.734896543E-01 -9.142299735E-02 6.445714749E-01
 3.622223684E-01 -1.543676661E-01 9.493845916E-01
 5.515760007E-01 -4.050090951E-01 7.902554360E-01
 1.235892673E+00 -2.129510012E-01 7.083670801E-01
 8.687329619E-01 -3.517305734E-01 7.069210740E-01
 1.015719902E+00 -5.025036086E-01 7.119937174E-01
 1.001951410E+00 -4.439101780E-02 6.226087653E-01
 9.680295610E-01 -7.156096881E-02 6.278631813E-01
 4.189352116E-01 4.031292474E-01 8.576699533E-01
 1.226604212E-01 8.989731494E-02 8.321603801E-01
 3.869090436E-01 1.109478885E-01 9.537061113E-01
 3.579279605E-01 1.065588022E-01 9.452091069E-01
 6.974307934E-01 6.086745966E-02 8.962851471E-01
 3.484584796E-01 7.417134100E-02 9.473562599E-01
 5.790096276E-01 7.174952787E-02 9.808946375E-01
 2.706412226E-01 -3.181171315E-01 8.391842266E-01
 2.417929431E-01 -1.669772268E-01 8.920359028E-01
 1.608960858E-02 6.312712034E-02 6.828088932E-01
 5.827326007E-02 7.781899801E-02 7.687723645E-01
 6.247712759E-02 4.138666895E-02 7.869674281E-01
 4.920938233E-01 7.445316965E-02 9.945758615E-01
 4.821226425E-01 9.380650615E-02 9.874443546E-01
 5.065657692E-01 8.611562495E-02 9.941265265E-01
 5.293459389E-01 8.764710867E-02 9.935121279E-01
 5.597791579E-01 5.231731252E-01 8.442903240E-01
 6.897132717E-01 7.748575184E-02 9.038115059E-01
 6.710759875E-01 7.254401386E-02 9.164408165E-01
 1.587703169E-01 8.985851834E-02 8.579839314E-01
 1.949940991E-01 1.204119732E-01 8.690054756E-01
 4.232525392E-01 7.610480023E-02 9.761669953E-01
 4.350260725E-01 9.265872773E-02 9.761657706E-01
 4.545113846E-01 8.622350806E-02 9.834939589E-01
 9.217080635E-01 -6.162900887E-02 6.212722952E-01
 5.704159803E-01 8.818984807E-02 9.830228245E-01
 5.906976684E-01 8.239891170E-02 9.722674716E-01
 6.127959412E-01 8.966942775E-02 9.578209574E-01
 5.517875229E-01 8.416175749E-02 9.909398846E-01
 8.828390585E-01 -4.808354734E-02 6.196832369E-01
 8.452435238E-01 -5.702562147E-02 6.357599196E-01
 8.255433914E-01 -2.137638163E-02 6.238987650E-01
 4.102433537E-01 8.979900183E-02 9.673859855E-01
 3.811679092E-01 8.831669489E-02 9.575498901E-01
 9.096096517E-01 -3.619214392E-02 6.061304266E-01
 5.517708950E-01 7.013570752E-02 9.940534005E-01
 4.109420329E-01 7.362322786E-02 9.711533316E-01
 8.810139017E-01 -1.276894606E-02 5.951065483E-01
 8.945141681E-01 -2.404606374E-02 6.005442615E-01
 5.876860976E-01 1.121395003E-01 9.672579734E-01
 6.396685548E-01 8.959971152E-02 9.405067747E-01
 6.241078362E-01 7.224085720E-02 9.512438960E-01
 -1.191987318E-01 2.686484521E-01 6.883541999E-01
 2.557299916E+00 2.073139938E-01 7.402608810E-01
 -2.017070901E-02 -3.090483794E-02 4.999735458E-01
 5.108126015E-03 -1.348635416E-02 4.535622869E-01
 -2.337745113E-02 -6.169254503E-03 4.055181793E-01
 -9.368514819E-03 1.468009827E-02 4.361136615E-01
 5.284552017E-01 7.185324068E-02 9.969166006E-01
 2.280139800E-01 9.928478265E-02 8.927635197E-01
 2.113544091E-01 6.676967412E-02 8.878379867E-01
 2.584259648E-01 9.787967586E-02 9.080116458E-01
 2.521896372E-01 7.736259531E-02 9.051545571E-01
 2.881790940E-01 8.891588522E-02 9.220229821E-01
 3.128628407E-01 9.155577560E-02 9.317101949E-01
 7.288415341E-01 7.778089989E-02 8.768690269E-01
 1.018279714E+00 2.949997397E-02 6.578067306E-01
 9.866230048E-01 1.874595427E-02 6.595578700E-01
 1.030764658E+00 3.548217921E-03 6.225515061E-01
 1.592560697E+00 2.663557115E-01 7.397009258E-01
 1.438416194E+00 5.113701895E-01 7.470345437E-01
 9.287207495E-02 7.651235919E-02 8.111222315E-01
 1.349626151E-01 6.917168921E-02 8.464130326E-01
 1.687502884E-01 7.024729808E-02 8.677614170E-01
 1.006090255E-01 5.659100662E-02 8.210462948E-01
 -6.989011279E-04 3.761583137E-02 6.095342650E-01
 7.341134578E-03 2.223456442E-02 6.225342470E-01
 6.666834319E-03 1.342625831E-02 6.244645951E-01
 1.673530281E-02 2.065253913E-02 6.876483178E-01
 1.504311887E-02 3.836362068E-02 6.838228781E-01
 1.787881527E-02 2.859420616E-02 7.000707051E-01
 3.082454447E-02 3.747119166E-02 7.261774115E-01
 1.109254273E-02 1.654009320E-02 6.456914686E-01
 4.812562170E-02 4.982074200E-02 7.643007577E-01
 1.162561260E-01 6.656221813E-02 8.325577652E-01
 1.591303806E-03 -3.891399229E-02 5.835320526E-01
 2.118628644E-02 -2.542049528E-02 6.387123502E-01
 2.368823057E-02 -4.941702558E-02 6.894104372E-01
 3.381323021E-01 8.937547160E-02 9.422000355E-01
 6.524420969E-01 7.525016837E-02 9.293669794E-01
 7.460322897E-01 5.266802237E-02 8.634541637E-01
 7.523904151E-01 6.994005872E-02 8.618567020E-01
 7.830059087E-01 8.577523939E-02 8.440078489E-01
 8.151700943E-01 7.671468175E-02 8.267188536E-01
 8.450290352E-01 7.330283600E-02 8.095489076E-01
 7.736066154E-01 6.161498751E-02 8.490361097E-01
 8.230635495E-01 5.649043641E-02 8.201645319E-01
 7.963394525E-01 6.212796389E-02 8.356356840E-01
 1.963882181E-01 8.142277177E-02 8.805065970E-01
 9.619430777E-01 -3.557914670E-02 6.025722711E-01
 9.902621061E-01 -1.837267440E-02 5.889812109E-01
 1.013402702E+00 -1.673559601E-02 6.078822526E-01
 4.064025172E-01 -4.504806058E-01 8.172397446E-01
 2.873288105E-01 7.134234025E-02 9.219881105E-01
 7.318471227E-02 5.739186451E-02 7.991743402E-01
 1.635248835E+00 -6.239253158E-02 7.303636696E-01
 8.786542114E-02 -1.798971583E-01 7.769106415E-01
 1.045006188E-01 -1.131828954E-01 8.209688523E-01
 1.436313568E-01 -5.883493730E-02 8.696195141E-01
 6.756460442E-02 -8.252143699E-02 7.928261511E-01
 9.006751330E-02 -5.162866535E-02 8.250616131E-01
 6.159226314E-02 -2.649853411E-01 7.481502703E-01
 8.534920494E-01 3.448269052E-01 8.021686548E-01
 9.369629516E-01 5.042563973E-01 7.800683941E-01
 8.569985827E-01 -3.415340109E-02 6.195899151E-01
 9.925090254E-01 5.057869105E-02 6.824770130E-01
 9.721797295E-01 3.764284892E-02 6.922688633E-01
 9.451078243E-01 4.643003164E-02 7.239846086E-01
 9.305094276E-01 2.885481315E-02 7.315201817E-01
 9.214012315E-01 4.654284655E-02 7.471176722E-01
 8.986675778E-01 5.206112749E-02 7.712132872E-01
 8.766539060E-01 8.599268843E-02 7.885535564E-01
 8.827464502E-01 3.669636384E-02 7.823770068E-01
 8.699949187E-01 5.439359235E-02 7.936117469E-01
 9.702183754E-01 7.478592709E-02 7.128163747E-01
 9.423570741E-01 2.452795764E-02 7.175265718E-01
 8.693077659E-01 3.526119223E-02 7.914285003E-01
 9.181221673E-01 2.814563386E-02 7.439611176E-01
 5.910315548E-01 6.832481577E-02 9.731561026E-01
 1.602265783E-01 -1.532747495E-01 8.480382727E-01
 2.011530258E-01 -1.169221842E-01 8.973835998E-01
 2.486510081E-01 -1.141379187E-01 9.276893408E-01
 2.522296555E-01 -7.310546980E-02 9.426142927E-01
 1.542433466E-01 -1.024446090E-01 8.717760538E-01
 1.252984972E-01 -8.853102008E-02 8.598242051E-01
 1.010126374E-01 -7.156694146E-02 8.397127712E-01
 1.288442856E-01 -6.890206024E-02 8.628189286E-01
 7.321527961E-02 -6.029415545E-02 8.117434261E-01
 2.249531122E-01 -9.713822050E-02 9.230762523E-01
 2.050965730E-01 -6.504654356E-02 9.092326027E-01
 2.645672898E-01 -8.998260699E-02 9.505373742E-01
 2.845709342E-01 -1.190643583E-01 9.457645238E-01
 2.154596709E-01 -6.730824802E-02 9.161319095E-01
 2.074507753E-01 -8.081398018E-02 9.131213502E-01
 1.828584431E-01 -8.493542302E-02 8.977771179E-01
 1.640326729E-01 -7.649059808E-02 8.868450773E-01
 1.937006496E-01 -6.812855711E-02 9.025030148E-01
 2.428337209E-01 -8.643568070E-02 9.364808316E-01
 2.916302460E-01 -9.059281961E-02 9.680005790E-01
 3.180266966E-01 -1.085853775E-01 9.732692980E-01
 3.341356896E-01 -7.422326345E-02 9.988529185E-01
 3.021965502E-01 -7.564361266E-02 9.779726939E-01
 3.374226737E-01 7.232407230E-02 9.430763879E-01
 3.134757128E-01 7.118241615E-02 9.324662891E-01
 1.687491586E+00 -3.287322870E-01 7.311535425E-01
 1.161110818E+00 4.235048521E-01 7.486015088E-01
 6.495666055E-01 6.217370521E-02 9.322373367E-01
 8.197136143E-01 4.178153117E-02 8.185604199E-01
 5.587737449E-01 -6.208601394E-01 7.688053323E-01
 2.590723432E-01 -4.633584471E-01 7.853544940E-01
 2.765603677E-01 4.031600677E-01 8.227183275E-01
 3.133974596E+00 6.339745962E-01 7.324427128E-01
 2.645279131E-01 -7.202175604E-02 9.501034156E-01
 8.743654283E-01 -2.515156826E-02 6.068702843E-01
 5.103367364E-02 -5.823786303E-02 7.724315766E-01
 3.121818335E-01 -1.485705819E-01 9.423452370E-01
 3.529591939E-01 -1.128714820E-01 9.825008399E-01
 3.972988890E-01 -1.195600296E-01 9.724366725E-01
 3.802469679E-01 -9.660714708E-02 1.001184252E+00
 3.543349941E-01 -8.561618329E-02 1.002224651E+00
 3.755906991E-01 -8.009463937E-02 1.011027633E+00
 2.234961299E-01 7.803538215E-02 8.953021046E-01
 5.045434266E-01 7.212434895E-02 9.976632719E-01
 3.133974596E+00 -6.339745962E-01 7.325215094E-01
 7.942251182E-01 4.662619921E-02 8.337787151E-01
 2.403035621E-01 -7.021586631E-02 9.343907411E-01
 1.994153413E-01 6.294972610E-02 8.811814963E-01
 8.945373221E-01 3.250185813E-02 7.706177999E-01
 9.147552070E-01 -2.043279706E-02 5.931956458E-01
 8.595777248E-01 -1.694185948E-02 6.062518349E-01
 1.246160231E+00 -4.101447427E-01 7.132216985E-01
 8.459580585E-01 5.153140333E-02 8.074810882E-01
 1.963655842E+00 3.586597891E-01 7.434712829E-01
 9.700675573E-01 1.866741798E-02 6.770623885E-01
 7.094075340E-01 7.305396202E-02 8.892979314E-01
 7.520227064E-02 4.222857960E-02 7.994347564E-01
 4.662138393E-01 7.587630331E-02 9.884774548E-01
 8.444721781E-01 3.878066717E-02 8.074847045E-01
 3.492516261E-01 -7.181668440E-02 1.005653431E+00
 7.701229957E-01 4.830673361E-02 8.475990716E-01
 7.204241916E-01 6.436764035E-02 8.810266918E-01
 6.709854388E-01 5.957375073E-02 9.146786025E-01
 1.448092729E-01 -7.659456938E-02 8.754989253E-01
 8.430638802E-01 -7.253217016E-01 7.377971602E-01
 2.244336925E-01 6.446705211E-02 8.930765277E-01
 5.319461156E-02 3.658135680E-02 7.719528024E-01
 1.030339951E-01 -5.299801058E-02 8.376633637E-01
 2.596742019E-01 6.642387735E-02 9.093579548E-01
 1.387272833E-01 2.028463600E-01 8.097136658E-01
 8.162411190E-02 2.367511103E-01 7.619658034E-01
 6.169203708E-01 6.297323563E-02 9.560710066E-01
 -1.987899907E-01 4.092732516E-01 7.012506365E-01
 2.890956290E-01 1.159338477E-01 9.146366405E-01
 1.283913464E-01 5.428441685E-02 8.394489065E-01
 1.402097358E-01 5.434819175E-02 8.460691702E-01
 9.841963813E-02 4.497841024E-02 8.191029549E-01
 1.064629763E-01 4.628178623E-02 8.249695092E-01
 8.371348662E-01 -3.475225585E-02 6.284111804E-01
 8.151634772E-01 -4.482267354E-02 6.426750727E-01
 8.206066064E-01 -8.111618979E-02 6.561624308E-01
 7.831531493E-01 -5.940389429E-02 6.646433823E-01