TITLE     = "Visualization of the solution"
VARIABLES = "x"
"y"
"Mach"
ZONE T="Zone"
 STRANDID=0, SOLUTIONTIME=0
 Nodes=693, Elements=1171, ZONETYPE=FEQuadrilateral
 DATAPACKING=POINT
 DT=(DOUBLE DOUBLE DOUBLE )
 1.000168443E+00 5.150496727E-04 5.774012473E-01
 9.863278270E-01 3.152946709E-03 6.417345705E-01
 9.731678367E-01 5.588851403E-03 6.629104743E-01
 9.579160810E-01 8.530361578E-03 6.930240748E-01
 9.433903694E-01 1.120179892E-02 7.072567964E-01
 9.305070639E-01 1.362553798E-02 7.268759843E-01
 9.193077683E-01 1.575056650E-02 7.425781827E-01
 9.070020318E-01 1.796596125E-02 7.544808328E-01
 8.949791789E-01 2.008013241E-02 7.670655646E-01
 8.828935027E-01 2.222971991E-02 7.801607518E-01
 8.703736067E-01 2.430941351E-02 7.896923036E-01
 8.582434654E-01 2.631970309E-02 7.983131271E-01
 8.458633423E-01 2.828206867E-02 8.067163832E-01
 8.344429135E-01 3.007776849E-02 8.143469824E-01
 8.227109909E-01 3.186099604E-02 8.192439220E-01
 8.099822998E-01 3.372738138E-02 8.251083671E-01
 7.973295450E-01 3.560704365E-02 8.337401526E-01
 7.854114771E-01 3.731673583E-02 8.412042519E-01
 7.731050849E-01 3.903448209E-02 8.494957174E-01
 7.615709901E-01 4.064957052E-02 8.571864670E-01
 7.486444116E-01 4.235801846E-02 8.634920069E-01
 7.352305055E-01 4.412097484E-02 8.719992843E-01
 7.245042324E-01 4.550572485E-02 8.815373935E-01
 7.133944035E-01 4.690283537E-02 8.907153762E-01
 7.018402219E-01 4.832077771E-02 8.992401383E-01
 6.885514855E-01 4.988061637E-02 9.085434286E-01
 6.758118868E-01 5.134806037E-02 9.179798923E-01
 6.651928425E-01 5.251092091E-02 9.266986760E-01
 6.534878016E-01 5.375732109E-02 9.373061029E-01
 6.423351765E-01 5.491603911E-02 9.474534018E-01
 6.303297877E-01 5.606862158E-02 9.568150650E-01
 6.189926863E-01 5.712932721E-02 9.670834326E-01
 6.083030701E-01 5.807569623E-02 9.775107472E-01
 5.962086320E-01 5.909263715E-02 9.863811580E-01
 5.843246579E-01 6.000312045E-02 9.948485490E-01
 5.708389878E-01 6.099154428E-02 1.003714146E+00
 5.579231977E-01 6.182666495E-02 1.012032856E+00
 5.452973247E-01 6.258919835E-02 1.019432557E+00
 5.339674354E-01 6.319048256E-02 1.023205964E+00
 5.219970942E-01 6.377410144E-02 1.021915949E+00
 5.089666843E-01 6.428214908E-02 1.020064852E+00
 4.979226291E-01 6.468498707E-02 1.018996165E+00
 4.847229421E-01 6.507018209E-02 1.016604466E+00
 4.716430604E-01 6.537073106E-02 1.012419895E+00
 4.574495256E-01 6.559102237E-02 1.009555505E+00
 4.439532161E-01 6.574278325E-02 1.005158433E+00
 4.307883382E-01 6.577439606E-02 9.990100524E-01
 4.175993502E-01 6.574230641E-02 9.934900470E-01
 4.049785435E-01 6.563754380E-02 9.888131241E-01
 3.921637535E-01 6.545808166E-02 9.840556458E-01
 3.799048960E-01 6.521422416E-02 9.790336386E-01
 3.684182465E-01 6.492796540E-02 9.738864293E-01
 3.552438617E-01 6.453534216E-02 9.677762080E-01
 3.428170979E-01 6.408025324E-02 9.611672507E-01
 3.301187754E-01 6.355807185E-02 9.570023959E-01
 3.196488321E-01 6.307454407E-02 9.516190321E-01
 3.073436916E-01 6.243239716E-02 9.449283670E-01
 2.944364846E-01 6.169251353E-02 9.385078529E-01
 2.806581259E-01 6.081404909E-02 9.325499423E-01
 2.682878971E-01 5.995553359E-02 9.281712739E-01
 2.563280463E-01 5.905802920E-02 9.235340898E-01
 2.437923700E-01 5.804264173E-02 9.180832327E-01
 2.310771346E-01 5.692831799E-02 9.115104579E-01
 2.188374847E-01 5.577327684E-02 9.052656294E-01
 2.069138587E-01 5.456873402E-02 8.997334568E-01
 1.954223216E-01 5.334846303E-02 8.938405697E-01
 1.830787957E-01 5.193149298E-02 8.877063729E-01
 1.713101417E-01 5.050832033E-02 8.811486466E-01
 1.595262140E-01 4.898285493E-02 8.723768110E-01
 1.479042917E-01 4.740229994E-02 8.661786527E-01
 1.371235251E-01 4.583279788E-02 8.599223426E-01
 1.258869916E-01 4.410812259E-02 8.519938089E-01
 1.147158518E-01 4.227040708E-02 8.434837210E-01
 1.041579172E-01 4.043770581E-02 8.354790731E-01
 9.441612661E-02 3.863796592E-02 8.261649865E-01
 8.367341757E-02 3.651960194E-02 8.152774602E-01
 7.238706946E-02 3.411550820E-02 8.033148480E-01
 6.269662827E-02 3.188114241E-02 7.912724299E-01
 5.325209722E-02 2.952929772E-02 7.768436809E-01
 4.431412742E-02 2.709515207E-02 7.627186254E-01
 3.676456213E-02 2.484703809E-02 7.464803251E-01
 3.010905907E-02 2.267581783E-02 7.324065908E-01
 2.443567105E-02 2.063328214E-02 7.177608035E-01
 2.033017017E-02 1.900823228E-02 6.978103170E-01
 1.640182734E-02 1.731114835E-02 6.728654792E-01
 1.347983163E-02 1.592862606E-02 6.514520040E-01
 1.091189589E-02 1.459943876E-02 6.335252186E-01
 9.018282406E-03 1.353148930E-02 6.096035262E-01
 7.293377537E-03 1.246650610E-02 5.774958458E-01
 5.698566325E-03 1.139202248E-02 5.288443096E-01
 3.625640413E-03 9.801369160E-03 4.879487766E-01
 1.888671773E-03 8.201668970E-03 4.490239525E-01
 4.367837100E-04 6.528123282E-03 3.843994180E-01
 -9.531218093E-04 4.252448678E-03 3.121121228E-01
 -1.582429744E-03 2.478983719E-03 2.308638086E-01
 -1.814114628E-03 1.044260105E-03 1.142078468E-01
 -1.778985490E-03 -6.496008718E-04 1.087362035E-01
 -1.360160648E-03 -2.584720263E-03 1.616144508E-01
 -3.894180700E-04 -4.827668425E-03 2.987224460E-01
 1.150473137E-03 -7.183824666E-03 3.988657214E-01
 3.295792267E-03 -9.625614621E-03 4.467585193E-01
 5.237955134E-03 -1.143473573E-02 4.854822217E-01
 7.502578199E-03 -1.325671375E-02 5.308154787E-01
 9.195910767E-03 -1.448262017E-02 5.577350508E-01
 1.130350586E-02 -1.587863825E-02 5.800794162E-01
 1.375724375E-02 -1.736970618E-02 6.023473568E-01
 1.704446785E-02 -1.918214001E-02 6.290963076E-01
 2.018081211E-02 -2.075525373E-02 6.497314011E-01
 2.421764843E-02 -2.260827273E-02 6.702614656E-01
 2.961957268E-02 -2.484866977E-02 6.974266852E-01
 3.538852558E-02 -2.701534517E-02 7.206061371E-01
 4.243511707E-02 -2.939085849E-02 7.408691305E-01
 5.001913756E-02 -3.170616180E-02 7.653965942E-01
 5.878929049E-02 -3.414256126E-02 7.842163714E-01
 6.760232151E-02 -3.636555746E-02 7.979067653E-01
 7.791182399E-02 -3.874976188E-02 8.081619953E-01
 8.780645579E-02 -4.084561020E-02 8.199934144E-01
 9.851672500E-02 -4.296397790E-02 8.306789547E-01
 1.096779034E-01 -4.499059543E-02 8.407636465E-01
 1.211925447E-01 -4.693774879E-02 8.510314519E-01
 1.328788102E-01 -4.877584055E-02 8.612317869E-01
 1.434281915E-01 -5.032732710E-02 8.689685447E-01
 1.546119153E-01 -5.186854303E-02 8.764410885E-01
 1.664628834E-01 -5.340560526E-02 8.850474466E-01
 1.780859530E-01 -5.480694771E-02 8.936406695E-01
 1.897654831E-01 -5.611641705E-02 9.017286866E-01
 2.002422214E-01 -5.721543729E-02 9.105378384E-01
 2.115047574E-01 -5.831069127E-02 9.172738809E-01
 2.236655504E-01 -5.940063298E-02 9.235012664E-01
 2.358693779E-01 -6.039402634E-02 9.315700601E-01
 2.478124648E-01 -6.128318235E-02 9.409196058E-01
 2.600808442E-01 -6.209537014E-02 9.508196274E-01
 2.710827887E-01 -6.273806095E-02 9.601847895E-01
 2.836278677E-01 -6.336831301E-02 9.688890580E-01
 2.956986427E-01 -6.386329234E-02 9.774773115E-01
 3.085167706E-01 -6.428254396E-02 9.852630046E-01
 3.200646043E-01 -6.455149502E-02 9.928897712E-01
 3.324520886E-01 -6.472245604E-02 9.988965517E-01
 3.429534435E-01 -6.477862597E-02 1.005218770E+00
 3.543352187E-01 -6.472648680E-02 1.008700942E+00
 3.652683198E-01 -6.457843632E-02 1.010315606E+00
 3.761110902E-01 -6.434381008E-02 1.011133018E+00
 3.878180981E-01 -6.396725774E-02 1.009209272E+00
 4.005735815E-01 -6.343975663E-02 1.004785644E+00
 4.127102196E-01 -6.278111786E-02 9.962783095E-01
 4.256880879E-01 -6.196396053E-02 9.837147369E-01
 4.379651845E-01 -6.104638800E-02 9.695849334E-01
 4.508474469E-01 -5.998709798E-02 9.524151202E-01
 4.630158544E-01 -5.883203819E-02 9.334663059E-01
 4.753262699E-01 -5.758337304E-02 9.131471317E-01
 4.871767461E-01 -5.628713965E-02 8.947399139E-01
 4.995964170E-01 -5.486150831E-02 8.776305268E-01
 5.128986835E-01 -5.318628624E-02 8.576640873E-01
 5.263991356E-01 -5.146980658E-02 8.404869203E-01
 5.392643213E-01 -4.974592850E-02 8.256692901E-01
 5.526497364E-01 -4.788541794E-02 8.102741774E-01
 5.656844974E-01 -4.603972286E-02 7.953519905E-01
 5.788998604E-01 -4.413509369E-02 7.824785767E-01
 5.916163921E-01 -4.226853326E-02 7.702121499E-01
 6.043820381E-01 -4.038569331E-02 7.585348522E-01
 6.177135110E-01 -3.837085888E-02 7.462688737E-01
 6.318578124E-01 -3.625917062E-02 7.345153983E-01
 6.455810070E-01 -3.417940065E-02 7.249006290E-01
 6.588687301E-01 -3.217712045E-02 7.150261307E-01
 6.725857258E-01 -3.013963439E-02 7.069599237E-01
 6.849952936E-01 -2.826039866E-02 6.975747886E-01
 6.974592805E-01 -2.640753612E-02 6.885591728E-01
 7.124087214E-01 -2.421753481E-02 6.808318920E-01
 7.253613472E-01 -2.230074443E-02 6.714285168E-01
 7.369603515E-01 -2.060654946E-02 6.630506369E-01
 7.500489950E-01 -1.875232346E-02 6.560052150E-01
 7.628288269E-01 -1.694030873E-02 6.482864146E-01
 7.763485909E-01 -1.512334961E-02 6.423030550E-01
 7.885574102E-01 -1.348271407E-02 6.349140131E-01
 8.011648655E-01 -1.179703698E-02 6.259851533E-01
 8.125441074E-01 -1.037780847E-02 6.205370035E-01
 8.240029216E-01 -8.976088837E-03 6.142123921E-01
 8.361918926E-01 -7.509384770E-03 6.059462928E-01
 8.488336802E-01 -6.121400278E-03 5.990585803E-01
 8.608930707E-01 -4.854340572E-03 5.932741190E-01
 8.723262548E-01 -3.762617707E-03 5.876578289E-01
 8.838303685E-01 -2.739698626E-03 5.824728687E-01
 8.968786597E-01 -1.735212631E-03 5.776178508E-01
 9.068530202E-01 -1.049849438E-03 5.736173874E-01
 9.176030755E-01 -4.464928934E-04 5.722058808E-01
 9.276490211E-01 1.959370638E-05 5.695986291E-01
 9.371959567E-01 3.717982036E-04 5.684710606E-01
 9.497465491E-01 6.913920515E-04 5.687670388E-01
 9.633690119E-01 8.719481993E-04 5.692376339E-01
 9.776966572E-01 8.810617728E-04 5.680226290E-01
 9.897385240E-01 7.372520049E-04 5.795328554E-01
 -5.000000000E-01 -1.000000000E+00 7.093993351E-01
 3.500000000E+00 -1.000000000E+00 7.313546095E-01
 3.500000000E+00 1.000000000E+00 7.289018310E-01
 -5.000000000E-01 1.000000000E+00 7.093639626E-01
 -5.000000000E-01 5.000000000E-01 6.974102558E-01
 -5.000000000E-01 2.752797990E-12 6.846063714E-01
 -5.000000000E-01 -5.000000000E-01 6.962230813E-01
 -9.421907698E-13 -1.000000000E+00 7.238944510E-01
 5.000000000E-01 -1.000000000E+00 7.472622772E-01
 1.000000000E+00 -1.000000000E+00 7.327017505E-01
 1.500000000E+00 -1.000000000E+00 7.226256804E-01
 2.000000000E+00 -1.000000000E+00 7.241945633E-01
 2.500000000E+00 -1.000000000E+00 7.277291945E-01
 3.000000000E+00 -1.000000000E+00 7.295598320E-01
 3.500000000E+00 -5.000000000E-01 7.336739319E-01
 3.500000000E+00 -2.752797990E-12 7.353027499E-01
 3.500000000E+00 5.000000000E-01 7.326626889E-01
 3.000000000E+00 1.000000000E+00 7.276472571E-01
 2.500000000E+00 1.000000000E+00 7.305010038E-01
 2.000000000E+00 1.000000000E+00 7.360502569E-01
 1.500000000E+00 1.000000000E+00 7.500419613E-01
 1.000000000E+00 1.000000000E+00 7.760145633E-01
 5.000000000E-01 1.000000000E+00 7.731447469E-01
 1.733724275E-12 1.000000000E+00 7.291943706E-01
 6.820370254E-01 -4.219438144E-02 7.081412952E-01
 7.841120216E-01 -2.429900739E-02 6.438141507E-01
 9.017880223E-01 -1.043456944E-02 5.842827124E-01
 5.872234112E-01 -5.821700756E-02 7.825408547E-01
 6.972090102E-01 6.221217130E-02 9.027118256E-01
 2.768534058E-01 -7.304388167E-02 9.645266822E-01
 2.722502064E-01 7.241633991E-02 9.294430322E-01
 9.150379844E-01 2.999220048E-02 7.501522878E-01
 7.940978839E-01 4.799717546E-02 8.376826420E-01
 5.902627395E-01 7.344278625E-02 9.878590555E-01
 4.071781799E-01 -7.386061543E-02 9.972802966E-01
 4.241342439E-01 7.676003039E-02 9.929648055E-01
 1.788704396E+00 -5.287778590E-01 7.288261198E-01
 1.771101569E+00 6.158684364E-01 7.435703735E-01
 3.031183883E+00 2.156801830E-01 7.379923759E-01
 7.500000000E-01 -5.669872981E-01 7.425720353E-01
 4.780257434E-01 -6.784486455E-02 9.096517314E-01
 3.114668416E-01 -6.397887524E-01 7.721978821E-01
 1.230662851E-01 -6.269271828E-02 8.600002750E-01
 1.903549628E-01 -7.067938397E-02 9.060122981E-01
 7.497197940E-01 6.382286739E-01 8.152271680E-01
 5.012848694E-01 7.406512074E-02 1.016379014E+00
 3.332831095E-01 6.150708238E-01 7.927095860E-01
 1.159649169E-01 5.386076355E-02 8.467815601E-01
 1.841818835E-01 6.287378850E-02 8.886728990E-01
 3.486363612E-01 7.506969081E-02 9.623413677E-01
 2.734827205E+00 -5.327123428E-01 7.339097197E-01
 1.203384150E+00 7.017553305E-01 7.609446285E-01
 1.001318759E+00 2.993736044E-01 7.518991180E-01
 8.565533149E-01 4.061870790E-02 8.001277720E-01
 1.225011138E+00 -6.453307169E-01 7.190486941E-01
 1.504762991E+00 -2.685883058E-01 7.251695535E-01
 2.240977028E+00 -5.768839725E-01 7.318837953E-01
 2.025765249E+00 -1.913887686E-01 7.356533307E-01
 2.420104839E+00 -1.843717646E-01 7.375279668E-01
 2.184549811E+00 1.580594816E-01 7.409725405E-01
 1.814879785E+00 1.035565751E-01 7.382178890E-01
 -2.742886651E-01 2.323931553E-01 6.773670197E-01
 -1.011366806E-01 6.208143436E-01 7.253786916E-01
 1.626903177E-02 3.398473920E-01 7.285634007E-01
 4.859307627E-02 3.748318958E-02 7.689190007E-01
 -2.711085800E-01 -2.367981980E-01 6.757826707E-01
 -6.878401404E-02 -6.055203167E-01 7.251093726E-01
 1.026239933E-01 -3.642955589E-01 7.635399187E-01
 6.838781726E-02 -4.900496358E-02 7.976146938E-01
 2.215241974E+00 5.749160200E-01 7.396497980E-01
 2.742042021E+00 5.994696263E-01 7.360861738E-01
 -2.352886295E-01 -4.486103986E-03 6.542920039E-01
 -1.280252083E-01 1.265358813E-01 6.433030755E-01
 -1.094440050E-01 -1.271893727E-01 6.407507613E-01
 -7.078702697E-02 -3.207081682E-01 7.018226987E-01
 2.122087258E-03 -1.827483515E-01 6.979655156E-01
 3.703076942E-02 -3.378295028E-02 7.281575058E-01
 1.572856975E-01 -2.325976494E-01 8.191382953E-01
 3.376645103E-01 -7.429059101E-02 9.987606527E-01
 3.705724186E-01 -7.819227044E-02 1.005102326E+00
 3.127355714E-01 -7.490032189E-02 9.862554102E-01
 -2.590014033E-02 -1.042169310E-01 6.299438512E-01
 -1.094759783E-01 -2.345823500E-02 5.956096463E-01
 -7.076034973E-02 5.531379240E-02 5.793955478E-01
 2.121467002E-02 2.553250438E-02 6.958636262E-01
 3.622014606E-02 -1.118582812E-01 7.177146634E-01
 3.109348880E+00 -2.612930422E-01 7.366579839E-01
 -5.069771682E-02 -3.893981168E-02 5.472022700E-01
 -5.121566930E-02 1.150476023E-02 5.193958590E-01
 -2.682667832E-02 5.110861089E-02 5.696003368E-01
 -3.645896898E-02 1.020631163E-01 6.324886321E-01
 3.367971637E-02 1.133131541E-01 7.155734975E-01
 8.806033171E-02 4.891181233E-02 8.226442426E-01
 -7.203574210E-03 1.957594640E-01 6.972812380E-01
 8.106884043E-02 1.623361356E-01 7.711838753E-01
 1.758165950E-01 2.836101512E-01 8.085001148E-01
 2.035064081E-01 1.775288840E-01 8.595869990E-01
 2.814915380E-01 2.344910339E-01 8.730711689E-01
 2.378338188E-01 6.710121348E-02 9.158374693E-01
 2.910365099E-01 1.607008188E-01 9.084480503E-01
 3.737463160E-01 2.084854558E-01 9.186633263E-01
 3.111463694E-01 7.516961522E-02 9.464875558E-01
 3.215372174E-01 3.555580710E-01 8.548120686E-01
 4.685549959E-01 2.814841782E-01 9.154670109E-01
 4.668787264E-01 1.792290718E-01 9.616407576E-01
 5.489056566E-01 2.217805094E-01 9.418712295E-01
 6.502464422E-01 6.789681205E-02 9.405165933E-01
 6.269756983E-01 7.014826257E-02 9.592178692E-01
 6.733022777E-01 6.535791076E-02 9.208073149E-01
 5.509236199E-01 7.742361980E-02 1.011556241E+00
 5.271554701E-01 7.546665284E-02 1.017909545E+00
 4.617770532E-01 8.082078376E-02 1.005660058E+00
 3.980377628E-01 1.469607494E-01 9.598864213E-01
 3.871153808E-01 7.729257075E-02 9.787441416E-01
 5.402074262E-01 1.468300275E-01 9.814253933E-01
 6.157204723E-01 1.643343545E-01 9.391569028E-01
 6.365045962E-01 2.510118364E-01 9.027253560E-01
 7.040868060E-01 1.793871924E-01 8.802786828E-01
 7.427845755E-01 5.595477383E-02 8.683994018E-01
 7.204597589E-01 5.909602504E-02 8.856789111E-01
 7.270302732E-01 2.570758981E-01 8.561564841E-01
 7.944787812E-01 1.855471883E-01 8.281602892E-01
 7.620091990E-01 1.294859293E-01 8.524334065E-01
 8.531553953E-01 1.297827739E-01 8.031756798E-01
 1.398705533E-01 1.326368289E-01 8.350031759E-01
 1.524460302E-01 5.975565801E-02 8.711864219E-01
 8.829310476E-01 1.946655098E-01 7.811729739E-01
 9.686755753E-01 1.737171540E-02 6.786452757E-01
 9.133456868E-01 1.303180274E-01 7.650001964E-01
 6.651712362E-01 1.259538817E-01 9.185381129E-01
 8.789953590E-01 8.717299402E-02 7.855569713E-01
 8.769690467E-01 3.277670608E-02 7.852387451E-01
 8.315762422E-01 8.005958184E-02 8.139423967E-01
 8.169681688E-01 4.536355587E-02 8.229334750E-01
 8.303167030E-01 3.293789235E-01 8.068774601E-01
 9.302205787E-01 7.295487055E-02 7.446244167E-01
 9.712492712E-01 1.141885275E-01 7.261235617E-01
 9.622411366E-01 1.781058322E-01 7.439916064E-01
 1.042360918E+00 1.519834920E-01 7.156113442E-01
 4.919579272E-01 1.205069389E-01 9.970217108E-01
 2.442832963E-01 1.296774382E-01 8.984080983E-01
 5.873704052E-01 1.182806101E-01 9.792433359E-01
 4.818306534E-01 4.232049292E-01 8.694437483E-01
 6.502669686E-01 3.905754520E-01 8.602546893E-01
 9.670382268E-01 6.689457162E-02 7.117320657E-01
 9.383534639E-01 2.445593097E-02 7.206433336E-01
 8.588476413E-02 1.024894422E-01 7.963890049E-01
 2.862571637E-01 1.165522215E-01 9.226927651E-01
 1.491538546E-01 4.429801563E-01 7.745569260E-01
 3.434668885E-01 1.324151551E-01 9.438695620E-01
 -7.701213098E-03 -6.034883777E-02 6.016916668E-01
 1.046251572E-02 -1.968899993E-02 5.693695059E-01
 1.968527932E-02 -2.640768436E-02 6.441517055E-01
 2.991890245E-02 -7.275098439E-02 7.171881952E-01
 5.372981600E-02 -4.346433009E-02 7.696827019E-01
 5.268803764E-01 1.104788028E-01 1.004708614E+00
 5.559975227E-01 1.013809186E-01 1.001063744E+00
 3.765380649E-01 1.129810251E-01 9.644906430E-01
 4.092586121E-01 1.142394142E-01 9.754849485E-01
 1.225549458E-01 9.283522245E-02 8.413144384E-01
 1.316054344E-02 6.487817920E-02 6.682359755E-01
 4.838559380E-02 7.508026719E-02 7.568089474E-01
 6.436631875E-02 4.484096165E-02 7.962404273E-01
 5.138131128E-01 7.318247811E-02 1.017689644E+00
 5.132439612E-01 9.020426899E-02 1.011581506E+00
 4.895882347E-01 8.880998285E-02 1.010097130E+00
 4.683338075E-01 9.750866383E-02 1.002057214E+00
 4.466847091E-01 9.267090480E-02 9.974375402E-01
 4.435081773E-01 1.211315267E-01 9.854523750E-01
 3.971018711E-01 9.223083555E-02 9.786731230E-01
 9.841056831E-01 1.527684195E-02 6.572444733E-01
 9.541849910E-01 2.189531868E-02 7.025685254E-01
 9.494062603E-01 4.312393323E-02 7.178832983E-01
 3.623616999E-01 7.695990788E-02 9.690541143E-01
 3.562753402E-01 9.633354097E-02 9.610904868E-01
 3.328693505E-01 8.949676544E-02 9.532187306E-01
 3.755510035E-01 8.846945089E-02 9.714808326E-01
 2.875263168E-01 7.414946764E-02 9.352928583E-01
 9.758854939E-01 3.864188296E-02 6.848785165E-01
 1.007393960E+00 3.061338346E-02 6.620903593E-01
 1.000705042E+00 7.450999244E-02 6.959083668E-01
 1.056283741E+00 4.693885317E-02 6.783643855E-01
 3.243329995E-01 7.565292824E-02 9.529925944E-01
 9.279760665E-01 4.057014299E-02 7.386691880E-01
 9.029400209E-01 4.880716845E-02 7.646253862E-01
 2.781138250E-01 9.051230631E-02 9.295278544E-01
 2.612919092E-01 8.211342048E-02 9.241338929E-01
 2.993045257E-01 9.036642404E-02 9.386469343E-01
 2.307141722E-01 1.031327683E-01 9.043481873E-01
 2.130263597E-01 6.534066265E-02 9.035443238E-01
 4.498464597E-01 7.664128332E-02 1.003511924E+00
 9.025765190E-01 2.952471718E-02 7.617123993E-01
 4.752130196E-01 7.951606872E-02 1.009348036E+00
 7.797500975E-01 5.019179106E-02 8.462491017E-01
 7.860991126E-01 6.144416987E-02 8.428679790E-01
 7.684916599E-01 6.454050338E-02 8.536150012E-01
 7.808727951E-01 8.545476758E-02 8.449959158E-01
 7.521286740E-01 9.036702633E-02 8.618853887E-01
 7.151516512E-01 1.166814118E-01 8.851603984E-01
 7.335674851E-01 7.427280160E-02 8.761334668E-01
 7.107595281E-01 7.511856674E-02 8.927612019E-01
 6.893504929E-01 8.104704147E-02 9.079405658E-01
 6.657953627E-01 8.419293357E-02 9.258301171E-01
 6.422484329E-01 8.671955103E-02 9.467684492E-01
 6.198034789E-01 8.199720676E-02 9.650060153E-01
 8.069157668E-01 6.187882320E-02 8.302871170E-01
 6.216161848E-01 1.107449036E-01 9.566544073E-01
 8.284512945E-01 4.143296121E-02 8.172656490E-01
 8.297222170E-01 5.534336868E-02 8.174340959E-01
 8.523516022E-01 6.024817546E-02 8.038812972E-01
 6.384271075E-01 6.714985727E-02 9.499324654E-01
 5.657117519E-01 7.794980386E-02 1.003259702E+00
 5.797540364E-01 9.003222892E-02 9.927628578E-01
 8.052292469E-01 4.525788552E-02 8.301473910E-01
 3.984190024E-01 7.641206061E-02 9.835227186E-01
 7.678825129E-01 4.928295869E-02 8.537836966E-01
 7.568408378E-01 5.356787279E-02 8.599555707E-01
 6.848450306E-01 6.196916005E-02 9.122594056E-01
 5.396799438E-01 8.941955122E-02 1.011948315E+00
 2.503242525E-01 7.004273102E-02 9.210958832E-01
 2.616964623E-01 6.871721084E-02 9.255471826E-01
 8.669971691E-01 3.508989786E-02 7.923831480E-01
 8.750847692E-01 4.803898016E-02 7.872319712E-01
 4.364687772E-01 7.906572366E-02 9.977342647E-01
 3.746702454E-01 7.457282382E-02 9.746653236E-01
 -1.205071764E-01 2.695483477E-01 6.868630946E-01
 4.109397846E-01 7.893128681E-02 9.876932226E-01
 3.357549169E-01 7.357154192E-02 9.577762775E-01
 6.616049453E-01 6.474317968E-02 9.305593028E-01
 2.245574068E-01 6.742796063E-02 9.096872142E-01
 8.892405062E-01 3.357623736E-02 7.750464749E-01
 -1.888584984E-02 -3.120685971E-02 4.924027340E-01
 3.520878243E-03 -1.374656000E-02 4.633367043E-01
 -1.867394342E-02 -4.474296032E-03 3.539936757E-01
 -2.321577210E-02 2.346828972E-02 4.973153014E-01
 9.398432044E-03 1.641060550E-02 6.194613358E-01
 6.154295628E-01 6.713031196E-02 9.697388311E-01
 6.048984278E-01 7.115374262E-02 9.776380743E-01
 6.006175454E-01 9.094191304E-02 9.779358953E-01
 2.558205021E+00 2.078336749E-01 7.402288831E-01
 8.412307807E-01 4.266717507E-02 8.105455620E-01
 1.562069454E-01 9.015315240E-02 8.685658251E-01
 1.966984602E-01 1.146032154E-01 8.801888316E-01
 7.087325845E-01 5.833007523E-02 8.943495519E-01
 7.310994423E-01 5.435698980E-02 8.769336864E-01
 1.944823811E-03 -4.072050183E-02 5.640067100E-01
 1.978042949E-02 -5.065019181E-02 6.546953506E-01
 7.507626465E-01 6.774059559E-02 8.637852243E-01
 3.160390520E-01 1.135224252E-01 9.372654447E-01
 9.716589694E-02 7.674547102E-02 8.275948655E-01
 1.347622080E-01 7.346543070E-02 8.603004272E-01
 1.685314126E-01 7.301786133E-02 8.817740283E-01
 1.868274747E-01 8.316711216E-02 8.897466431E-01
 2.132743189E-01 8.316745224E-02 9.025493937E-01
 8.209909409E-02 -1.763572522E-01 7.759333599E-01
 9.793452768E-02 -1.169105666E-01 8.135928603E-01
 1.551127673E-01 -6.603582736E-02 8.819816349E-01
 5.742552864E-02 -2.634543559E-01 7.487249466E-01
 2.545932900E-01 -3.003351622E-01 8.401483870E-01
 2.903711123E-01 -1.983053283E-01 9.047397447E-01
 3.739846629E-01 -2.562480655E-01 8.870612742E-01
 3.719218323E-01 -1.655066343E-01 9.418212942E-01
 4.601706311E-01 -1.935985295E-01 8.878362126E-01
 5.346267614E-01 -6.443841457E-02 8.364882815E-01
 4.473432088E-01 -7.472906139E-02 9.545731082E-01
 4.753930525E-01 -2.977786568E-01 8.438767348E-01
 5.548230436E-01 -2.270502493E-01 8.101226884E-01
 1.991514100E-01 -1.592036308E-01 8.761980856E-01
 2.424867882E-01 -7.008577433E-02 9.382170924E-01
 5.359849444E-01 -1.527423110E-01 8.344694203E-01
 6.145284432E-01 -1.563073916E-01 7.706067629E-01
 6.406664658E-01 -5.196145169E-02 7.395048205E-01
 6.606484584E-01 -2.547181739E-01 7.510766127E-01
 7.052275811E-01 -1.599104204E-01 7.232969563E-01
 8.452792546E-01 -2.006495700E-02 6.111691620E-01
 8.165590887E-01 -1.911256521E-02 6.239218280E-01
 8.668967663E-01 -1.727549158E-02 6.002907727E-01
 7.341487189E-01 -3.365011407E-02 6.741537886E-01
 7.570980389E-01 -3.031702824E-02 6.601098476E-01
 7.552349879E-01 -2.305828089E-01 7.111478423E-01
 8.273222106E-01 -1.560930156E-01 6.770178335E-01
 9.731043806E-01 -1.045315535E-02 5.736307284E-01
 9.444904491E-01 -1.117406267E-02 5.784498344E-01
 9.221167154E-01 -1.067688180E-02 5.794513571E-01
 8.510040910E-01 -2.719483469E-01 6.932100816E-01
 9.166080125E-01 -1.680125801E-01 6.619283445E-01
 9.882728122E-01 -2.787248840E-01 6.844402904E-01
 1.030363068E+00 -1.670178209E-01 6.688226288E-01
 8.678271264E-01 -1.007599020E-01 6.489435460E-01
 9.506893759E-01 -9.346052655E-02 6.364464710E-01
 1.039380666E+00 -8.297828171E-02 6.527431180E-01
 1.142094917E+00 -1.268538206E-01 6.884245452E-01
 7.969591839E-01 -9.478167347E-02 6.687843137E-01
 1.131409392E+00 -2.553192699E-01 6.956738820E-01
 9.037692035E-01 -7.190122117E-02 6.280025416E-01
 6.632656899E-01 -1.131084186E-01 7.394651488E-01
 7.277710116E-01 -9.718630523E-02 7.018360857E-01
 8.329205255E-01 -6.967312353E-02 6.472781385E-01
 4.326057635E-01 -1.326763947E-01 9.445510381E-01
 3.157764651E-01 -1.409249622E-01 9.466126993E-01
 5.756732955E-01 -1.075933400E-01 8.038161427E-01
 5.612575147E-01 -6.242504096E-02 8.082294289E-01
 5.864650259E-01 -3.256264285E-01 7.869419962E-01
 1.124626367E+00 -1.973197674E-02 6.820817056E-01
 1.250934543E+00 -5.045771742E-02 7.063414541E-01
 1.236522291E+00 9.959736635E-02 7.149162724E-01
 1.400590128E+00 7.632577897E-02 7.260391508E-01
 1.329581674E+00 2.877193963E-01 7.364086444E-01
 1.075564653E+00 -4.104731525E-01 7.056937190E-01
 3.537573002E-01 -1.191827644E-01 9.747480457E-01
 3.941590093E-01 -1.124451098E-01 9.776825745E-01
 6.937119105E-01 -7.842413186E-02 7.155224318E-01
 7.055364805E-01 -3.819594037E-02 6.930790532E-01
 5.416877151E-01 -4.677290919E-01 7.906805038E-01
 5.294198796E-01 -1.060335765E-01 8.476336437E-01
 5.100585568E-01 -6.768699659E-02 8.667443794E-01
 4.871786940E-01 -1.234294515E-01 8.926257068E-01
 8.948520371E-01 -4.212527027E-01 7.083806770E-01
 4.247250161E-01 -1.041571092E-01 9.690164448E-01
 3.860198291E-01 -8.883364808E-02 9.984482829E-01
 4.545550204E-01 -9.837054263E-02 9.399117881E-01
 4.642405879E-01 -7.955847984E-02 9.305455865E-01
 4.823308369E-01 -8.796024936E-02 9.053954238E-01
 1.061542856E+00 -1.486135551E-02 6.480450851E-01
 4.304633105E-01 -8.475755461E-02 9.704100918E-01
 9.927753542E-01 -5.707316340E-02 6.205367301E-01
 9.562246822E-01 -6.415297123E-01 7.233721500E-01
 3.204866730E-01 -1.111243662E-01 9.731895730E-01
 2.890992913E-01 -1.104693117E-01 9.571131966E-01
 2.532888627E-01 -7.162545046E-02 9.471909003E-01
 2.439580305E-01 -8.629643425E-02 9.383351276E-01
 2.180387005E-01 -6.816854799E-02 9.226857830E-01
 2.661820813E-01 -7.127210865E-02 9.563811497E-01
 2.682642631E-01 -8.725282592E-02 9.559458470E-01
 2.598965895E-01 -1.081136328E-01 9.419493430E-01
 2.640535666E-01 -1.470586107E-01 9.168447929E-01
 3.831099714E-01 -3.787945473E-01 8.338062044E-01
 1.020526515E+00 -2.903675679E-02 6.183513725E-01
 9.587503687E-01 -4.457498576E-02 6.079895374E-01
 9.873071599E-01 -2.511466950E-02 5.945907948E-01
 9.253026133E-01 -4.421762549E-02 6.100613375E-01
 8.955750389E-01 -4.205653114E-02 6.096942713E-01
 8.678897248E-01 -5.593207686E-02 6.268217623E-01
 9.571054175E-01 -2.383391383E-02 5.856273993E-01
 1.145552000E+00 2.287242342E-01 7.273222624E-01
 2.244213458E-01 -1.129828058E-01 9.164274040E-01
 1.822346640E-01 -1.163817640E-01 8.862319397E-01
 2.350307474E-01 -4.645762776E-01 7.859014867E-01
 3.662522427E-01 -9.688609428E-02 9.946061310E-01
 3.567588786E-01 -8.320280963E-02 1.002212683E+00
 5.057949110E-01 -8.900688543E-02 8.747385799E-01
 5.497590377E-01 -7.963943443E-02 8.262291809E-01
 5.749815082E-01 -7.311119402E-02 7.998729615E-01
 6.021854640E-01 -7.475194392E-02 7.778126648E-01
 6.130211951E-01 -5.444483391E-02 7.594043751E-01
 6.256908990E-01 -6.659137967E-02 7.566083390E-01
 6.541394939E-01 -7.469588773E-02 7.409268570E-01
 6.182688100E-01 -9.982843487E-02 7.674417995E-01
 6.257899767E-01 -4.952553895E-02 7.471144512E-01
 6.590861226E-01 -5.127443830E-02 7.266647212E-01
 7.627512675E-01 -1.355232733E-01 6.925754307E-01
 7.615070551E-01 -7.129563569E-02 6.780661361E-01
 7.941053430E-01 -6.111417691E-02 6.587113064E-01
 7.291324051E-01 -6.529952481E-02 6.920738851E-01
 8.155432632E-01 -4.630851287E-02 6.415792378E-01
 8.402593509E-01 -3.988988338E-02 6.269218886E-01
 8.074816935E-01 -2.915190313E-02 6.347400907E-01
 2.004996060E-01 -8.980187368E-02 9.108718383E-01
 5.790149643E-01 -6.959279092E-01 7.686297770E-01
 8.758220406E-01 -3.154134746E-02 6.077842772E-01
 1.390879275E-01 -1.469946850E-01 8.413614812E-01
 2.999008570E-01 7.361980509E-02 9.410097148E-01
 6.761436192E-01 -5.817307209E-02 7.205180238E-01
 6.942460405E-01 -5.130904862E-02 7.068137120E-01
 7.202419518E-01 -3.603688057E-02 6.839195637E-01
 1.285294270E+00 -1.944788953E-01 7.113548062E-01
 1.290121202E+00 -3.802182913E-01 7.153117682E-01
 3.398524549E-01 -9.081994310E-02 9.915910640E-01
 7.726455409E-01 -2.865648916E-02 6.513590838E-01
 7.701959587E-01 -4.645272404E-02 6.628773167E-01
 7.468508949E-01 -4.613781492E-02 6.744453550E-01
 5.430201051E-01 6.134159758E-01 8.338646069E-01
 5.244284525E-01 -7.801415168E-02 8.513691346E-01
 5.781784347E-01 7.248389675E-02 9.965454842E-01
 -2.823130688E-03 3.711015019E-02 5.888166575E-01
 -8.191124779E-03 1.493816125E-02 4.138477087E-01
 3.742868651E-03 1.471762122E-02 5.255116322E-01
 6.928548241E-01 -3.727346104E-02 6.986108105E-01
 7.451182838E-01 -3.010125344E-02 6.659290257E-01
 -9.363340070E-05 9.192487811E-03 4.114740070E-01
 1.742797264E+00 -1.418878370E-01 7.326153727E-01
 8.908193734E-01 -2.168199881E-02 5.962544967E-01
 8.580739873E-01 -3.017316805E-02 6.134642778E-01
 9.113119127E-01 -8.946415811E-03 5.802811606E-01
 9.098494430E-01 -2.260770610E-02 5.913343484E-01
 9.341202222E-01 -2.354846786E-02 5.905378828E-01
 9.333735758E-01 -8.486103662E-03 5.765912769E-01
 1.754065548E-01 -8.790015402E-02 8.960450529E-01
 1.476885348E-01 -9.849983575E-02 8.669747796E-01
 1.386939851E-01 -7.588500306E-02 8.741212493E-01
 1.102662440E-01 -8.406572407E-02 8.461027877E-01
 9.209687398E-02 -5.253931212E-02 8.284978443E-01
 6.762620117E-02 -8.592199739E-02 7.913391788E-01
 1.038402325E-01 -6.283139148E-02 8.451840369E-01
 1.717359434E-01 -7.038870084E-02 8.945350230E-01
 1.577275571E-01 -7.974190421E-02 8.869139292E-01
 8.558963203E-01 -1.580069952E-02 6.036059317E-01
 9.262364694E-01 2.487887578E-02 7.367841806E-01
 2.892986448E-01 -8.675325673E-02 9.699115207E-01
 9.876469657E-01 5.676005150E-01 7.779478285E-01