TITLE     = "Visualization of the solution"
VARIABLES = "x"
"y"
"Mach"
ZONE T="Zone"
 STRANDID=0, SOLUTIONTIME=0
 Nodes=686, Elements=1157, ZONETYPE=FEQuadrilateral
 DATAPACKING=POINT
 DT=(DOUBLE DOUBLE DOUBLE )
 1.000227451E+00 5.091609200E-04 5.436074878E-01
 9.872643352E-01 3.062316217E-03 6.162653356E-01
 9.740654230E-01 5.699827336E-03 6.348084790E-01
 9.575976133E-01 9.059695527E-03 6.679236318E-01
 9.425032139E-01 1.205781102E-02 6.815594942E-01
 9.278418422E-01 1.495216414E-02 7.016161228E-01
 9.162281156E-01 1.730687916E-02 7.180331205E-01
 9.046035409E-01 1.962491125E-02 7.328056576E-01
 8.925073743E-01 2.193938568E-02 7.454128669E-01
 8.808876276E-01 2.422352321E-02 7.618987417E-01
 8.689664602E-01 2.647965960E-02 7.750632440E-01
 8.565057516E-01 2.872396447E-02 7.822139939E-01
 8.440155387E-01 3.090908006E-02 7.903913876E-01
 8.331729174E-01 3.284876794E-02 8.016957773E-01
 8.216131330E-01 3.481746092E-02 8.104764078E-01
 8.093920350E-01 3.686271608E-02 8.194978362E-01
 7.970328927E-01 3.890319914E-02 8.294329484E-01
 7.847604156E-01 4.086415842E-02 8.384846816E-01
 7.726247907E-01 4.276627302E-02 8.475934096E-01
 7.611528635E-01 4.452591017E-02 8.559224450E-01
 7.480768561E-01 4.646430165E-02 8.655631235E-01
 7.348124981E-01 4.839900136E-02 8.759359146E-01
 7.241485119E-01 4.989195243E-02 8.844013987E-01
 7.131102681E-01 5.140583217E-02 8.919441412E-01
 7.014963031E-01 5.294132978E-02 9.015006287E-01
 6.884179711E-01 5.463734269E-02 9.143811043E-01
 6.757816076E-01 5.619776249E-02 9.289567940E-01
 6.655415893E-01 5.744448304E-02 9.409698065E-01
 6.539757252E-01 5.875283480E-02 9.497617215E-01
 6.425047517E-01 5.999918655E-02 9.617035580E-01
 6.308135390E-01 6.123219803E-02 9.756271021E-01
 6.194602847E-01 6.237441674E-02 9.852785044E-01
 6.087095141E-01 6.334894896E-02 9.938973008E-01
 5.966476798E-01 6.443254650E-02 1.006626423E+00
 5.852524042E-01 6.538157165E-02 1.017378624E+00
 5.719246268E-01 6.638484448E-02 1.025822162E+00
 5.597203374E-01 6.723207235E-02 1.031489586E+00
 5.475326777E-01 6.798978150E-02 1.032926169E+00
 5.365781188E-01 6.859554350E-02 1.031663663E+00
 5.248125792E-01 6.917057186E-02 1.032250186E+00
 5.126972795E-01 6.973551214E-02 1.032289917E+00
 5.015331507E-01 7.013297081E-02 1.027475615E+00
 4.885162413E-01 7.054766268E-02 1.023728591E+00
 4.753405750E-01 7.087010890E-02 1.020316232E+00
 4.617601335E-01 7.112190872E-02 1.014958011E+00
 4.486219585E-01 7.128423452E-02 1.008921072E+00
 4.358670712E-01 7.134956867E-02 1.002824587E+00
 4.232628644E-01 7.136562467E-02 9.972438687E-01
 4.108783901E-01 7.127605379E-02 9.904904642E-01
 3.983288407E-01 7.113862783E-02 9.853899244E-01
 3.859886229E-01 7.092030346E-02 9.806698457E-01
 3.739944100E-01 7.065545022E-02 9.766302328E-01
 3.609771430E-01 7.029335946E-02 9.717937531E-01
 3.481874466E-01 6.986574084E-02 9.643919115E-01
 3.353151679E-01 6.934129447E-02 9.583577055E-01
 3.242285252E-01 6.884235889E-02 9.531344400E-01
 3.115675151E-01 6.820033491E-02 9.479452130E-01
 2.983122766E-01 6.744331867E-02 9.428004274E-01
 2.847647071E-01 6.659729779E-02 9.379518402E-01
 2.723475993E-01 6.571382284E-02 9.325706996E-01
 2.606231868E-01 6.482901424E-02 9.275073591E-01
 2.480176985E-01 6.378778815E-02 9.230549895E-01
 2.357755154E-01 6.271059811E-02 9.158211872E-01
 2.233260572E-01 6.150078028E-02 9.074884816E-01
 2.114282995E-01 6.027579308E-02 9.015815209E-01
 1.994461566E-01 5.896297842E-02 8.956157514E-01
 1.870251447E-01 5.749161169E-02 8.894584597E-01
 1.751278788E-01 5.598638952E-02 8.812227649E-01
 1.634868830E-01 5.440053716E-02 8.725006567E-01
 1.515248269E-01 5.268341303E-02 8.647997856E-01
 1.405573189E-01 5.099825934E-02 8.559065258E-01
 1.287885308E-01 4.906927794E-02 8.464589255E-01
 1.174989715E-01 4.708967730E-02 8.368617925E-01
 1.067707315E-01 4.507389292E-02 8.269859710E-01
 9.658373147E-02 4.303972423E-02 8.168313368E-01
 8.553508669E-02 4.067259654E-02 8.044527950E-01
 7.391196489E-02 3.798083216E-02 7.938313865E-01
 6.390355527E-02 3.546259180E-02 7.812448206E-01
 5.405182019E-02 3.276406229E-02 7.633475565E-01
 4.534444958E-02 3.016125411E-02 7.437584790E-01
 3.785867617E-02 2.771466598E-02 7.255005768E-01
 3.123165108E-02 2.534990571E-02 7.091161899E-01
 2.557614446E-02 2.314702049E-02 6.949937291E-01
 2.148224041E-02 2.140704729E-02 6.767848347E-01
 1.755322516E-02 1.960056275E-02 6.639443387E-01
 1.442391519E-02 1.802919991E-02 6.607050976E-01
 1.156143099E-02 1.646050625E-02 6.557671046E-01
 9.447948076E-03 1.520137955E-02 6.523490673E-01
 7.609529421E-03 1.401033718E-02 6.416727393E-01
 5.894677248E-03 1.279766951E-02 6.088363646E-01
 3.655438777E-03 1.099686511E-02 5.392158915E-01
 1.767987502E-03 9.180370718E-03 5.197721613E-01
 2.590130898E-04 7.356811315E-03 3.974117734E-01
 -1.215267461E-03 4.766669590E-03 3.717136287E-01
 -1.801866107E-03 2.812081017E-03 2.629624148E-01
 -1.948502148E-03 1.240206533E-03 2.105869912E-01
 -1.786928042E-03 -4.588891461E-04 2.013858651E-01
 -1.298440504E-03 -2.164013684E-03 3.001015361E-01
 -2.878711384E-04 -4.205171019E-03 4.222912180E-01
 1.228329027E-03 -6.312593352E-03 4.881920710E-01
 3.270414425E-03 -8.463067003E-03 5.511508627E-01
 5.122693721E-03 -1.006984338E-02 5.689427482E-01
 7.272335235E-03 -1.168563496E-02 5.936342486E-01
 8.984117769E-03 -1.283792593E-02 6.431064483E-01
 1.112146210E-02 -1.415189356E-02 6.607601694E-01
 1.351192780E-02 -1.549053099E-02 6.828631660E-01
 1.684891991E-02 -1.718197018E-02 7.011836664E-01
 1.989151910E-02 -1.858911663E-02 7.106031861E-01
 2.376512997E-02 -2.022795379E-02 7.120415254E-01
 2.907194383E-02 -2.225758880E-02 7.181385186E-01
 3.472620249E-02 -2.420282178E-02 7.268905460E-01
 4.162550718E-02 -2.635987662E-02 7.362163028E-01
 4.922028258E-02 -2.849837579E-02 7.500523018E-01
 5.824940652E-02 -3.081832267E-02 7.628146693E-01
 6.708858162E-02 -3.287763149E-02 7.761225580E-01
 7.730744034E-02 -3.506566584E-02 7.840631853E-01
 8.734399080E-02 -3.705189377E-02 7.926689455E-01
 9.771667421E-02 -3.895967081E-02 7.977141851E-01
 1.088714898E-01 -4.086425155E-02 8.044368310E-01
 1.201615110E-01 -4.266948253E-02 8.130642166E-01
 1.319051981E-01 -4.442758113E-02 8.221284198E-01
 1.426651180E-01 -4.592568427E-02 8.298788881E-01
 1.540825665E-01 -4.742928967E-02 8.370530391E-01
 1.663020700E-01 -4.893806949E-02 8.446948704E-01
 1.781312823E-01 -5.029645935E-02 8.539612340E-01
 1.900261194E-01 -5.157755688E-02 8.618321065E-01
 2.009081990E-01 -5.267300457E-02 8.700501181E-01
 2.124309987E-01 -5.374535173E-02 8.764958384E-01
 2.248618305E-01 -5.481988937E-02 8.861834616E-01
 2.373425514E-01 -5.580382049E-02 8.952528076E-01
 2.495104671E-01 -5.666764453E-02 9.030401731E-01
 2.616759241E-01 -5.744144320E-02 9.091207340E-01
 2.727792263E-01 -5.806481838E-02 9.173705873E-01
 2.852267325E-01 -5.867204070E-02 9.261166663E-01
 2.975037098E-01 -5.917463452E-02 9.358181797E-01
 3.100351393E-01 -5.956128240E-02 9.430097486E-01
 3.217411339E-01 -5.983944237E-02 9.494529505E-01
 3.343749642E-01 -6.001272798E-02 9.565853421E-01
 3.450929224E-01 -6.005635485E-02 9.619725866E-01
 3.565732539E-01 -6.001240015E-02 9.629300389E-01
 3.675840199E-01 -5.988365039E-02 9.625994716E-01
 3.783460259E-01 -5.963240936E-02 9.612303734E-01
 3.899051249E-01 -5.926841125E-02 9.564691402E-01
 4.029304981E-01 -5.871999264E-02 9.487254915E-01
 4.154140353E-01 -5.807273835E-02 9.375886031E-01
 4.282046258E-01 -5.727867037E-02 9.242875614E-01
 4.406950474E-01 -5.638765544E-02 9.101606711E-01
 4.526716173E-01 -5.540191755E-02 8.951557760E-01
 4.644056261E-01 -5.435769632E-02 8.800495497E-01
 4.767062962E-01 -5.314716324E-02 8.652729285E-01
 4.884044528E-01 -5.190495774E-02 8.488336155E-01
 5.010264516E-01 -5.047351867E-02 8.317640676E-01
 5.148975849E-01 -4.884107411E-02 8.148704778E-01
 5.280644298E-01 -4.719713330E-02 7.990425058E-01
 5.411353707E-01 -4.551572725E-02 7.842434907E-01
 5.539531112E-01 -4.379305243E-02 7.689987562E-01
 5.674494505E-01 -4.195795581E-02 7.545282670E-01
 5.807085037E-01 -4.012375697E-02 7.425155434E-01
 5.930920243E-01 -3.838475421E-02 7.301521541E-01
 6.058604717E-01 -3.657054901E-02 7.184945215E-01
 6.201390624E-01 -3.453344852E-02 7.070074859E-01
 6.345472932E-01 -3.246670216E-02 6.955030790E-01
 6.493483782E-01 -3.032937460E-02 6.840290377E-01
 6.622518897E-01 -2.847001515E-02 6.736972139E-01
 6.758728027E-01 -2.652750351E-02 6.651519945E-01
 6.882205009E-01 -2.475384809E-02 6.567833239E-01
 7.007467151E-01 -2.301314846E-02 6.495161938E-01
 7.152411342E-01 -2.100259624E-02 6.423662051E-01
 7.281816602E-01 -1.918526739E-02 6.321461262E-01
 7.402400374E-01 -1.757482998E-02 6.256041881E-01
 7.538194060E-01 -1.576919295E-02 6.184838681E-01
 7.659040093E-01 -1.416551229E-02 6.101603452E-01
 7.795686126E-01 -1.246295311E-02 6.046110112E-01
 7.916402221E-01 -1.097218413E-02 5.973479937E-01
 8.040704727E-01 -9.443472140E-03 5.893885493E-01
 8.153164387E-01 -8.165168576E-03 5.832185448E-01
 8.268544078E-01 -6.882103160E-03 5.785492239E-01
 8.396517038E-01 -5.528719164E-03 5.715496042E-01
 8.519061804E-01 -4.292243160E-03 5.638883398E-01
 8.642151952E-01 -3.157767933E-03 5.577082999E-01
 8.754599094E-01 -2.212221036E-03 5.528097440E-01
 8.869624734E-01 -1.360262278E-03 5.487875420E-01
 8.996606469E-01 -5.251758848E-04 5.447571794E-01
 9.103018641E-01 2.831871461E-05 5.419361882E-01
 9.210300446E-01 4.949403810E-04 5.410476486E-01
 9.309741259E-01 8.228134830E-04 5.395622177E-01
 9.400975704E-01 1.038539805E-03 5.385356879E-01
 9.518957138E-01 1.198663493E-03 5.403382010E-01
 9.644179344E-01 1.227725181E-03 5.377007491E-01
 9.773754478E-01 1.104033086E-03 5.373716147E-01
 9.889828563E-01 8.583775489E-04 5.468058956E-01
 -5.000000000E-01 -1.000000000E+00 7.103385329E-01
 3.500000000E+00 -1.000000000E+00 7.317492166E-01
 3.500000000E+00 1.000000000E+00 7.281926196E-01
 -5.000000000E-01 1.000000000E+00 7.097620307E-01
 -5.000000000E-01 5.000000000E-01 6.957462682E-01
 -5.000000000E-01 2.752797990E-12 6.828927123E-01
 -5.000000000E-01 -5.000000000E-01 6.958898862E-01
 -9.421907698E-13 -1.000000000E+00 7.193841291E-01
 5.000000000E-01 -1.000000000E+00 7.406105946E-01
 1.000000000E+00 -1.000000000E+00 7.274228489E-01
 1.500000000E+00 -1.000000000E+00 7.192886633E-01
 2.000000000E+00 -1.000000000E+00 7.232109325E-01
 2.500000000E+00 -1.000000000E+00 7.279634700E-01
 3.000000000E+00 -1.000000000E+00 7.302033933E-01
 3.500000000E+00 -5.000000000E-01 7.338247543E-01
 3.500000000E+00 -2.752797990E-12 7.354805015E-01
 3.500000000E+00 5.000000000E-01 7.327650934E-01
 3.000000000E+00 1.000000000E+00 7.258260014E-01
 2.500000000E+00 1.000000000E+00 7.284033118E-01
 2.000000000E+00 1.000000000E+00 7.336777607E-01
 1.500000000E+00 1.000000000E+00 7.475604511E-01
 1.000000000E+00 1.000000000E+00 7.760959328E-01
 5.000000000E-01 1.000000000E+00 7.763770136E-01
 1.733724275E-12 1.000000000E+00 7.301052747E-01
 6.830188058E-01 -3.878911878E-02 6.757695754E-01
 7.883843407E-01 -2.658138562E-02 6.172540875E-01
 9.067447968E-01 -1.192408713E-02 5.592847447E-01
 5.910357861E-01 -5.425582989E-02 7.478218219E-01
 7.072044616E-01 6.135703581E-02 8.987114951E-01
 2.787912256E-01 -6.880865508E-02 9.270781835E-01
 2.816277429E-01 7.914262127E-02 9.363121920E-01
 3.652542063E-01 8.568847235E-02 9.730753765E-01
 9.130304907E-01 3.161811950E-02 7.312221608E-01
 8.164100050E-01 4.403379124E-02 8.161537964E-01
 1.851898060E-01 -6.496663680E-02 8.691521878E-01
 6.034227593E-01 7.689528300E-02 9.991921945E-01
 4.124047721E-01 -6.994573873E-02 9.411684730E-01
 5.084130642E-01 7.983422480E-02 1.028320264E+00
 1.784852084E+00 -5.265206841E-01 7.283830770E-01
 1.770912968E+00 5.811403678E-01 7.471892313E-01
 3.031171708E+00 2.156858388E-01 7.382041465E-01
 7.839888695E-01 -6.134277993E-01 7.331701080E-01
 4.842463898E-01 -6.257876881E-02 8.591270379E-01
 3.484101108E-01 -6.903226973E-01 7.623459377E-01
 7.627121323E-01 5.615304510E-01 8.353343080E-01
 2.656461032E-01 6.454008086E-01 7.858435110E-01
 1.228901085E-01 6.148141716E-02 8.386620031E-01
 1.789066375E-01 6.906776707E-02 8.839009327E-01
 2.734857249E+00 -5.326822743E-01 7.336079939E-01
 1.166293444E+00 6.153153005E-01 7.681725482E-01
 1.028440729E+00 3.525078933E-01 7.578412894E-01
 1.275203917E+00 -6.136559645E-01 7.170928885E-01
 1.504742820E+00 -2.683017044E-01 7.271030142E-01
 2.240361312E+00 -5.764666199E-01 7.315147579E-01
 2.020565902E+00 -1.883111063E-01 7.337658468E-01
 2.420236023E+00 -1.842858902E-01 7.361239559E-01
 2.184651258E+00 1.582991086E-01 7.405049101E-01
 1.807005088E+00 1.657300142E-01 7.395774767E-01
 -2.709579726E-01 -2.371637161E-01 6.758708969E-01
 1.021191651E-01 -5.014734138E-02 8.030847383E-01
 -1.462279214E-01 -6.011339656E-01 7.146482240E-01
 1.205248355E-01 -3.675459610E-01 7.631353778E-01
 -2.746164090E-01 2.145048992E-01 6.729817008E-01
 -1.259486909E-01 6.724470248E-01 7.222010466E-01
 2.701508111E-02 3.194266854E-01 7.351124631E-01
 4.733605208E-02 4.098275928E-02 7.456885909E-01
 2.203477696E+00 5.863686378E-01 7.410446490E-01
 2.740075834E+00 6.013807947E-01 7.365579938E-01
 -2.396302493E-01 -9.060544128E-03 6.517904005E-01
 -1.188702702E-01 -1.431581680E-01 6.517408182E-01
 5.119613962E-02 -3.728530376E-02 7.452991476E-01
 -7.240862194E-02 -3.069136904E-01 6.999991953E-01
 9.789701575E-04 -1.716184950E-01 7.042580590E-01
 1.645861607E-01 -2.181796176E-01 8.276926562E-01
 3.425096079E-01 -7.410253086E-02 9.608912207E-01
 3.731826040E-01 -6.907820051E-02 9.627459907E-01
 3.137760899E-01 -6.981844317E-02 9.471161650E-01
 2.294730813E-01 -7.066663960E-02 8.989136888E-01
 -3.518600204E-02 -9.861931036E-02 6.289720895E-01
 2.428641110E-02 -2.680583625E-02 6.968715129E-01
 -1.075414544E-01 -2.487706410E-02 5.922304241E-01
 3.947458188E-02 -1.115124734E-01 7.358355921E-01
 3.109365706E+00 -2.612667020E-01 7.362822241E-01
 -2.319397168E-02 -1.368908973E-02 4.215176977E-01
 7.767273681E-03 -7.250481659E-02 6.674629496E-01
 -2.601290609E-03 -2.684434133E-02 5.474840621E-01
 1.398779063E-02 -1.868916264E-02 6.712376728E-01
 2.555967200E+00 2.101365515E-01 7.402722678E-01
 4.986736154E-02 -7.574358893E-02 7.484942958E-01
 6.711791964E-02 -4.206957072E-02 7.740063791E-01
 8.879972766E-02 -9.681279566E-02 8.065299205E-01
 1.431908961E-01 -5.759748800E-02 8.373336178E-01
 1.234351424E-01 -5.634084699E-02 8.231418592E-01
 1.109352306E-01 -7.485310889E-02 8.227932494E-01
 8.195315360E-02 -6.711268123E-02 7.931125270E-01
 1.279126867E-01 -9.780969623E-02 8.441682427E-01
 1.326412889E-01 -7.371785256E-02 8.402788620E-01
 1.572450754E-01 -7.868237653E-02 8.589031576E-01
 1.662056598E-01 -1.141713110E-01 8.691124037E-01
 1.094409873E-01 -1.458149308E-01 8.078287726E-01
 2.443662350E-01 -1.705956937E-01 8.908266384E-01
 2.399798080E-01 -2.720046344E-01 8.446072452E-01
 3.328621664E-01 -2.022627870E-01 9.013753418E-01
 3.380797129E-01 -3.183491008E-01 8.468731542E-01
 4.343127173E-01 -2.419374511E-01 8.616651892E-01
 5.360424689E-01 -5.757069325E-02 7.977000401E-01
 5.606864103E-01 -5.306107212E-02 7.723405107E-01
 4.497332462E-01 -3.507718498E-01 8.254436879E-01
 5.516582533E-01 -2.871877612E-01 7.996019507E-01
 5.332090843E-01 -1.762568524E-01 8.223040921E-01
 6.340767639E-01 -1.990580973E-01 7.594308072E-01
 7.368112157E-01 -2.753513756E-02 6.388993305E-01
 4.539003442E-01 -1.579392186E-01 8.884078039E-01
 4.435300149E-01 -6.707115174E-02 9.080771282E-01
 6.039151388E-01 -1.319603920E-01 7.742194508E-01
 6.426649289E-01 -4.486042840E-02 7.045266205E-01
 6.986671497E-01 -1.419334766E-01 7.225607476E-01
 7.267558879E-01 -2.156213570E-01 7.211465359E-01
 8.468497617E-01 -1.552316916E-02 5.818412782E-01
 8.221826779E-01 -1.739070158E-02 5.931026687E-01
 8.723333917E-01 -1.444082323E-02 5.698134119E-01
 7.764326450E-01 -1.379993981E-01 6.898418951E-01
 8.103613321E-01 -2.040456058E-01 6.940522044E-01
 9.719070363E-01 -1.077515134E-02 5.562872990E-01
 9.435187645E-01 -1.068318194E-02 5.555532428E-01
 8.666578240E-01 -1.365431612E-01 6.641415958E-01
 9.132616418E-01 -2.208641998E-01 6.816140397E-01
 9.533856271E-01 -1.429508831E-01 6.575705287E-01
 1.017136935E+00 -2.285912525E-01 6.829785219E-01
 1.095353092E+00 -1.354617968E-01 6.818528524E-01
 1.143783077E+00 -2.363658004E-01 7.017153581E-01
 1.186799140E+00 -1.353918004E-01 6.977581201E-01
 1.137962876E+00 -2.288618263E-02 6.699933046E-01
 1.275460913E+00 -1.392903465E-02 6.998219546E-01
 1.203700095E+00 1.171518227E-01 7.088107160E-01
 9.323289682E-01 -3.249246982E-01 6.937670127E-01
 1.374691518E+00 1.402291433E-01 7.234714236E-01
 9.200381575E-01 -8.234175444E-02 6.290523745E-01
 9.842750057E-01 -8.355139880E-02 6.344305634E-01
 8.640720789E-01 -7.808045268E-02 6.357030255E-01
 7.360811441E-01 -9.449470754E-02 6.918834294E-01
 7.856482898E-01 -7.735437390E-02 6.612841123E-01
 5.036698953E-01 -1.243286426E-01 8.559158363E-01
 2.977765446E-01 -1.376444365E-01 9.296802164E-01
 6.813290365E-01 -8.485037802E-02 7.131051197E-01
 8.908545082E-01 -4.844784022E-02 6.061007474E-01
 9.280360807E-01 -4.312439470E-02 5.936216501E-01
 9.252684925E-01 -9.340346373E-03 5.533919166E-01
 2.166296626E-01 -1.171785582E-01 8.971230925E-01
 2.627559899E-01 -1.121706786E-01 9.218965294E-01
 2.559884493E-01 -6.642871628E-02 9.119054352E-01
 8.006570269E-01 -3.055285044E-01 7.091841590E-01
 3.711300401E-01 -1.439416530E-01 9.417399815E-01
 3.368798666E-01 -1.171080181E-01 9.519334041E-01
 1.259527329E+00 3.217843272E-01 7.393193525E-01
 1.094691622E+00 8.151882203E-02 6.893896122E-01
 9.706576973E-01 2.723295251E-02 6.635638924E-01
 7.538605627E-01 -6.182986578E-02 6.637865431E-01
 7.611339639E-01 -2.523835187E-02 6.258182440E-01
 4.589390623E-01 -1.081789638E-01 8.955901969E-01
 7.202969659E-01 -5.755137239E-02 6.767743568E-01
 7.083677239E-01 -3.709667106E-02 6.628240166E-01
 1.281084247E+00 -2.633074991E-01 7.147886397E-01
 1.454359499E+00 -6.460799272E-02 7.170699312E-01
 1.541409923E+00 3.319105620E-01 7.447123278E-01
 1.091765356E+00 2.109418974E-01 7.245294877E-01
 9.503063841E-01 2.052118459E-01 7.580526842E-01
 8.641526002E-01 4.110335191E-02 7.799414965E-01
 8.450567123E-01 3.030393375E-01 8.092947833E-01
 7.996465107E-01 1.872943733E-01 8.366033024E-01
 6.629148903E-01 7.262740685E-02 9.440802856E-01
 7.263230969E-01 2.562465928E-01 8.771461769E-01
 7.567994322E-01 5.886719003E-02 8.624289371E-01
 7.837691905E-01 5.623917111E-02 8.429705737E-01
 6.850989738E-01 1.768126499E-01 9.161364788E-01
 6.274516851E-01 2.547050589E-01 9.306227776E-01
 4.305135801E-01 8.371229755E-02 9.998951753E-01
 4.644331459E-01 8.554643614E-02 1.013848111E+00
 5.554042879E-01 7.692951905E-02 1.029727936E+00
 5.869984051E-01 1.714094746E-01 9.796396252E-01
 5.126656571E-01 2.333900161E-01 9.598686198E-01
 5.404463406E-01 3.364552836E-01 9.203222537E-01
 4.320193558E-01 2.979636598E-01 9.175648340E-01
 8.685520922E-01 1.307984053E-01 7.941803566E-01
 5.185973827E-01 1.620061593E-01 9.971022785E-01
 7.439082895E-01 1.280580694E-01 8.740919710E-01
 6.407788687E-01 1.360172120E-01 9.597414538E-01
 5.571436774E-01 1.293676727E-01 1.011192902E+00
 5.155097056E-01 1.215007729E-01 1.015422040E+00
 5.296632642E-01 8.330759622E-02 1.029449552E+00
 4.718267099E-01 1.371411734E-01 1.000598518E+00
 4.671571240E-01 1.805070767E-01 9.807359860E-01
 3.483226265E-01 2.206106649E-01 9.224079808E-01
 2.862080716E-01 3.772450684E-01 8.461642564E-01
 2.320485308E-01 2.357659128E-01 8.676941945E-01
 2.267533280E-01 7.673707573E-02 9.112082760E-01
 2.876650728E-01 1.598943083E-01 9.206107070E-01
 3.279692590E-01 7.973104102E-02 9.553067732E-01
 3.032706331E-01 8.214038704E-02 9.452364098E-01
 2.065919587E-01 1.466924540E-01 8.820005789E-01
 3.529747198E-01 1.492557755E-01 9.540441120E-01
 2.536159139E-01 1.243234311E-01 9.187234053E-01
 2.518760463E-01 7.921929005E-02 9.239658032E-01
 1.360099950E-01 2.231312131E-01 8.106685024E-01
 1.269711069E-01 1.384561424E-01 8.222690540E-01
 7.761139598E-02 4.844695614E-02 7.933136794E-01
 5.494246136E-02 1.987602238E-01 7.485320581E-01
 5.640693673E-02 1.189941441E-01 7.466019549E-01
 1.688081292E-02 2.464806897E-02 6.445150468E-01
 -2.685534871E-02 1.542228101E-01 6.719762225E-01
 1.319721819E-02 9.283734008E-02 6.804764744E-01
 4.170646842E-01 1.549717197E-01 9.716669889E-01
 3.943230286E-01 1.187666485E-01 9.789851098E-01
 4.054608128E-01 8.460285537E-02 9.877280213E-01
 1.714744518E-01 1.149032635E-01 8.754118166E-01
 -1.300387091E-01 1.076756117E-01 6.342399948E-01
 1.029420964E-01 9.791774805E-02 8.125215875E-01
 9.886579219E-02 5.503468781E-02 8.161025313E-01
 2.941779792E-01 1.218506644E-01 9.357133381E-01
 4.451412273E-02 7.518953824E-02 7.367328834E-01
 1.363387805E-02 5.905636397E-02 6.476178290E-01
 -2.954871503E-02 4.696338059E-02 5.310582906E-01
 3.223120308E-02 3.323222225E-02 7.028828240E-01
 7.528704168E-02 8.082413477E-02 7.813627382E-01
 1.582475349E-01 3.265438292E-01 8.016389713E-01
 3.322424093E-01 1.169604812E-01 9.513437689E-01
 4.355613596E-01 1.206790721E-01 9.952566555E-01
 8.574360817E-01 -4.876450533E-02 6.140294123E-01
 8.286086628E-01 -5.863113629E-02 6.321132339E-01
 8.232916186E-01 -9.802728519E-02 6.593889939E-01
 3.002419012E-01 -1.046370674E-01 9.425474225E-01
 6.585320810E-01 -4.212893553E-02 6.922943813E-01
 6.528596668E-01 -6.270130187E-02 7.154776317E-01
 6.298996887E-01 -6.002687486E-02 7.264107399E-01
 6.161409067E-01 -4.935153320E-02 7.246080155E-01
 6.080924434E-01 -6.778130877E-02 7.467216917E-01
 5.843311293E-01 -7.569154793E-02 7.711675428E-01
 6.320682842E-01 -9.033672394E-02 7.445448475E-01
 5.587704391E-01 -1.100552386E-01 8.060809312E-01
 5.257228947E-01 -9.398065320E-02 8.301159049E-01
 5.080824548E-01 -5.984614337E-02 8.280502485E-01
 6.731226829E-01 -5.331248707E-02 6.960455949E-01
 6.937976911E-01 -5.117569296E-02 6.840872184E-01
 6.567828391E-02 4.621181076E-02 7.794210171E-01
 7.498648610E-01 -2.895935523E-02 6.345840815E-01
 9.567056466E-01 -1.186836349E-02 5.572159061E-01
 9.631252047E-01 -2.572811984E-02 5.778061708E-01
 9.806213553E-01 -2.567241138E-02 5.726145074E-01
 1.860103583E-01 -8.578705206E-02 8.813607127E-01
 2.052797414E-01 -6.629316817E-02 8.829566571E-01
 1.095567841E+00 -4.113980668E-01 7.045565492E-01
 6.286783760E-01 -4.424779743E-02 7.116924604E-01
 4.886342389E-01 1.089653073E-01 1.016429320E+00
 4.617505721E-01 1.078253965E-01 1.010054759E+00
 4.179131916E-01 9.902270859E-02 9.925843125E-01
 4.478605830E-01 9.204458848E-02 1.004636000E+00
 5.583270125E-01 -4.657837763E-01 7.748826210E-01
 3.611730756E-01 1.097415912E-01 9.686451746E-01
 7.797469154E-01 -4.840352661E-02 6.418729722E-01
 8.046457612E-01 -4.063618167E-02 6.259739524E-01
 4.920686678E-01 -9.423082161E-02 8.611552024E-01
 8.334508935E-01 -1.881330806E-02 5.903428558E-01
 8.424401060E-01 -3.351773966E-02 6.037826432E-01
 8.603617811E-01 -1.325182668E-02 5.727346152E-01
 1.715898093E+00 -1.267048848E-01 7.289181782E-01
 3.910887478E-01 8.341344937E-02 9.822633001E-01
 7.254853916E-01 -3.424335284E-02 6.514463408E-01
 4.838816276E-01 8.904916489E-02 1.019494498E+00
 5.498819315E-01 -5.423392126E-02 7.835261330E-01
 5.541892556E-01 -7.143155512E-02 7.932287188E-01
 4.579669412E-01 4.566562767E-01 8.697815855E-01
 5.229044802E-01 -5.942015096E-02 8.144113319E-01
 1.016488545E+00 -7.018051998E-01 7.165805985E-01
 1.462043238E+00 6.382134961E-01 7.505122226E-01
 4.176057678E-01 8.199590799E-02 9.936738567E-01
 1.583477865E-01 -5.855781514E-02 8.478296752E-01
 8.114484893E-01 -2.205799331E-02 6.014624445E-01
 7.995689093E-01 -2.107174585E-02 6.060556747E-01
 3.977102290E-01 9.687101325E-02 9.838897607E-01
 3.793786942E-01 9.520484205E-02 9.781859899E-01
 3.477949152E-01 9.449874251E-02 9.651465576E-01
 4.698506637E-01 -8.297609265E-02 8.823633176E-01
 4.117446562E-01 -1.189125183E-01 9.348926249E-01
 3.703692617E-01 -1.060340057E-01 9.601515467E-01
 4.311425386E-01 -9.416678245E-02 9.240296211E-01
 1.062001685E+00 6.207482081E-03 6.372153528E-01
 1.045774966E+00 -5.775951472E-02 6.407869170E-01
 1.033000028E+00 5.447798141E-02 6.734140696E-01
 1.014082925E+00 1.241933588E-01 7.112685060E-01
 9.826651449E-01 7.177196572E-02 6.917157937E-01
 9.451548201E-01 5.627705988E-02 7.154902986E-01
 9.437044892E-01 1.105167147E-01 7.417656914E-01
 9.031592055E-01 7.629013854E-02 7.588908075E-01
 8.885880473E-01 3.686987941E-02 7.573927940E-01
 8.542076659E-01 8.304672348E-02 7.987046442E-01
 8.408511768E-01 4.458557425E-02 7.975488342E-01
 8.174351001E-01 1.154869131E-01 8.293832857E-01
 7.714073358E-01 1.010469256E-01 8.574285137E-01
 9.999592740E-01 2.833929262E-02 6.449648996E-01
 9.367476502E-01 2.958572180E-02 7.034118992E-01
 8.200974488E-01 7.699097458E-02 8.201304782E-01
 9.518581538E-01 2.471044953E-02 6.884189911E-01
 7.942870176E-01 8.015122731E-02 8.394233744E-01
 8.023225384E-01 6.120060310E-02 8.305332918E-01
 7.705758192E-01 7.133062762E-02 8.550949352E-01
 7.484285570E-01 7.549439453E-02 8.716289608E-01
 7.162752975E-01 1.016674593E-01 8.962525201E-01
 7.326903403E-01 6.201265522E-02 8.810046569E-01
 8.349336760E-01 6.102417940E-02 8.060091740E-01
 8.538293407E-01 5.459857774E-02 7.904913273E-01
 7.441615367E-01 5.824750856E-02 8.717940719E-01
 8.273793879E-01 4.589093398E-02 8.085451088E-01
 8.778972973E-01 5.408126519E-02 7.738061942E-01
 9.017833972E-01 4.573025157E-02 7.491041637E-01
 9.001025701E-01 3.115650948E-02 7.422781375E-01
 8.760984065E-01 3.655153587E-02 7.708144722E-01
 9.072877075E-01 -3.192938748E-02 5.821977779E-01
 5.413025813E-01 1.050265137E-01 1.023728810E+00
 5.727737321E-01 1.020731713E-01 1.017304963E+00
 5.803144795E-01 8.022514745E-02 1.017535226E+00
 8.854383886E-02 4.640898964E-01 7.557721478E-01
 2.127766896E-01 -8.708155686E-02 8.962782129E-01
 2.372804008E-01 -8.949057339E-02 9.105274719E-01
 1.024783475E+00 1.406024213E-02 6.190366959E-01
 1.021927684E+00 -1.584066983E-02 5.939985170E-01
 9.992456259E-01 -4.267256687E-02 6.041347055E-01
 9.599251329E-01 -4.740899942E-02 5.999726535E-01
 9.461721612E-01 -2.716333426E-02 5.754126637E-01
 8.860464426E-01 -2.627948783E-02 5.809587674E-01
 6.381451985E-01 -7.539068546E-01 7.540319860E-01
 7.271696454E-01 7.952903769E-02 8.869363111E-01
 8.236815455E-01 -3.318463815E-02 6.095330082E-01
 8.931389360E-01 -1.429433259E-02 5.641325427E-01
 5.488805317E-01 6.516834878E-01 8.340968939E-01
 7.729847892E-01 -2.856687935E-02 6.241324666E-01
 9.169109506E-01 -2.016087184E-02 5.689473709E-01
 5.667180286E-01 8.097000631E-02 1.025705786E+00
 5.949314458E-01 9.045990214E-02 1.006263071E+00
 6.163644429E-01 8.955906121E-02 9.877729352E-01
 6.387943344E-01 7.168246795E-02 9.678355067E-01
 6.031137721E-01 1.166127685E-01 9.943708958E-01
 6.415229759E-01 1.026706146E-01 9.642722410E-01
 6.777860736E-01 1.163200988E-01 9.266549192E-01
 6.255558284E-01 7.370499685E-02 9.802454177E-01
 6.147025659E-01 7.317654135E-02 9.886952370E-01
 6.685917155E-01 9.215853220E-02 9.399769171E-01
 6.824484002E-01 6.469117515E-02 9.237027639E-01
 6.928464093E-01 8.877264339E-02 9.170621214E-01
 6.490199599E-01 8.230254822E-02 9.581331028E-01
 3.472882947E-01 -9.302710562E-02 9.636645120E-01
 3.864253498E-01 -8.601572511E-02 9.589496765E-01
 3.581712973E-01 -7.683244418E-02 9.637631176E-01
 3.236515538E-01 -8.685284796E-02 9.542452993E-01
 3.007357583E-01 -7.993348713E-02 9.429812483E-01
 2.799454520E-01 -8.375703703E-02 9.321658215E-01
 5.919560753E-01 7.557966340E-02 1.010321314E+00
 4.727827666E-01 -6.661013693E-02 8.733366611E-01
 6.945929206E-01 6.760868260E-02 9.116351631E-01
 6.696751611E-02 6.160017424E-02 7.759373538E-01
 8.552262356E-02 6.221888510E-02 7.982985410E-01
 1.039473409E-01 7.172283667E-02 8.165442217E-01
 1.241075759E-01 7.850855772E-02 8.376233728E-01
 1.554279500E-01 6.355364929E-02 8.669097702E-01
 5.278724219E-02 5.273324659E-02 7.575679299E-01
 1.384010267E-01 9.638780758E-02 8.516243824E-01
 1.404014559E-01 7.046945112E-02 8.547595787E-01
 3.341915912E-02 4.632956793E-02 7.075353137E-01
 1.645645082E-01 8.031181423E-02 8.732088448E-01
 1.867410269E-01 8.268861481E-02 8.881208331E-01
 2.025190120E-01 7.252402752E-02 8.973681415E-01
 2.084206059E-01 9.404852896E-02 8.995726900E-01
 2.144894605E-01 7.301724111E-02 9.037557403E-01
 2.349694665E-01 9.794652870E-02 9.143191792E-01
 3.198320846E-02 -5.300203134E-02 7.053173694E-01
 3.646919406E-02 -3.074007580E-02 7.251188135E-01
 1.212577428E-02 -3.661895871E-02 6.474803642E-01
 2.708717554E-02 -3.901009732E-02 6.986523319E-01
 7.107051236E-01 1.399107937E-01 8.947524888E-01
 7.398958697E-01 1.735331805E-01 8.740997689E-01
 6.015164761E-01 -9.647760927E-02 7.710001159E-01
 9.971151256E-01 -1.889169926E-02 5.704451831E-01
 6.948302874E-01 -3.496569587E-02 6.660002239E-01
 9.227122401E-01 4.436556046E-02 7.275688638E-01
 6.705596524E-01 -3.784561201E-02 6.809105985E-01
 7.415816483E-01 -4.244477173E-02 6.525535518E-01
 8.827882306E-01 -1.171742539E-02 5.633979468E-01
 6.080432006E-02 -5.457598659E-02 7.631471559E-01
 8.270813753E-02 -5.224274355E-02 7.859358813E-01
 5.675139073E-02 4.163089414E-02 7.674755000E-01
 5.187635505E-01 7.988271923E-02 1.030595258E+00
 5.101805806E-01 9.353917148E-02 1.024950967E+00
 1.020112541E+00 -1.257941633E-01 6.656859779E-01
 8.658904248E-01 2.065859905E-01 8.036844318E-01
 4.961718601E-01 -6.314876804E-02 8.442534815E-01
 3.274285923E-01 -6.949301600E-02 9.540763765E-01
 9.038885584E-01 4.929013971E-01 8.041705862E-01
 6.765907498E-01 4.141522357E-01 8.646625085E-01
 8.136291111E-01 7.202384394E-01 8.116289552E-01
 2.609922174E-01 9.965407827E-02 9.285482401E-01
 6.028443264E-01 -4.926879502E-02 7.338419032E-01
 7.744586211E-01 1.410838924E-01 8.555556117E-01
 6.462446634E-02 -2.420145390E-01 7.543251212E-01
 3.968555701E-02 3.616116609E-02 7.236945768E-01
 8.896594178E-02 4.964416380E-02 8.064895038E-01
 5.730667559E-01 -5.608695297E-02 7.637894895E-01
 3.133974596E+00 6.339745962E-01 7.325133070E-01
 9.158919490E-01 -8.803463553E-03 5.532608284E-01
 -1.038544592E-01 2.527049027E-01 6.803520604E-01
 8.518708816E-01 3.998410969E-02 7.873993845E-01
 5.451086063E-01 8.247070620E-02 1.029090062E+00