TITLE     = "Visualization of the solution"
VARIABLES = "x"
"y"
"Mach"
ZONE T="Zone"
 STRANDID=0, SOLUTIONTIME=0
 Nodes=692, Elements=1169, ZONETYPE=FEQuadrilateral
 DATAPACKING=POINT
 DT=(DOUBLE DOUBLE DOUBLE )
 1.000092387E+00 5.158772692E-04 5.633751055E-01
 9.846644402E-01 3.688991303E-03 6.290310131E-01
 9.717093110E-01 6.389217451E-03 6.589973057E-01
 9.563905001E-01 9.615717456E-03 6.893153431E-01
 9.423548579E-01 1.246757898E-02 7.030956753E-01
 9.304128885E-01 1.490741502E-02 7.224036480E-01
 9.195806384E-01 1.711574569E-02 7.377697044E-01
 9.084984660E-01 1.936540194E-02 7.540007565E-01
 8.969829082E-01 2.162168175E-02 7.667328139E-01
 8.847515583E-01 2.393998578E-02 7.805231475E-01
 8.729693890E-01 2.619464882E-02 7.930295033E-01
 8.605381846E-01 2.838760614E-02 7.995227864E-01
 8.486956954E-01 3.050218336E-02 8.100594565E-01
 8.376894593E-01 3.244587034E-02 8.223288185E-01
 8.262290955E-01 3.438539430E-02 8.322739644E-01
 8.138771057E-01 3.644460440E-02 8.407814675E-01
 8.013390899E-01 3.843140230E-02 8.487685958E-01
 7.895979285E-01 4.029468819E-02 8.565250487E-01
 7.773008943E-01 4.215183109E-02 8.631414788E-01
 7.659407854E-01 4.387111589E-02 8.705705939E-01
 7.531990409E-01 4.572395608E-02 8.811153949E-01
 7.401831746E-01 4.761598632E-02 8.916366122E-01
 7.292389274E-01 4.911673442E-02 8.991324895E-01
 7.177343369E-01 5.067126825E-02 9.075262254E-01
 7.059036493E-01 5.222812667E-02 9.173794185E-01
 6.928676367E-01 5.387923867E-02 9.264724833E-01
 6.798988581E-01 5.546367913E-02 9.352785217E-01
 6.684806943E-01 5.680754408E-02 9.455925145E-01
 6.564891338E-01 5.817195773E-02 9.586940537E-01
 6.452558041E-01 5.940997973E-02 9.707731853E-01
 6.328533888E-01 6.066870689E-02 9.821664795E-01
 6.209712029E-01 6.182984635E-02 9.948317091E-01
 6.102602482E-01 6.283418089E-02 1.007223489E+00
 5.982732177E-01 6.389516592E-02 1.017650604E+00
 5.862989426E-01 6.488116086E-02 1.026920471E+00
 5.724431872E-01 6.592883170E-02 1.034402553E+00
 5.591942072E-01 6.682290882E-02 1.041659953E+00
 5.460002422E-01 6.764367968E-02 1.048790968E+00
 5.344718695E-01 6.828924268E-02 1.051713526E+00
 5.219660401E-01 6.890550256E-02 1.050751642E+00
 5.093513727E-01 6.944079697E-02 1.048588891E+00
 4.983921051E-01 6.983665377E-02 1.046940363E+00
 4.854541719E-01 7.026019692E-02 1.044811307E+00
 4.725404978E-01 7.057692111E-02 1.039763743E+00
 4.589687884E-01 7.081378251E-02 1.034677985E+00
 4.451113343E-01 7.097833604E-02 1.031645190E+00
 4.322161973E-01 7.104950398E-02 1.028565711E+00
 4.190086126E-01 7.104048133E-02 1.023542441E+00
 4.062695503E-01 7.095405459E-02 1.016592585E+00
 3.926412463E-01 7.075781375E-02 1.010495369E+00
 3.804204166E-01 7.052349299E-02 1.005645609E+00
 3.687212765E-01 7.023540884E-02 9.997575232E-01
 3.551507890E-01 6.980683655E-02 9.937752057E-01
 3.423207104E-01 6.934914738E-02 9.885047561E-01
 3.294485509E-01 6.879035383E-02 9.836514666E-01
 3.190269172E-01 6.829634309E-02 9.798892597E-01
 3.069078624E-01 6.764239818E-02 9.748140826E-01
 2.945480049E-01 6.689539552E-02 9.695546190E-01
 2.808131278E-01 6.598109752E-02 9.655540421E-01
 2.688110173E-01 6.511048228E-02 9.596955413E-01
 2.568788826E-01 6.415067613E-02 9.520806296E-01
 2.444756031E-01 6.308630109E-02 9.458658431E-01
 2.319661975E-01 6.193562597E-02 9.405221787E-01
 2.200295478E-01 6.074549630E-02 9.339736401E-01
 2.082936019E-01 5.948845670E-02 9.283667574E-01
 1.965811402E-01 5.815508217E-02 9.215391589E-01
 1.843723804E-01 5.667303875E-02 9.145763923E-01
 1.726868004E-01 5.515334383E-02 9.078135007E-01
 1.609384865E-01 5.353631824E-02 9.011493780E-01
 1.493945420E-01 5.184800923E-02 8.917014104E-01
 1.383549422E-01 5.011544749E-02 8.817545977E-01
 1.270761043E-01 4.823978618E-02 8.728500226E-01
 1.161210015E-01 4.631384835E-02 8.646494892E-01
 1.054074094E-01 4.428789765E-02 8.554385077E-01
 9.549491107E-02 4.230995849E-02 8.463502580E-01
 8.491243422E-02 4.004702717E-02 8.364749996E-01
 7.398280501E-02 3.753696382E-02 8.263116650E-01
 6.432603300E-02 3.513551131E-02 8.166411594E-01
 5.509147421E-02 3.266276792E-02 8.044650980E-01
 4.633808509E-02 3.010394424E-02 7.904144402E-01
 3.848525509E-02 2.760916017E-02 7.781593870E-01
 3.163276613E-02 2.522504702E-02 7.642938193E-01
 2.572057582E-02 2.296122350E-02 7.500146544E-01
 2.134729736E-02 2.112039924E-02 7.301960918E-01
 1.716548949E-02 1.920458488E-02 7.131530741E-01
 1.399649680E-02 1.760551892E-02 6.872518718E-01
 1.121240016E-02 1.606400497E-02 6.577739226E-01
 9.228354320E-03 1.486345753E-02 6.316190170E-01
 7.358757313E-03 1.363018434E-02 6.078063350E-01
 5.620126147E-03 1.236137375E-02 5.716452966E-01
 3.463902511E-03 1.054822933E-02 5.208682145E-01
 1.696620719E-03 8.753545582E-03 4.531771775E-01
 3.082529001E-04 6.961092353E-03 3.852249577E-01
 -1.038929913E-03 4.446556792E-03 3.099566230E-01
 -1.624856261E-03 2.488263883E-03 2.173308514E-01
 -1.816314762E-03 8.822003729E-04 1.323653668E-01
 -1.723548281E-03 -1.015007962E-03 3.054888166E-02
 -1.237349119E-03 -3.169939853E-03 9.522168294E-02
 -1.892690198E-04 -5.699018948E-03 1.990779951E-01
 1.447850373E-03 -8.379866369E-03 3.084549408E-01
 3.572872607E-03 -1.104534417E-02 3.783111230E-01
 5.511708092E-03 -1.306988951E-02 4.313782820E-01
 7.792502642E-03 -1.515125763E-02 4.740104815E-01
 9.558324702E-03 -1.660331711E-02 5.134024950E-01
 1.170159131E-02 -1.822348312E-02 5.502495711E-01
 1.416710578E-02 -1.993853413E-02 5.874005721E-01
 1.736399159E-02 -2.196983993E-02 6.258302167E-01
 2.054696903E-02 -2.382135391E-02 6.563716228E-01
 2.456328087E-02 -2.596432157E-02 6.846736847E-01
 2.977046929E-02 -2.848340757E-02 7.220218743E-01
 3.524953499E-02 -3.088673204E-02 7.528605345E-01
 4.187514260E-02 -3.351742029E-02 7.758850274E-01
 4.915340245E-02 -3.615248576E-02 7.931994761E-01
 5.776636302E-02 -3.897013515E-02 8.057623992E-01
 6.626276672E-02 -4.150136188E-02 8.228214110E-01
 7.643115520E-02 -4.427759722E-02 8.397690462E-01
 8.598411828E-02 -4.666739702E-02 8.569513896E-01
 9.668952972E-02 -4.914258048E-02 8.686971231E-01
 1.078202501E-01 -5.151868984E-02 8.783250266E-01
 1.195614487E-01 -5.382525921E-02 8.880770277E-01
 1.312347353E-01 -5.596207455E-02 8.994720647E-01
 1.416541934E-01 -5.773915723E-02 9.107268436E-01
 1.530937850E-01 -5.956343561E-02 9.201853726E-01
 1.649296880E-01 -6.132266298E-02 9.296142957E-01
 1.764421463E-01 -6.292052567E-02 9.392368774E-01
 1.881049871E-01 -6.442877650E-02 9.488427154E-01
 1.987295151E-01 -6.570490450E-02 9.569153908E-01
 2.100071013E-01 -6.696258485E-02 9.645953418E-01
 2.220705301E-01 -6.820072234E-02 9.729882782E-01
 2.339308709E-01 -6.932660937E-02 9.832024626E-01
 2.455975413E-01 -7.031893730E-02 9.938441265E-01
 2.576274574E-01 -7.125120610E-02 1.003897008E+00
 2.688217759E-01 -7.199379057E-02 1.012851645E+00
 2.813961208E-01 -7.275192440E-02 1.022012901E+00
 2.934927046E-01 -7.334307581E-02 1.033144656E+00
 3.063299656E-01 -7.385732979E-02 1.043851022E+00
 3.181698918E-01 -7.420032471E-02 1.053125013E+00
 3.306149542E-01 -7.446553558E-02 1.063550959E+00
 3.411891162E-01 -7.458683103E-02 1.075449335E+00
 3.528442383E-01 -7.458614558E-02 1.085276156E+00
 3.641267717E-01 -7.447303087E-02 1.092365050E+00
 3.753191531E-01 -7.427579910E-02 1.099051936E+00
 3.876021206E-01 -7.392686605E-02 1.104855232E+00
 4.007172883E-01 -7.340365648E-02 1.107334801E+00
 4.131269753E-01 -7.275190949E-02 1.103272336E+00
 4.259116352E-01 -7.193850726E-02 1.088140908E+00
 4.384476840E-01 -7.101225108E-02 1.064473489E+00
 4.516099691E-01 -6.991042942E-02 1.037727111E+00
 4.641872942E-01 -6.871955097E-02 1.009430582E+00
 4.765356779E-01 -6.742824614E-02 9.811459780E-01
 4.890680313E-01 -6.603750587E-02 9.561239687E-01
 5.012097955E-01 -6.456814706E-02 9.315695796E-01
 5.145559311E-01 -6.285279989E-02 9.077536112E-01
 5.274079442E-01 -6.113284454E-02 8.898956714E-01
 5.394233465E-01 -5.943675712E-02 8.734397734E-01
 5.527072549E-01 -5.750093609E-02 8.570058751E-01
 5.659263730E-01 -5.553674325E-02 8.430165729E-01
 5.790619254E-01 -5.350324884E-02 8.286049525E-01
 5.924764872E-01 -5.138588324E-02 8.140852822E-01
 6.058961153E-01 -4.926522449E-02 8.019140407E-01
 6.188733578E-01 -4.714716226E-02 7.885342966E-01
 6.319926977E-01 -4.496156052E-02 7.754502983E-01
 6.456922889E-01 -4.272559658E-02 7.652887140E-01
 6.584348083E-01 -4.056452960E-02 7.543620280E-01
 6.717305183E-01 -3.833027184E-02 7.427779539E-01
 6.841359138E-01 -3.624923527E-02 7.339278946E-01
 6.965501308E-01 -3.416256979E-02 7.260106530E-01
 7.112402916E-01 -3.169493750E-02 7.164717492E-01
 7.242835164E-01 -2.950273454E-02 7.066824732E-01
 7.358319163E-01 -2.758061886E-02 6.983179049E-01
 7.493328452E-01 -2.532700822E-02 6.888628732E-01
 7.625412345E-01 -2.316543460E-02 6.788767475E-01
 7.761281133E-01 -2.092234418E-02 6.688111154E-01
 7.885318995E-01 -1.891940832E-02 6.598336579E-01
 8.014958501E-01 -1.687190123E-02 6.519946810E-01
 8.124477863E-01 -1.516473014E-02 6.447687416E-01
 8.234838247E-01 -1.347615011E-02 6.366334287E-01
 8.353827596E-01 -1.166843064E-02 6.256767657E-01
 8.474503756E-01 -9.929177351E-03 6.156375660E-01
 8.596815467E-01 -8.275084198E-03 6.083002195E-01
 8.703222275E-01 -6.932362448E-03 6.017425514E-01
 8.810539842E-01 -5.628955550E-03 5.948522076E-01
 8.933608532E-01 -4.287291784E-03 5.881858764E-01
 9.032749534E-01 -3.293985734E-03 5.826206453E-01
 9.141827822E-01 -2.349480521E-03 5.787378526E-01
 9.243336916E-01 -1.571090659E-03 5.751835925E-01
 9.342571497E-01 -9.322160622E-04 5.733910190E-01
 9.469980001E-01 -3.111859260E-04 5.731191587E-01
 9.610463977E-01 1.808200032E-04 5.722254321E-01
 9.758874774E-01 4.640325787E-04 5.639477992E-01
 9.892839193E-01 5.364747485E-04 5.805812788E-01
 -5.000000000E-01 -1.000000000E+00 7.064490917E-01
 3.500000000E+00 -1.000000000E+00 7.311754351E-01
 3.500000000E+00 1.000000000E+00 7.286553989E-01
 -5.000000000E-01 1.000000000E+00 7.070446759E-01
 -5.000000000E-01 5.000000000E-01 6.928881208E-01
 -5.000000000E-01 2.752797990E-12 6.780446557E-01
 -5.000000000E-01 -5.000000000E-01 6.915968846E-01
 -9.421907698E-13 -1.000000000E+00 7.238898173E-01
 5.000000000E-01 -1.000000000E+00 7.552753993E-01
 1.000000000E+00 -1.000000000E+00 7.371401223E-01
 1.500000000E+00 -1.000000000E+00 7.222229529E-01
 2.000000000E+00 -1.000000000E+00 7.229398169E-01
 2.500000000E+00 -1.000000000E+00 7.266842070E-01
 3.000000000E+00 -1.000000000E+00 7.285305565E-01
 3.500000000E+00 -5.000000000E-01 7.343819524E-01
 3.500000000E+00 -2.752797990E-12 7.364808024E-01
 3.500000000E+00 5.000000000E-01 7.333120170E-01
 3.000000000E+00 1.000000000E+00 7.265126404E-01
 2.500000000E+00 1.000000000E+00 7.291568388E-01
 2.000000000E+00 1.000000000E+00 7.345021904E-01
 1.500000000E+00 1.000000000E+00 7.486349541E-01
 1.000000000E+00 1.000000000E+00 7.751850721E-01
 5.000000000E-01 1.000000000E+00 7.729624710E-01
 1.733724275E-12 1.000000000E+00 7.267587266E-01
 6.677242122E-01 -4.965854982E-02 7.499141015E-01
 7.724826135E-01 -3.432381249E-02 6.764491908E-01
 8.889111184E-01 -1.346823756E-02 5.966492637E-01
 5.733808516E-01 -6.750952599E-02 8.363966442E-01
 6.876730617E-01 6.522869765E-02 9.265418191E-01
 2.873936283E-01 8.112065576E-02 9.630242525E-01
 9.180950809E-01 2.870150625E-02 7.413633735E-01
 2.861336789E-01 -8.407750502E-02 1.018578016E+00
 7.844236590E-01 5.660156340E-02 8.565547653E-01
 5.846061876E-01 7.837381280E-02 1.020407581E+00
 4.139210109E-01 8.352053830E-02 1.012912482E+00
 4.101434958E-01 -8.962746484E-02 1.085129862E+00
 1.833420391E+00 -6.045095660E-01 7.297783992E-01
 1.774955573E+00 6.634266087E-01 7.438312994E-01
 3.031176883E+00 2.156835666E-01 7.397100557E-01
 7.497861834E-01 -6.077884180E-01 7.548661745E-01
 4.848439904E-01 -7.771593190E-02 9.581770273E-01
 2.886789798E-01 -6.830899455E-01 7.749678568E-01
 1.239514213E-01 -6.639662335E-02 8.845170221E-01
 1.800972930E-01 -7.331156186E-02 9.340240442E-01
 7.611159137E-01 5.724283983E-01 8.290883859E-01
 4.945084264E-01 8.141303513E-02 1.040505868E+00
 2.888256564E-01 6.422091419E-01 7.887593382E-01
 1.196483378E-01 5.685225521E-02 8.617301237E-01
 1.733432224E-01 6.570100688E-02 9.026607619E-01
 2.734843460E+00 -5.326958348E-01 7.351769872E-01
 1.186958812E+00 6.323240194E-01 7.590732511E-01
 9.804434546E-01 3.555515557E-01 7.642318339E-01
 8.451638346E-01 4.398687533E-02 8.139519420E-01
 1.237631807E+00 -6.495999614E-01 7.207932614E-01
 1.483133957E+00 -2.483953540E-01 7.250284541E-01
 2.248443933E+00 -5.894839803E-01 7.330447948E-01
 1.983237983E+00 -2.195346678E-01 7.371182176E-01
 2.413186443E+00 -1.879926616E-01 7.399671665E-01
 2.184602585E+00 1.581897728E-01 7.428544784E-01
 1.741736668E+00 1.014932554E-01 7.381763786E-01
 -2.737652888E-01 2.319686144E-01 6.707643157E-01
 -1.073281115E-01 6.239649412E-01 7.220469171E-01
 2.482502678E-02 3.301880660E-01 7.312838133E-01
 4.567274978E-02 3.987448868E-02 7.723366100E-01
 -2.714707832E-01 -2.369887826E-01 6.683246286E-01
 -6.816462261E-02 -6.051793782E-01 7.251238424E-01
 1.079963962E-01 -3.642814841E-01 7.709415945E-01
 2.225114639E+00 5.694551873E-01 7.405393034E-01
 2.743684036E+00 5.985609557E-01 7.367687117E-01
 -2.354966827E-01 -4.623665278E-03 6.455438487E-01
 -1.283857349E-01 1.267165754E-01 6.346094846E-01
 -1.202356283E-01 -1.424679021E-01 6.369503296E-01
 6.903659454E-02 -5.053660116E-02 8.146014339E-01
 4.272202178E-02 -4.117026529E-02 7.495309014E-01
 -6.822889655E-02 -3.227469361E-01 6.974386357E-01
 5.797872518E-03 -1.830509990E-01 6.886901196E-01
 1.790214442E-01 -2.444702445E-01 8.416437472E-01
 3.470172339E-01 -8.405126178E-02 1.070819543E+00
 2.396410174E-01 -8.394553141E-02 9.779171676E-01
 2.140134524E-01 -7.898263055E-02 9.603703415E-01
 -3.831123983E-02 -9.901683524E-02 5.996632812E-01
 2.108038874E-02 -2.851016623E-02 6.604709331E-01
 -1.100111029E-01 -2.359227142E-02 5.777470237E-01
 -7.130628500E-02 5.521762987E-02 5.640544631E-01
 2.221885523E-02 2.713572561E-02 7.115702764E-01
 3.184491067E-02 -1.132489468E-01 7.038951993E-01
 3.109357923E+00 -2.612784180E-01 7.384895297E-01
 -4.952420026E-02 -3.573592504E-02 5.143750010E-01
 -4.545871070E-02 9.381213679E-03 4.830570849E-01
 -2.567465356E-02 5.118867845E-02 5.501421195E-01
 -3.486098489E-02 9.878077082E-02 6.210384798E-01
 3.111111098E-02 1.116905017E-01 7.076736098E-01
 8.982046288E-02 5.407636751E-02 8.312047679E-01
 3.982403024E-04 1.876259595E-01 6.958545972E-01
 8.299271871E-02 1.400137212E-01 7.773391648E-01
 1.926766357E-01 2.911080324E-01 8.253418652E-01
 3.499833973E-01 8.577417689E-02 9.855365551E-01
 2.357260784E-01 7.326159612E-02 9.375076335E-01
 1.931064353E-01 1.781577601E-01 8.609712048E-01
 1.429053933E-01 4.556069165E-01 7.738960288E-01
 -1.165015612E-01 2.655480844E-01 6.815126663E-01
 7.476491898E-02 9.614015981E-02 7.843989443E-01
 1.422020125E-01 1.353262451E-01 8.419532785E-01
 3.023430678E-01 4.033199470E-01 8.461926709E-01
 3.092455048E-01 2.652569432E-01 8.929682985E-01
 4.330539633E-01 3.044514952E-01 9.154800975E-01
 2.860598749E-01 1.686655985E-01 9.233951661E-01
 3.862490672E-01 1.994680414E-01 9.459472403E-01
 5.110267058E-01 2.185163849E-01 9.648998726E-01
 5.490268917E-01 3.363213855E-01 9.096364657E-01
 6.220637946E-01 2.293962425E-01 9.354948074E-01
 6.392976142E-01 7.188490259E-02 9.727916844E-01
 6.164855047E-01 7.160797246E-02 9.977316974E-01
 4.536356785E-01 1.588990806E-01 9.855001059E-01
 4.547866976E-01 8.470559939E-02 1.026614573E+00
 5.685366137E-01 1.602169237E-01 9.881808506E-01
 5.291236751E-01 8.400119869E-02 1.042579305E+00
 5.542931803E-01 8.060244282E-02 1.037522726E+00
 6.509810597E-01 1.689791202E-01 9.337920474E-01
 7.365572377E-01 5.938875922E-02 8.921727808E-01
 7.129803503E-01 6.280462764E-02 9.092492843E-01
 7.076518967E-01 2.155234555E-01 8.808814598E-01
 7.335105105E-01 1.393650647E-01 8.793167273E-01
 7.882428299E-01 1.788226286E-01 8.408367134E-01
 8.107683867E-01 1.270658026E-01 8.321480144E-01
 8.623485246E-01 1.830497310E-01 7.938320278E-01
 9.711705215E-01 2.293031033E-02 6.658683274E-01
 8.852671728E-01 1.113234498E-01 7.795211511E-01
 8.837208638E-01 3.784524211E-02 7.808521495E-01
 9.374633318E-01 1.497540986E-01 7.482262206E-01
 9.570551385E-01 9.592455873E-02 7.209831516E-01
 1.006414770E+00 1.498734484E-01 7.122430667E-01
 6.895648178E-01 3.522102124E-01 8.679790417E-01
 3.498987445E-01 1.477404620E-01 9.551640999E-01
 7.667577348E-01 1.003838137E-01 8.632103414E-01
 7.601530037E-01 5.711095137E-02 8.737206078E-01
 4.528310531E-01 4.680416028E-01 8.648562181E-01
 8.400373863E-01 8.756623092E-02 8.140636284E-01
 8.232249496E-01 4.741282018E-02 8.318539241E-01
 6.129833223E-01 1.300554928E-01 9.764340159E-01
 8.403614139E-01 2.759504714E-01 8.102618839E-01
 9.157552033E-01 7.728601121E-02 7.509543193E-01
 6.907079408E-01 1.145481743E-01 9.130678718E-01
 1.082978674E-02 -6.833565002E-02 6.321505443E-01
 -1.696252786E-02 -4.969940541E-02 5.229713646E-01
 1.134277937E-01 9.877335002E-02 8.306585743E-01
 1.443193506E-01 6.087840280E-02 8.829007225E-01
 8.747138656E-03 7.070727799E-02 6.534778320E-01
 -2.981608086E-02 -1.624151464E-02 4.233707836E-01
 3.134746147E-04 -1.148836833E-02 3.277670173E-01
 -7.380300276E-03 -2.995507974E-02 4.627284036E-01
 1.033672790E-02 -2.163273685E-02 5.444248902E-01
 7.417893270E-03 -1.740653413E-02 4.725190883E-01
 9.192135857E-03 -4.985829719E-02 5.880410785E-01
 3.171497558E-02 -3.579812566E-02 7.118140184E-01
 2.641184423E-02 -4.890821039E-02 6.773858767E-01
 4.609184779E-02 -6.021445896E-02 7.448470342E-01
 7.024953322E-02 -9.368466496E-02 7.917004091E-01
 9.833511002E-02 -6.079028680E-02 8.580697885E-01
 7.380156472E-02 -1.553971734E-01 7.753057025E-01
 1.144720699E-01 -1.186692969E-01 8.410470326E-01
 2.558986197E+00 2.062021962E-01 7.421708511E-01
 4.467125907E-02 7.443905395E-02 7.434150288E-01
 6.649053431E-02 4.711683717E-02 8.052624368E-01
 2.833363084E-02 4.711315236E-02 7.202087608E-01
 3.314993103E-02 3.358539678E-02 7.457212132E-01
 1.963705714E-02 -3.925910161E-02 6.487208073E-01
 9.832342547E-03 -3.107248168E-02 5.738331221E-01
 6.469924114E-03 4.242367263E-02 6.186612168E-01
 8.664516130E-03 1.768598095E-02 6.080797556E-01
 -1.452896700E-02 2.854964793E-02 4.881122382E-01
 3.354288488E-03 1.360438350E-02 5.276481212E-01
 -1.932050265E-02 5.180678781E-03 3.532891457E-01
 -3.682347340E-03 1.832125311E-02 4.541188154E-01
 -7.658656159E-03 6.679528679E-03 2.775930739E-01
 -5.200524304E-04 9.661397499E-03 4.041703270E-01
 -1.520759045E-02 -1.040343773E-02 3.257969317E-01
 -4.582152545E-03 -2.307275978E-03 1.476886751E-01
 7.539707136E-03 2.759429433E-02 6.131959523E-01
 -3.111477311E-03 1.851040053E-03 1.472289430E-01
 -1.273679654E-03 -2.030711491E-02 4.189190576E-01
 -5.697919380E-03 -9.734909315E-03 2.646191404E-01
 7.975693882E-02 -6.967447238E-02 8.190509224E-01
 1.515539369E-02 2.172441732E-02 6.781546294E-01
 5.506014620E-01 6.667172469E-01 8.306597733E-01
 8.010230309E-02 -2.536685181E-01 7.622215922E-01
 2.762963898E-01 -3.146819890E-01 8.633110619E-01
 2.765086153E-01 -2.013605961E-01 9.268169715E-01
 3.624567778E-01 -2.505669081E-01 9.313770569E-01
 3.551406018E-01 -1.734643908E-01 9.905276209E-01
 4.362598116E-01 -1.899851655E-01 9.607956846E-01
 4.431221284E-01 -8.403369871E-02 1.044242778E+00
 4.600271171E-01 -2.836079976E-01 8.933205065E-01
 5.335283487E-01 -2.048130861E-01 8.595770937E-01
 5.364266725E-01 -7.776444154E-02 8.775390575E-01
 5.726287028E-01 -3.071933084E-01 8.171161601E-01
 6.420816570E-01 -2.165709234E-01 7.733981479E-01
 7.216344781E-01 -4.324208987E-02 7.110802991E-01
 7.429634047E-01 -3.682159678E-02 6.957775034E-01
 5.953214547E-01 -1.470683210E-01 8.058248364E-01
 6.273150560E-01 -5.735146447E-02 7.826805208E-01
 6.023624099E-01 -6.341372627E-02 8.070060288E-01
 6.883238060E-01 -1.470335926E-01 7.434058493E-01
 7.216053360E-01 -2.037103216E-01 7.285616268E-01
 8.333181283E-01 -2.439668679E-02 6.335785030E-01
 8.561873302E-01 -1.995544255E-02 6.163894324E-01
 7.558312869E-01 -1.490216039E-01 7.071605842E-01
 8.133534278E-01 -2.081679847E-01 6.939519254E-01
 9.695421916E-01 -1.283007729E-02 5.794341988E-01
 9.331660243E-01 -1.190867101E-02 5.816135579E-01
 8.577568513E-01 -1.308667154E-01 6.608564910E-01
 9.069974236E-01 -1.979017468E-01 6.674188690E-01
 9.633087897E-01 -1.241232199E-01 6.408154880E-01
 1.014966432E+00 -1.975587803E-01 6.668919240E-01
 1.035278821E+00 -1.071709579E-01 6.519548882E-01
 9.559822460E-01 -3.086803286E-01 6.885677418E-01
 9.011833219E-01 -7.931497214E-02 6.262818980E-01
 8.196874001E-01 -8.947934479E-02 6.635392931E-01
 1.103823594E+00 -2.710811033E-01 6.896462872E-01
 1.980444133E-01 -1.567268789E-01 8.999924091E-01
 1.019669952E+00 -4.683639680E-01 7.134405679E-01
 9.940557904E-01 -7.380847955E-02 6.245232720E-01
 7.233397688E-01 -2.954955854E-01 7.396906822E-01
 7.237127671E-01 -1.010867603E-01 7.180491888E-01
 5.382279903E-01 -1.383749535E-01 8.607925536E-01
 2.567585751E-01 -1.395345208E-01 9.540216221E-01
 6.388031750E-01 -1.106906690E-01 7.755553905E-01
 3.993349585E-01 -1.407192056E-01 1.031529821E+00
 3.802730018E-01 -8.926140407E-02 1.085488853E+00
 4.448066647E-01 -1.350729099E-01 1.007829477E+00
 4.482285362E-01 -4.513627414E-01 8.331458119E-01
 5.709696822E-01 -1.085088832E-01 8.359738033E-01
 7.057825112E-01 -4.628515400E-02 7.229459339E-01
 7.185984422E-01 -5.704324685E-02 7.166979653E-01
 6.972866017E-01 -6.431007183E-02 7.312652947E-01
 7.523046277E-01 -7.577049107E-02 6.981335188E-01
 6.038001966E-01 -1.044995903E-01 8.065980761E-01
 3.555794427E-01 -1.263666243E-01 1.033645843E+00
 1.342519231E-01 -1.746801463E-01 8.347980867E-01
 1.568491879E-01 -1.241785447E-01 8.847936770E-01
 1.580605463E-01 -7.220810385E-02 9.171678510E-01
 2.207826535E-01 -1.202467692E-01 9.414082959E-01
 6.927007845E-01 -4.582391302E-02 7.317549482E-01
 3.065856977E-01 -1.378337776E-01 9.927361970E-01
 3.126471851E-01 -8.487833305E-02 1.040903233E+00
 1.916974428E-01 -1.091155417E-01 9.238146218E-01
 7.326112682E-01 -3.874360846E-02 7.026056689E-01
 7.578090175E-01 -3.568502207E-02 6.873536059E-01
 7.652626848E-01 -5.286081549E-02 6.855816615E-01
 7.961303029E-01 -3.051711423E-02 6.606532367E-01
 7.845491659E-01 -4.385388815E-02 6.717238915E-01
 8.073163398E-01 -4.542853046E-02 6.576164049E-01
 8.073613426E-01 -2.635671529E-02 6.523293400E-01
 7.835644190E-01 -2.970731347E-02 6.674491816E-01
 7.834310147E-01 -6.830086683E-02 6.782773496E-01
 8.395720510E-01 -5.950981512E-02 6.434976443E-01
 2.235045403E-01 -9.681587019E-02 9.558926433E-01
 2.494468247E-01 -1.040521825E-01 9.730174585E-01
 2.641603921E-01 -7.968702079E-02 1.003018425E+00
 2.761504425E-01 -1.146677195E-01 9.884791377E-01
 2.689963271E-01 -9.226279040E-02 9.996381914E-01
 2.542449267E-01 -8.358627809E-02 9.911918655E-01
 3.308386802E-01 -1.120180213E-01 1.032226397E+00
 3.625008060E-01 -1.021109644E-01 1.061785712E+00
 3.896050046E-01 -1.063672856E-01 1.067345329E+00
 4.189596271E-01 -1.110483454E-01 1.056550045E+00
 4.279469766E-01 -9.161151414E-02 1.066475490E+00
 6.442025208E-01 -4.508262683E-01 7.804289683E-01
 8.447433759E-01 -1.997394008E-02 6.233910848E-01
 8.488739522E-01 -3.498437829E-02 6.287983127E-01
 8.708775857E-01 -3.052237334E-02 6.153587402E-01
 8.630220898E-01 -5.117444901E-02 6.287660029E-01
 8.901410465E-01 -4.803479625E-02 6.166928558E-01
 9.273808120E-01 -5.313320915E-02 6.081450607E-01
 9.106931120E-01 -2.761163636E-02 5.980141020E-01
 9.094569487E-01 -1.131120154E-02 5.869963744E-01
 9.001055028E-01 -1.429908372E-02 5.922879128E-01
 8.894519552E-01 -2.545516281E-02 6.036084416E-01
 6.156086586E-01 -5.844453226E-02 7.947309165E-01
 6.214464565E-01 -7.612370332E-02 7.941211474E-01
 6.465123285E-01 -7.208284961E-02 7.701411330E-01
 6.784419050E-01 -9.331649027E-02 7.476170652E-01
 8.664977173E-01 -8.405697283E-02 6.385486261E-01
 8.185461874E-01 -2.787686211E-02 6.450282497E-01
 8.295253318E-01 -3.843925456E-02 6.420936007E-01
 9.335374619E-01 -2.926819248E-02 5.916123830E-01
 9.443925375E-01 -1.787004077E-02 5.837180998E-01
 9.556088585E-01 -3.088347447E-02 5.961724430E-01
 9.843570561E-01 -3.270772837E-02 5.956256235E-01
 9.598440887E-01 -6.615740307E-02 6.159222694E-01
 1.024056449E+00 -4.641314667E-02 6.330116964E-01
 1.093256940E+00 -5.664627530E-02 6.685549387E-01
 1.115882630E+00 -1.441191814E-01 6.803500113E-01
 1.171556890E+00 -6.375951019E-02 6.933336093E-01
 1.143996460E+00 2.759531633E-02 6.866240595E-01
 1.265443001E+00 1.704751164E-02 7.094988573E-01
 1.203918124E+00 1.489352062E-01 7.148126489E-01
 1.414210283E+00 1.621342759E-01 7.309656044E-01
 1.252053212E+00 -1.649499331E-01 7.050740490E-01
 1.474670737E+00 -3.984694824E-02 7.244662388E-01
 1.288842828E+00 3.724579344E-01 7.413732217E-01
 1.269166442E+00 -3.849643739E-01 7.123645074E-01
 1.585899112E+00 3.796680341E-01 7.444348814E-01
 1.089865759E+00 2.473133738E-01 7.275328579E-01
 1.467331265E+00 6.095753193E-01 7.487230401E-01
 6.815984637E-01 -4.984450666E-02 7.406340294E-01
 6.707096215E-01 -6.430048057E-02 7.516860648E-01
 8.265193037E-01 -4.034238129E-01 7.227512060E-01
 5.903103169E-01 -8.118499462E-02 8.213292394E-01
 5.400857605E-01 -1.031336622E-01 8.706065711E-01
 5.088815409E-01 -7.696375807E-02 9.164308457E-01
 5.102481533E-01 -1.154770562E-01 9.042276345E-01
 4.905648519E-01 -1.512299808E-01 9.274140360E-01
 4.759777646E-01 -1.141481906E-01 9.659870625E-01
 4.674346838E-01 -8.557325466E-02 9.925152397E-01
 9.208950034E-01 -1.400337876E-02 5.856354968E-01
 1.681986714E+00 -1.484331144E-01 7.332612817E-01
 7.400368756E-01 -5.193939082E-02 7.013368112E-01
 3.005590602E-01 -1.002372569E-01 1.018448699E+00
 3.292906621E-01 -9.261115595E-02 1.048601405E+00
 8.777846269E-01 -1.637347552E-02 6.036374887E-01
 1.501184080E-01 9.805145402E-02 8.685476829E-01
 1.869130311E-01 1.183183691E-01 8.862434714E-01
 2.050615966E-01 7.045333857E-02 9.205153730E-01
 2.375889295E-01 1.376585211E-01 9.060821985E-01
 2.812638856E-01 1.227738317E-01 9.382678523E-01
 2.625455192E-01 7.922297794E-02 9.505713144E-01
 3.236723732E-01 1.158698865E-01 9.540082690E-01
 3.130556504E-01 8.106193716E-02 9.729008663E-01
 2.186167818E-01 1.057614769E-01 9.130998181E-01
 3.573604214E-01 1.113500014E-01 9.753815779E-01
 3.866511649E-01 8.152353293E-02 1.002727002E+00
 3.959323208E-01 1.340399161E-01 9.803084242E-01
 4.316444199E-01 1.198425263E-01 1.002418334E+00
 4.706118694E-01 1.173433906E-01 1.014053057E+00
 5.087837402E-01 1.486876054E-01 1.003443354E+00
 5.395840575E-01 1.228122883E-01 1.017985288E+00
 5.725281097E-01 1.170246447E-01 1.009851018E+00
 5.069711255E-01 1.128232702E-01 1.024670632E+00
 3.672347258E-01 9.324190845E-02 9.891909533E-01
 3.837476372E-01 9.736410844E-02 9.921121086E-01
 3.289964735E-01 9.338759135E-02 9.739109333E-01
 3.981716499E-01 8.368970327E-02 1.005483636E+00
 3.251977003E-01 7.807333211E-02 9.790740248E-01
 1.580540859E-01 7.432668239E-02 8.863750595E-01
 1.760033751E-01 8.624281104E-02 8.943082126E-01
 1.268257910E-01 7.249527027E-02 8.602406488E-01
 6.010555188E-01 9.664990327E-02 1.000753415E+00
 6.298566308E-01 1.038574779E-01 9.734553407E-01
 6.677653241E-01 9.352349909E-02 9.367915934E-01
 6.644723363E-01 7.301206915E-02 9.466256440E-01
 6.510864512E-01 6.940057984E-02 9.616105092E-01
 6.760678414E-01 6.639071640E-02 9.363012127E-01
 6.851408030E-01 8.284300306E-02 9.256058379E-01
 7.132054137E-01 9.573816376E-02 9.011720814E-01
 7.405419444E-01 8.626014641E-02 8.832265411E-01
 3.354609094E-01 7.883043512E-02 9.824336923E-01
 1.987846326E-01 8.996197775E-02 9.077484191E-01
 2.178737862E-01 8.327164238E-02 9.243846963E-01
 4.084940426E-01 1.027085545E-01 1.000177111E+00
 6.485030935E-01 8.828200111E-02 9.589047028E-01
 6.033698616E-01 7.946585466E-02 1.005425065E+00
 7.257612945E-01 7.312934152E-02 8.969520054E-01
 7.499676721E-01 7.018794121E-02 8.794319684E-01
 7.710484360E-01 6.997410410E-02 8.637803087E-01
 7.994561906E-01 8.063374783E-02 8.444199945E-01
 8.025162681E-01 5.681527988E-02 8.462895241E-01
 8.195007690E-01 6.433879944E-02 8.326037002E-01
 8.361626791E-01 5.740768189E-02 8.201595465E-01
 8.542396273E-01 6.148924797E-02 8.048985283E-01
 3.013242806E-01 9.558075412E-02 9.612677805E-01
 5.684523736E-01 9.233445251E-02 1.023291668E+00
 4.971785179E-01 -9.213481366E-02 9.350520249E-01
 1.366835909E-01 -9.963699019E-02 8.810827918E-01
 1.092488691E-01 -8.085358604E-02 8.556719622E-01
 1.388429250E-01 -7.746499032E-02 8.950973229E-01
 8.511788914E-01 4.322788889E-01 8.081219141E-01
 4.463746409E-01 -1.035813189E-01 1.026904853E+00
 5.261792440E-01 -6.386134746E-01 7.904472269E-01
 5.671608671E-01 7.771350404E-02 1.031437552E+00
 7.036821304E-01 7.480721264E-02 9.137704251E-01
 8.588434378E-01 4.266074026E-02 8.009203875E-01
 8.746820326E-01 5.459440739E-02 7.870378328E-01
 8.976419240E-01 5.303429815E-02 7.668861990E-01
 8.690172703E-01 7.866714154E-02 7.917083066E-01
 3.006458853E-01 7.846022815E-02 9.679270510E-01
 9.762980523E-01 -7.211225231E-01 7.397810696E-01
 8.669706634E-01 -1.641174761E-02 6.089823541E-01
 7.482887643E-01 5.572227056E-02 8.841405002E-01
 5.468512907E-01 9.646303978E-02 1.031479199E+00
 3.936681822E-01 -8.651733540E-02 1.091456288E+00
 9.637100110E-01 2.325712884E-01 7.509739876E-01
 2.762176419E-01 9.206724359E-02 9.526285838E-01
 2.474369704E-01 9.595360873E-02 9.343911036E-01
 5.287911172E-02 5.497243738E-02 7.754231030E-01
 7.138289530E-02 6.389896994E-02 7.984011547E-01
 9.674755618E-02 7.429046700E-02 8.263377264E-01
 1.064083680E-01 6.013792371E-02 8.465824446E-01
 6.264670615E-01 8.405854923E-02 9.840237956E-01
 6.549301135E-01 -5.389607998E-02 7.610752084E-01
 6.412884969E-01 -5.420351023E-02 7.713499096E-01
 5.191317716E-01 -8.955957097E-02 8.977214028E-01
 5.591205664E-01 -8.278759132E-02 8.516075036E-01
 3.630099330E-01 8.010243325E-02 9.932497930E-01
 2.751561869E-01 7.670049142E-02 9.588357965E-01
 9.869527498E-01 -1.055635808E-02 5.744118590E-01
 1.007205113E+00 -1.943154516E-02 5.952590799E-01
 1.045682268E+00 -3.126650129E-03 6.397666991E-01
 1.067934305E+00 8.055304221E-02 6.868604795E-01