TITLE     = "Visualization of the solution"
VARIABLES = "x"
"y"
"Mach"
ZONE T="Zone"
 STRANDID=0, SOLUTIONTIME=0
 Nodes=707, Elements=1199, ZONETYPE=FEQuadrilateral
 DATAPACKING=POINT
 DT=(DOUBLE DOUBLE DOUBLE )
 9.998602867E-01 5.106452154E-04 5.562229686E-01
 9.873570800E-01 3.014142858E-03 6.239804486E-01
 9.745438695E-01 5.587947089E-03 6.542165759E-01
 9.576804638E-01 8.966527879E-03 6.830189744E-01
 9.426264167E-01 1.198122464E-02 7.058203010E-01
 9.280098677E-01 1.489702612E-02 7.207021416E-01
 9.162293077E-01 1.721685007E-02 7.335347963E-01
 9.043506384E-01 1.954327524E-02 7.487393309E-01
 8.928635120E-01 2.183851786E-02 7.653180193E-01
 8.807651997E-01 2.412741445E-02 7.762975641E-01
 8.682845235E-01 2.642830275E-02 7.867975288E-01
 8.559073806E-01 2.870767377E-02 8.003201308E-01
 8.435828686E-01 3.090681508E-02 8.113757762E-01
 8.325080276E-01 3.279687837E-02 8.183149664E-01
 8.208294511E-01 3.476404026E-02 8.256427883E-01
 8.082302213E-01 3.682947159E-02 8.340353254E-01
 7.955993414E-01 3.887595981E-02 8.433208566E-01
 7.833280563E-01 4.082428664E-02 8.515050152E-01
 7.712100744E-01 4.267960042E-02 8.607588912E-01
 7.600245476E-01 4.441187903E-02 8.714942431E-01
 7.472758293E-01 4.629199952E-02 8.809769135E-01
 7.339584827E-01 4.820007086E-02 8.913314784E-01
 7.235720158E-01 4.966727644E-02 9.017504646E-01
 7.125993371E-01 5.116283894E-02 9.107510379E-01
 7.010666728E-01 5.268886313E-02 9.209070640E-01
 6.879097223E-01 5.437828600E-02 9.338353986E-01
 6.752647161E-01 5.594776571E-02 9.478350844E-01
 6.650331020E-01 5.716454983E-02 9.597961669E-01
 6.534909010E-01 5.848352239E-02 9.708215743E-01
 6.417410374E-01 5.976041779E-02 9.813642268E-01
 6.300743818E-01 6.097678095E-02 9.917174203E-01
 6.184771061E-01 6.211310253E-02 1.003502369E+00
 6.079695821E-01 6.310443580E-02 1.016998180E+00
 5.958085060E-01 6.419288367E-02 1.028565757E+00
 5.843758583E-01 6.513533741E-02 1.035177460E+00
 5.708789825E-01 6.613986194E-02 1.041314054E+00
 5.585286021E-01 6.700748950E-02 1.046275526E+00
 5.462417006E-01 6.776837260E-02 1.047547066E+00
 5.353210568E-01 6.837836653E-02 1.047236730E+00
 5.237780213E-01 6.897395104E-02 1.045756724E+00
 5.114992857E-01 6.950881332E-02 1.042578055E+00
 5.003073812E-01 6.992489845E-02 1.039956757E+00
 4.874016345E-01 7.034452260E-02 1.038413150E+00
 4.740248322E-01 7.069609314E-02 1.034463080E+00
 4.601469040E-01 7.094394416E-02 1.029154609E+00
 4.467967153E-01 7.109853625E-02 1.024549746E+00
 4.341737330E-01 7.118653506E-02 1.021179413E+00
 4.214190841E-01 7.118312269E-02 1.014887021E+00
 4.088443816E-01 7.109961659E-02 1.008446009E+00
 3.962035477E-01 7.094547153E-02 1.003888334E+00
 3.839914203E-01 7.074345648E-02 9.993736746E-01
 3.723908663E-01 7.047708333E-02 9.938466647E-01
 3.591984808E-01 7.010547817E-02 9.883787131E-01
 3.464182019E-01 6.966441125E-02 9.829060677E-01
 3.331358731E-01 6.913080066E-02 9.787402351E-01
 3.221274018E-01 6.863867491E-02 9.725706120E-01
 3.094178140E-01 6.796970963E-02 9.650653874E-01
 2.964601219E-01 6.722845137E-02 9.581977515E-01
 2.824876010E-01 6.633778661E-02 9.516926452E-01
 2.703873515E-01 6.548830122E-02 9.464779094E-01
 2.584355772E-01 6.456860900E-02 9.405617432E-01
 2.461397052E-01 6.354641914E-02 9.338099647E-01
 2.337176055E-01 6.243116409E-02 9.282780786E-01
 2.215245515E-01 6.124664471E-02 9.225336798E-01
 2.096663415E-01 6.002555788E-02 9.161475159E-01
 1.978990287E-01 5.871329457E-02 9.079354243E-01
 1.854503304E-01 5.723538995E-02 9.007626719E-01
 1.735959500E-01 5.573021993E-02 8.929788487E-01
 1.621198654E-01 5.416741595E-02 8.835291975E-01
 1.502838135E-01 5.245585367E-02 8.745801037E-01
 1.395567358E-01 5.079755187E-02 8.648264582E-01
 1.279030442E-01 4.888371378E-02 8.548269035E-01
 1.166236028E-01 4.690647870E-02 8.452975660E-01
 1.060842723E-01 4.493429139E-02 8.353236733E-01
 9.626675397E-02 4.297679663E-02 8.243127083E-01
 8.539744467E-02 4.065699875E-02 8.102378101E-01
 7.387869805E-02 3.799548745E-02 7.946657619E-01
 6.400023401E-02 3.552229330E-02 7.776919101E-01
 5.420628190E-02 3.286208957E-02 7.592382793E-01
 4.549061507E-02 3.027132340E-02 7.397547573E-01
 3.801876679E-02 2.785289474E-02 7.175241654E-01
 3.137083352E-02 2.550794184E-02 6.980216818E-01
 2.565006725E-02 2.329142019E-02 6.776703331E-01
 2.146189287E-02 2.153429389E-02 6.566186533E-01
 1.743512601E-02 1.968396083E-02 6.349478801E-01
 1.427226327E-02 1.810904033E-02 6.134596554E-01
 1.136480644E-02 1.652071066E-02 5.861164502E-01
 9.278506972E-03 1.528028864E-02 5.512378137E-01
 7.434456144E-03 1.408462971E-02 5.314960634E-01
 5.754379090E-03 1.289339643E-02 5.134087657E-01
 3.579867305E-03 1.114831958E-02 4.715605624E-01
 1.712368103E-03 9.357655421E-03 4.460540240E-01
 1.838391181E-04 7.514151279E-03 3.844997200E-01
 -1.290131360E-03 4.896394908E-03 2.362708960E-01
 -1.851787441E-03 2.966982545E-03 3.793377323E-02
 -1.981526380E-03 1.406159019E-03 3.905150057E-02
 -1.807949157E-03 -2.549005148E-04 1.437895977E-01
 -1.322366646E-03 -1.915371860E-03 2.685695953E-01
 -3.198547056E-04 -3.923892509E-03 3.227899531E-01
 1.169968047E-03 -5.979119334E-03 3.732422478E-01
 3.182618180E-03 -8.096053265E-03 4.393863402E-01
 5.034561269E-03 -9.697061032E-03 5.103578974E-01
 7.095912006E-03 -1.124769263E-02 5.331565581E-01
 8.769617416E-03 -1.237345673E-02 5.701597239E-01
 1.087639108E-02 -1.367264427E-02 6.024865386E-01
 1.326814946E-02 -1.500984002E-02 6.269491369E-01
 1.656500064E-02 -1.668746211E-02 6.455452341E-01
 1.949988306E-02 -1.804171130E-02 6.649404227E-01
 2.333587594E-02 -1.967136934E-02 6.851238608E-01
 2.869859524E-02 -2.171919867E-02 7.135984822E-01
 3.452467546E-02 -2.373015508E-02 7.381603572E-01
 4.148914665E-02 -2.589571662E-02 7.648376588E-01
 4.908061400E-02 -2.803309262E-02 7.807672739E-01
 5.805586278E-02 -3.032052889E-02 7.935611027E-01
 6.677537411E-02 -3.235924244E-02 8.039537316E-01
 7.694838196E-02 -3.454045951E-02 8.133974853E-01
 8.690683544E-02 -3.651351482E-02 8.213975924E-01
 9.727561474E-02 -3.842583299E-02 8.295603669E-01
 1.084451526E-01 -4.034871235E-02 8.394518833E-01
 1.197652891E-01 -4.216207191E-02 8.470897680E-01
 1.314989179E-01 -4.392521456E-02 8.546923409E-01
 1.420438290E-01 -4.541540146E-02 8.617911877E-01
 1.531413496E-01 -4.688990116E-02 8.688676084E-01
 1.651086658E-01 -4.839107767E-02 8.774575110E-01
 1.765763164E-01 -4.973694310E-02 8.851721155E-01
 1.882655621E-01 -5.101947859E-02 8.920706933E-01
 1.989129484E-01 -5.211494118E-02 8.984729754E-01
 2.100398839E-01 -5.319066718E-02 9.064620151E-01
 2.221485525E-01 -5.426999927E-02 9.142700181E-01
 2.345596105E-01 -5.528950691E-02 9.233896806E-01
 2.465713024E-01 -5.618857965E-02 9.326198203E-01
 2.586309910E-01 -5.699819699E-02 9.413105280E-01
 2.696518004E-01 -5.766205117E-02 9.493294669E-01
 2.821076810E-01 -5.830856785E-02 9.567999813E-01
 2.942521870E-01 -5.884227902E-02 9.640258716E-01
 3.071390092E-01 -5.930854380E-02 9.718960458E-01
 3.189730644E-01 -5.962590873E-02 9.798916808E-01
 3.314720392E-01 -5.985352024E-02 9.864583477E-01
 3.423683941E-01 -5.994883552E-02 9.924045595E-01
 3.539337516E-01 -5.995817855E-02 9.987142331E-01
 3.646910787E-01 -5.985035375E-02 1.002707579E+00
 3.755040169E-01 -5.965189636E-02 1.002924778E+00
 3.872694373E-01 -5.933544412E-02 1.000678864E+00
 4.006499648E-01 -5.883157626E-02 9.945988382E-01
 4.131559432E-01 -5.822281167E-02 9.846764907E-01
 4.259804487E-01 -5.746342242E-02 9.710321699E-01
 4.384772182E-01 -5.659380928E-02 9.555943586E-01
 4.506897926E-01 -5.563031882E-02 9.391529765E-01
 4.627464116E-01 -5.456345528E-02 9.221460539E-01
 4.750898778E-01 -5.335238576E-02 9.050845024E-01
 4.871136546E-01 -5.212898552E-02 8.910748422E-01
 4.997669458E-01 -5.070213974E-02 8.752051298E-01
 5.135657191E-01 -4.904888943E-02 8.555141279E-01
 5.271298885E-01 -4.739234224E-02 8.387533423E-01
 5.403654575E-01 -4.569141939E-02 8.240126070E-01
 5.529797077E-01 -4.398005456E-02 8.078664547E-01
 5.666732788E-01 -4.213328660E-02 7.949385319E-01
 5.797873139E-01 -4.032894596E-02 7.845819708E-01
 5.922091603E-01 -3.855160996E-02 7.721057332E-01
 6.050807834E-01 -3.671336174E-02 7.596063157E-01
 6.194797754E-01 -3.465588018E-02 7.488854058E-01
 6.336423159E-01 -3.259354457E-02 7.376003782E-01
 6.484153867E-01 -3.045609966E-02 7.265049826E-01
 6.614170074E-01 -2.858190238E-02 7.167901551E-01
 6.749090552E-01 -2.665298246E-02 7.088733119E-01
 6.872414351E-01 -2.489567734E-02 7.003121885E-01
 6.994841695E-01 -2.314570360E-02 6.929634882E-01
 7.142881751E-01 -2.109666727E-02 6.854506380E-01
 7.275720835E-01 -1.926866919E-02 6.775150941E-01
 7.395688891E-01 -1.763715222E-02 6.699672571E-01
 7.529917955E-01 -1.583357714E-02 6.615506841E-01
 7.650819421E-01 -1.420841087E-02 6.524088227E-01
 7.788994312E-01 -1.247561071E-02 6.455376884E-01
 7.909632325E-01 -1.098161843E-02 6.393879573E-01
 8.039551377E-01 -9.409560822E-03 6.322268217E-01
 8.150131106E-01 -8.137449622E-03 6.249455508E-01
 8.260585070E-01 -6.859774236E-03 6.168655678E-01
 8.387637138E-01 -5.500057712E-03 6.091298236E-01
 8.515604734E-01 -4.264930729E-03 6.041141036E-01
 8.637079000E-01 -3.152939724E-03 5.990348044E-01
 8.749172688E-01 -2.212523483E-03 5.926921205E-01
 8.861803412E-01 -1.361516537E-03 5.883228659E-01
 8.990946412E-01 -5.411917227E-04 5.850553370E-01
 9.092016220E-01 -5.369272458E-06 5.814130416E-01
 9.196080565E-01 4.453536822E-04 5.793443661E-01
 9.294058084E-01 7.644898724E-04 5.784473674E-01
 9.378909469E-01 9.804633446E-04 5.778050150E-01
 9.494141340E-01 1.151525299E-03 5.768953438E-01
 9.621307254E-01 1.202157116E-03 5.810968187E-01
 9.761983752E-01 1.092178049E-03 5.645800001E-01
 9.885252714E-01 8.481582627E-04 5.817188695E-01
 -5.000000000E-01 -1.000000000E+00 7.102561872E-01
 3.500000000E+00 -1.000000000E+00 7.310408288E-01
 3.500000000E+00 1.000000000E+00 7.274984281E-01
 -5.000000000E-01 1.000000000E+00 7.108152628E-01
 -5.000000000E-01 5.000000000E-01 6.967829802E-01
 -5.000000000E-01 2.752797990E-12 6.832329318E-01
 -5.000000000E-01 -5.000000000E-01 6.963370496E-01
 -9.421907698E-13 -1.000000000E+00 7.203981275E-01
 5.000000000E-01 -1.000000000E+00 7.411583759E-01
 1.000000000E+00 -1.000000000E+00 7.289785087E-01
 1.500000000E+00 -1.000000000E+00 7.191717175E-01
 2.000000000E+00 -1.000000000E+00 7.219568847E-01
 2.500000000E+00 -1.000000000E+00 7.262603149E-01
 3.000000000E+00 -1.000000000E+00 7.285657364E-01
 3.500000000E+00 -5.000000000E-01 7.338615073E-01
 3.500000000E+00 -2.752797990E-12 7.358381359E-01
 3.500000000E+00 5.000000000E-01 7.326298281E-01
 3.000000000E+00 1.000000000E+00 7.246934125E-01
 2.500000000E+00 1.000000000E+00 7.275247480E-01
 2.000000000E+00 1.000000000E+00 7.336229991E-01
 1.500000000E+00 1.000000000E+00 7.487887863E-01
 1.000000000E+00 1.000000000E+00 7.778382798E-01
 5.000000000E-01 1.000000000E+00 7.726591924E-01
 1.733724275E-12 1.000000000E+00 7.274582037E-01
 6.854379781E-01 -3.778205022E-02 7.047883323E-01
 7.860901620E-01 -2.199498830E-02 6.444658015E-01
 9.036925540E-01 -1.022130453E-02 5.879537898E-01
 5.880354213E-01 -5.063118666E-02 7.787330642E-01
 7.081228251E-01 6.167344389E-02 9.134737565E-01
 2.886771059E-01 -7.512529722E-02 9.573646440E-01
 2.747942727E-01 7.517753828E-02 9.477809212E-01
 3.640570652E-01 8.229204766E-02 9.895605589E-01
 9.140049029E-01 3.202268502E-02 7.449183522E-01
 8.173298112E-01 4.467464858E-02 8.293530814E-01
 5.898718192E-01 7.433175682E-02 1.028815777E+00
 4.084179280E-01 -6.945036082E-02 9.821348108E-01
 4.969810397E-01 8.257221790E-02 1.035986016E+00
 1.782619630E+00 -5.247238477E-01 7.272151450E-01
 1.777514211E+00 6.453289863E-01 7.448721651E-01
 3.031167479E+00 2.156878285E-01 7.391023890E-01
 7.573582191E-01 -6.456388869E-01 7.377259406E-01
 4.950003531E-01 -6.238498542E-02 8.806631819E-01
 3.395884152E-01 -6.729118153E-01 7.652343792E-01
 1.126881579E-01 -5.577118250E-02 8.442489410E-01
 1.797655386E-01 -6.120781356E-02 8.876275771E-01
 7.371297307E-01 6.371956781E-01 8.280543403E-01
 3.336977126E-01 6.153101950E-01 8.148697640E-01
 1.214350005E-01 6.085585875E-02 8.513693843E-01
 1.800848891E-01 6.900333145E-02 8.983357862E-01
 2.734867571E+00 -5.326719127E-01 7.335878725E-01
 1.205230461E+00 6.360426369E-01 7.623885897E-01
 9.943110321E-01 3.204529501E-01 7.601096899E-01
 1.246298005E+00 -6.366994471E-01 7.154652605E-01
 1.504371251E+00 -2.756200642E-01 7.253107353E-01
 2.239998283E+00 -5.761530462E-01 7.310430225E-01
 2.024627462E+00 -1.903991302E-01 7.357893349E-01
 2.420281077E+00 -1.842563865E-01 7.380498018E-01
 2.184685864E+00 1.583815014E-01 7.424619011E-01
 1.828087645E+00 8.803781150E-02 7.388266094E-01
 -2.708721219E-01 -2.371256370E-01 6.769199793E-01
 -1.461761271E-01 -6.010108451E-01 7.148345295E-01
 1.361308688E-01 -3.694668669E-01 7.652273753E-01
 -2.648926559E-01 2.018769182E-01 6.727760590E-01
 -1.217849858E-01 6.449930609E-01 7.214685541E-01
 2.429511896E-02 3.302067620E-01 7.391125649E-01
 4.772749189E-02 4.195361220E-02 7.459373714E-01
 2.238969719E+00 5.543548171E-01 7.406784651E-01
 2.745989234E+00 5.960460058E-01 7.361202487E-01
 -2.348672616E-01 -1.623034550E-02 6.549357744E-01
 -1.179281712E-01 -1.442887701E-01 6.524320153E-01
 6.253483386E-02 -4.095619803E-02 7.954273005E-01
 -7.236102565E-02 -3.067321214E-01 7.005997620E-01
 -2.533093260E-03 -1.709937601E-01 6.941397863E-01
 1.791347377E-01 -2.318072973E-01 8.257439739E-01
 3.463602098E-01 -7.050675696E-02 9.915505801E-01
 2.395245248E-01 -6.811253946E-02 9.274452493E-01
 2.121580251E-01 -6.692265153E-02 9.084911067E-01
 2.623756489E-01 -6.894194480E-02 9.427712634E-01
 -3.500160508E-02 -9.846293708E-02 6.227211533E-01
 2.978970387E-02 -2.953747310E-02 7.253493717E-01
 -1.073678951E-01 -2.505541273E-02 5.937816152E-01
 3.009560987E-02 -1.065607899E-01 7.103277579E-01
 3.109371481E+00 -2.612576025E-01 7.372527281E-01
 -4.885766621E-02 -3.974878509E-02 5.445669773E-01
 -2.440357030E-03 -6.173331856E-02 6.216203889E-01
 1.070037284E-02 -1.675228023E-02 6.005722812E-01
 3.764993312E-02 -6.995655708E-02 7.407396363E-01
 4.451794561E-02 -3.691191330E-02 7.665796654E-01
 7.832717222E-02 -9.023101593E-02 7.962460709E-01
 1.440732260E-01 -5.781184605E-02 8.660026688E-01
 7.940773843E-02 -4.820657858E-02 8.146574254E-01
 8.129133818E-02 -1.423900427E-01 7.721732513E-01
 1.299705374E-01 -1.077959423E-01 8.360481957E-01
 2.562885435E+00 2.039378052E-01 7.417276098E-01
 -1.844697580E-02 -2.723734620E-02 4.885717571E-01
 3.641900345E-03 -1.432216491E-02 5.174428351E-01
 -4.362390162E-02 3.044437576E-03 4.853680832E-01
 3.984062986E-03 -3.808776221E-02 6.045952842E-01
 2.037722925E-02 -2.204608889E-02 6.761303402E-01
 2.508840849E-02 -4.576090657E-02 7.069089431E-01
 1.629896989E-02 -3.060757568E-02 6.659596344E-01
 4.674084420E-02 -5.201157957E-02 7.705942901E-01
 6.557075180E-02 -5.972278671E-02 7.961323023E-01
 1.093397843E-01 -7.256894945E-02 8.408798956E-01
 1.698755101E+00 -1.593791667E-01 7.318814344E-01
 1.524799529E+00 6.311788586E-02 7.298217255E-01
 1.294962443E+00 -1.728493355E-01 7.133221959E-01
 1.564756589E+00 3.224776000E-01 7.440967012E-01
 1.294516041E+00 2.116504340E-01 7.302016105E-01
 1.483060680E+00 6.005618809E-01 7.507203100E-01
 1.309301496E+00 1.115343135E-02 7.135848563E-01
 1.168960584E+00 -5.634943537E-03 6.917847735E-01
 1.138381589E+00 -1.269210565E-01 6.916356183E-01
 9.686253101E-01 -1.521183182E-02 5.852693933E-01
 1.086918784E+00 -6.383756534E-02 6.715544933E-01
 1.054391324E+00 -1.868301688E-01 6.792519313E-01
 1.085805872E+00 3.247987198E-02 6.785884061E-01
 9.826598438E-01 2.051462352E-02 6.554400642E-01
 1.139038103E+00 -2.633623215E-01 6.975125183E-01
 9.880978289E-01 -2.738873415E-01 6.824301605E-01
 8.997645122E-01 -1.586674711E-01 6.604321984E-01
 8.335122293E-01 -1.646878346E-02 6.168605092E-01
 8.709931452E-01 -1.547383682E-02 6.013604918E-01
 8.115428761E-01 -1.984925284E-02 6.306908436E-01
 8.447536234E-01 -2.732066630E-01 6.909121704E-01
 7.746527245E-01 -1.745817808E-01 6.957558378E-01
 7.401155978E-01 -2.892015386E-02 6.710000551E-01
 7.593280673E-01 -2.666334745E-02 6.587751281E-01
 7.126449479E-01 -2.835264792E-01 7.310426726E-01
 6.538990240E-01 -1.833527958E-01 7.489338994E-01
 6.427307568E-01 -4.328763769E-02 7.340748154E-01
 5.884764229E-01 -2.574519777E-01 7.835736207E-01
 5.386812507E-01 -1.889677165E-01 8.168738130E-01
 5.480634345E-01 -5.904715281E-02 8.175392493E-01
 5.223017874E-01 -6.179966243E-02 8.466369817E-01
 4.893472264E-01 -2.660634500E-01 8.377319859E-01
 4.177624926E-01 -2.093258926E-01 8.883845313E-01
 4.441805244E-01 -6.594564318E-02 9.459705889E-01
 7.071983457E-01 -1.245383064E-01 7.138064351E-01
 8.435697387E-01 -1.180501687E-01 6.580528434E-01
 3.696030156E-01 -2.942220216E-01 8.573629312E-01
 3.020000435E-01 -1.953928870E-01 8.940037137E-01
 5.906434694E-01 -1.360409302E-01 7.809943697E-01
 9.987366036E-01 -9.201261536E-02 6.426109116E-01
 4.853019855E-01 -1.450002145E-01 8.674246093E-01
 3.705892724E-01 -1.536761393E-01 9.288285292E-01
 5.442061186E-01 -4.115044564E-01 7.813045304E-01
 1.176414327E+00 9.473765279E-02 7.080097343E-01
 1.066780424E+00 1.162923933E-01 7.046211549E-01
 1.050951079E+00 -1.937734969E-02 6.449528565E-01
 2.553049669E-01 -2.936828607E-01 8.407401722E-01
 2.273051520E-01 -1.565277016E-01 8.758778795E-01
 1.086729894E+00 -4.274068264E-01 7.030459333E-01
 1.020889632E+00 6.084154098E-02 6.816112569E-01
 9.913368049E-01 1.230371962E-01 7.183130083E-01
 8.652594294E-01 3.947094362E-02 7.936531231E-01
 1.036435459E+00 1.890133042E-02 6.475864424E-01
 9.730510126E-01 7.192050494E-02 7.097493034E-01
 9.236277463E-01 1.077789391E-01 7.563603340E-01
 9.524029503E-01 2.564094577E-02 7.012305207E-01
 9.353517816E-01 1.674657798E-01 7.571523087E-01
 8.531913630E-01 1.525322930E-01 8.038024476E-01
 7.533739668E-01 5.456942308E-02 8.772452556E-01
 7.813740877E-01 5.549490227E-02 8.548980109E-01
 1.021836648E+00 2.046929816E-01 7.330843197E-01
 1.120156856E+00 2.223074949E-01 7.240029095E-01
 8.654823838E-01 8.995400444E-02 7.970842284E-01
 8.840051387E-01 2.410383161E-01 7.830110160E-01
 7.867683731E-01 2.183715611E-01 8.383505741E-01
 6.477656392E-01 7.078802939E-02 9.742030615E-01
 6.239229669E-01 7.282980865E-02 9.964410637E-01
 7.726415768E-01 1.440637186E-01 8.558327914E-01
 7.109504711E-01 1.856870711E-01 8.966431927E-01
 7.064840999E-01 2.576338368E-01 8.846840566E-01
 6.182774303E-01 2.168447827E-01 9.457766628E-01
 4.289064362E-01 8.349813435E-02 1.015981503E+00
 5.424011512E-01 8.130902462E-02 1.041417483E+00
 5.665276232E-01 8.186012596E-02 1.036716762E+00
 4.532902570E-01 8.506141012E-02 1.023888848E+00
 6.300282727E-01 3.892564807E-01 8.871299539E-01
 5.076760213E-01 2.766539093E-01 9.411091760E-01
 5.276394075E-01 1.776239007E-01 9.882575470E-01
 4.347374276E-01 2.105388276E-01 9.585024888E-01
 4.125430387E-01 2.955612077E-01 9.186335141E-01
 3.266905116E-01 2.362115329E-01 9.142001601E-01
 2.272216538E-01 7.116389252E-02 9.252334156E-01
 1.959932751E-01 6.702612641E-02 9.079535983E-01
 5.981896389E-01 1.499853001E-01 9.929588769E-01
 2.986038353E-01 3.602410525E-01 8.535174939E-01
 3.697212262E-01 1.636821381E-01 9.573953767E-01
 3.159218590E-01 8.356408944E-02 9.676932487E-01
 3.404087192E-01 8.199094982E-02 9.798447843E-01
 2.830473767E-01 1.643578060E-01 9.161719135E-01
 2.411670828E-01 2.389764541E-01 8.653371095E-01
 1.934517750E-01 1.698534207E-01 8.666195247E-01
 4.673411854E-01 1.504101718E-01 9.951149079E-01
 7.157445457E-01 1.194281260E-01 9.039433640E-01
 5.553427723E-01 1.302855891E-01 1.015717567E+00
 2.419361224E-01 1.298327343E-01 9.132702083E-01
 3.247097933E-01 1.354101797E-01 9.536201875E-01
 4.750890908E-01 4.130226174E-01 8.839788839E-01
 6.604350038E-01 1.377049666E-01 9.514428287E-01
 6.776363927E-01 1.004910808E-01 9.419328351E-01
 6.705710633E-01 6.798712941E-02 9.522535892E-01
 6.243130427E-01 1.116706960E-01 9.888741663E-01
 6.513823188E-01 1.028220444E-01 9.663836051E-01
 8.994646757E-01 7.076721265E-02 7.678314626E-01
 8.888012411E-01 3.391366396E-02 7.724390905E-01
 7.583537588E-01 9.948529972E-02 8.722358620E-01
 8.110068389E-01 9.581077847E-02 8.351279933E-01
 1.468906478E-01 5.076005981E-01 7.700910417E-01
 8.075189198E-01 3.517477238E-01 8.237903607E-01
 1.470674501E-01 2.424412256E-01 8.079496163E-01
 8.573978418E-02 1.681392805E-01 7.663724529E-01
 1.453228635E-02 2.155024282E-02 6.108896932E-01
 7.369876242E-02 4.986304560E-02 7.944926686E-01
 1.474825543E-01 1.273481321E-01 8.494971309E-01
 -5.519016536E-02 2.007183536E-01 6.756324516E-01
 9.472912365E-03 1.254131406E-01 6.796738154E-01
 8.382760579E-01 7.421917383E-02 8.159384404E-01
 8.397634077E-01 4.111246065E-02 8.144263938E-01
 7.415692061E-01 5.743672864E-02 8.866418666E-01
 7.266306488E-01 8.599911734E-02 8.980466403E-01
 6.841566842E-01 6.746086255E-02 9.371106547E-01
 1.167082663E+00 3.860185579E-01 7.494757191E-01
 8.511974116E-01 4.225333892E-02 8.065144099E-01
 8.571063933E-01 5.923877652E-02 8.023626297E-01
 8.793302741E-01 5.300271505E-02 7.836357853E-01
 8.764795095E-01 3.588042774E-02 7.820964539E-01
 6.350689706E-01 6.997875172E-02 9.852379383E-01
 6.353440912E-01 8.542399586E-02 9.829704049E-01
 6.118687830E-01 8.676852040E-02 1.006383913E+00
 5.901375132E-01 1.123830534E-01 1.012811731E+00
 6.600511423E-01 8.198196057E-02 9.605421565E-01
 6.982390691E-01 8.389084372E-02 9.232170254E-01
 7.298934134E-01 6.783046393E-02 8.961551561E-01
 9.126707521E-01 -4.441425827E-01 7.043132972E-01
 1.000611374E+00 -6.307775486E-01 7.157857956E-01
 7.504662680E-01 7.101641935E-02 8.798042921E-01
 7.774540843E-01 7.509483284E-02 8.594679973E-01
 7.983757907E-01 6.417821157E-02 8.442973976E-01
 7.924673240E-01 4.959869558E-02 8.467303051E-01
 8.036593440E-01 4.862011761E-02 8.380074659E-01
 8.298191553E-01 4.522986676E-02 8.214572216E-01
 7.656505048E-01 5.721117616E-02 8.675841665E-01
 5.641661086E-01 1.054652757E-01 1.027809362E+00
 5.388092439E-01 1.019485569E-01 1.030837226E+00
 5.167674297E-01 7.812049982E-02 1.040329131E+00
 5.109486879E-01 1.242579282E-01 1.016476601E+00
 4.793372219E-01 1.150659576E-01 1.017045998E+00
 4.432811473E-01 1.187382410E-01 1.005045303E+00
 4.219805269E-01 1.550382034E-01 9.813308598E-01
 3.973436477E-01 1.212386203E-01 9.898238036E-01
 3.911109049E-01 8.085368244E-02 1.001407769E+00
 5.072347660E-01 7.894983924E-02 1.038309329E+00
 5.128970141E-01 9.314730991E-02 1.033699586E+00
 4.046604320E-01 8.375587196E-02 1.005485081E+00
 4.170629183E-01 8.154454590E-02 1.010399026E+00
 4.181597942E-01 9.778353084E-02 1.007535530E+00
 4.409597050E-01 9.491247885E-02 1.017319675E+00
 6.984796767E-01 6.573833169E-02 9.229927867E-01
 -1.440120113E-01 8.857531401E-02 6.364596957E-01
 5.793016759E-01 7.583349154E-02 1.033306171E+00
 6.781308703E-01 8.036237541E-02 9.427883042E-01
 4.573885004E-01 1.002619157E-01 1.020171787E+00
 4.713629123E-01 8.915429877E-02 1.027512482E+00
 5.535440069E-01 9.083850950E-02 1.036689061E+00
 5.351889614E-01 6.109569942E-01 8.465032516E-01
 2.961323892E-01 -4.357854284E-01 8.013116980E-01
 5.352881882E-01 -6.825137897E-01 7.663926375E-01
 1.287638655E+00 -3.814902829E-01 7.140396856E-01
 1.466276490E-01 -1.616991113E-01 8.262566246E-01
 1.781422202E-01 -1.080191774E-01 8.719987822E-01
 2.235641982E-01 -1.085712613E-01 9.055911047E-01
 2.735202457E-01 -1.265594006E-01 9.196483966E-01
 3.236599114E-01 -1.137226703E-01 9.518859066E-01
 3.125057375E-01 -6.981521873E-02 9.735452248E-01
 3.643505224E-01 -1.076816218E-01 9.687339211E-01
 3.787578233E-01 -7.372010377E-02 9.951232990E-01
 4.047752554E-01 -1.202519895E-01 9.490785174E-01
 4.469476092E-01 -1.099918173E-01 9.199239315E-01
 4.844821192E-01 -9.967230829E-02 8.796160785E-01
 4.714412227E-01 -6.721788755E-02 9.093508304E-01
 5.289455890E-01 -1.213711087E-01 8.285773011E-01
 5.662471854E-01 -9.615009100E-02 7.986749516E-01
 6.025809416E-01 -9.140443447E-02 7.702045763E-01
 6.141048962E-01 -4.751202402E-02 7.559467897E-01
 6.412204637E-01 -1.182249657E-01 7.459169877E-01
 6.754057973E-01 -8.729278184E-02 7.221275318E-01
 7.166135996E-01 -7.581483508E-02 6.969975997E-01
 7.084164505E-01 -3.317723496E-02 6.892823948E-01
 7.565608328E-01 -1.040920757E-01 6.834327244E-01
 7.869816301E-01 -7.430423838E-02 6.623010948E-01
 5.163232319E-01 -9.210261813E-02 8.559969359E-01
 6.275597037E-01 -4.841071480E-02 7.463469286E-01
 6.371959004E-01 -6.189423767E-02 7.425427317E-01
 6.599594395E-01 -5.798951800E-02 7.279336607E-01
 6.857615080E-01 -6.165461995E-02 7.111419998E-01
 2.551593255E-01 -9.884565106E-02 9.305889248E-01
 2.301973342E-01 -8.156845351E-02 9.189644758E-01
 2.025871050E-01 -8.477733265E-02 8.995244433E-01
 4.836675300E-01 -6.258319986E-02 8.950507954E-01
 2.858686552E-01 -9.733809718E-02 9.489710067E-01
 3.263230222E-01 -9.037370832E-02 9.754699245E-01
 3.897312128E-01 -9.746638854E-02 9.784301733E-01
 3.682555295E-01 -8.747180206E-02 9.886255063E-01
 4.186674823E-01 -9.599352265E-02 9.603316523E-01
 4.205429323E-01 -7.827511239E-02 9.675151954E-01
 5.788529888E-01 -7.699794857E-02 7.895907382E-01
 5.370511069E-01 -7.995263927E-02 8.303510066E-01
 7.566161803E-01 -6.530727487E-02 6.739488995E-01
 7.795716085E-01 -4.947242284E-02 6.564262896E-01
 8.095786543E-01 -4.906396652E-02 6.438635918E-01
 7.564986635E-01 -4.235667767E-02 6.655988659E-01
 7.281202676E-01 -4.610624826E-02 6.827307189E-01
 1.541547760E-01 -8.667453277E-02 8.685025055E-01
 1.785207626E-01 -8.075139458E-02 8.855392721E-01
 1.946434626E-01 -6.877473913E-02 8.972379418E-01
 6.690561395E-01 -4.261228857E-02 7.159272914E-01
 7.237025149E-01 -2.971379471E-02 6.813997977E-01
 6.988788689E-01 -4.711875252E-02 6.978224396E-01
 6.165162966E-01 -6.489122609E-02 7.577091011E-01
 3.945062722E-01 -7.217985335E-02 9.893355180E-01
 5.093212799E-01 -7.432652115E-02 8.616684762E-01
 4.896925419E-01 -7.783175504E-02 8.864831094E-01
 5.534486168E-01 7.775670444E-02 1.042500542E+00
 1.295507949E-01 7.535241383E-01 7.551467587E-01
 5.349823350E-01 -5.877664323E-02 8.312115389E-01
 7.804841246E-02 -2.305148666E-01 7.582660425E-01
 9.739699332E-01 5.554946552E-01 7.879439567E-01
 5.283289862E-01 8.197961814E-02 1.040711998E+00
 3.777060050E-01 8.148656805E-02 9.959872440E-01
 3.741750968E-01 9.932441971E-02 9.903882527E-01
 3.535438569E-01 9.357147563E-02 9.832437292E-01
 3.313388211E-01 9.919089469E-02 9.727703419E-01
 3.083881192E-01 1.059309006E-01 9.592919495E-01
 3.584720737E-01 1.187362880E-01 9.765983263E-01
 3.002237521E-01 8.442592408E-02 9.587350766E-01
 2.808721609E-01 1.032452262E-01 9.446297837E-01
 2.503497531E-01 9.721775473E-02 9.335608008E-01
 2.190929288E-01 1.031754842E-01 9.165098741E-01
 2.514425433E-01 7.469509324E-02 9.365953932E-01
 2.839293994E-01 8.127744685E-02 9.524268929E-01
 3.008283604E-01 -6.992203190E-02 9.666395626E-01
 3.133974596E+00 6.339745962E-01 7.319084194E-01
 4.642948667E-01 -8.552000406E-02 9.145653057E-01
 7.984841142E-01 -3.231885081E-02 6.414619438E-01
 5.868007329E-01 8.915287781E-02 1.024732107E+00
 6.563829365E-01 -3.969401813E-02 7.239896799E-01
 3.133974596E+00 -6.339745962E-01 7.325786072E-01
 6.018688305E-01 -5.070062820E-02 7.666348944E-01
 5.952664252E-01 -6.590436074E-02 7.760096915E-01
 5.754099396E-01 -5.738407906E-02 7.913190982E-01
 5.591781443E-01 -7.172925380E-02 8.067806019E-01
 2.277176094E-01 -6.523263014E-02 9.185572998E-01
 7.296671190E-01 5.655410450E-02 8.964072369E-01
 7.193424771E-01 5.963598264E-02 9.047906459E-01
 1.963752825E+00 3.588651466E-01 7.461745456E-01
 4.408253693E-01 8.115141893E-02 1.021355516E+00
 6.593823696E-01 6.728103832E-02 9.636863671E-01
 2.510665665E-01 -7.786432581E-02 9.341543796E-01
 4.405095716E-01 -8.114660767E-02 9.450459863E-01
 5.604609010E-01 -5.485476536E-02 8.034347387E-01
 2.393588686E-01 7.605481760E-02 9.311286400E-01
 7.982071045E-01 -1.891085424E-02 6.375535761E-01
 2.740583426E-01 -6.856140089E-02 9.502758487E-01
 2.682283097E-01 -8.216551467E-02 9.448999167E-01
 1.350630067E-01 -7.536591740E-02 8.607654655E-01
 1.618993613E-01 -6.818163597E-02 8.760619894E-01
 1.259850095E-01 -5.942797652E-02 8.545198495E-01
 3.942597441E-01 9.556937860E-02 9.997239688E-01
 5.079912171E-01 -5.965243963E-02 8.648926018E-01
 4.556437316E-01 -6.833731943E-02 9.300691493E-01
 2.623579976E-01 7.806617517E-02 9.419018778E-01
 2.696171761E-01 8.907989420E-02 9.456194569E-01
 3.285865348E-01 8.050308191E-02 9.751326486E-01
 8.230876737E-01 -1.662204213E-02 6.231341585E-01
 8.265349083E-01 -3.117699167E-02 6.278426822E-01
 8.486880296E-01 -2.947854387E-02 6.168114124E-01
 8.421067026E-01 -5.087334441E-02 6.306980964E-01
 8.697144717E-01 -4.724225993E-02 6.191505578E-01
 8.630144626E-01 -8.640420755E-02 6.399468338E-01
 9.011102284E-01 -8.357187050E-02 6.311273421E-01
 9.345767756E-01 -6.973518307E-03 5.820463233E-01
 9.030110074E-01 -4.412126078E-02 6.109110065E-01
 9.337965510E-01 -6.135901264E-02 6.165556078E-01
 9.260009983E-01 -3.441679324E-02 6.004417142E-01
 9.538212850E-01 -3.462258989E-02 6.021739577E-01
 1.001567424E+00 -5.175663995E-02 6.230747228E-01
 9.487068829E-01 -1.028170119E-01 6.385718386E-01
 8.837304812E-01 -2.695349898E-02 6.032399702E-01
 8.919384434E-01 -1.440569376E-02 5.927573852E-01
 8.660051617E-01 -2.729758928E-02 6.100204927E-01
 8.568996810E-01 -1.733980683E-02 6.072994289E-01
 8.815519360E-01 -1.208141392E-02 5.954018233E-01
 8.460556592E-01 -1.414044363E-02 6.105547479E-01
 9.872224936E-01 -1.547961905E-01 6.612415391E-01
 1.367802138E+00 3.989601811E-01 7.478533591E-01
 6.024925274E-01 7.524415310E-02 1.020080705E+00
 6.129461931E-01 7.201200410E-02 1.009042309E+00
 7.543267322E-01 -4.116038136E-01 7.216673672E-01
 8.201913438E-01 6.159676563E-02 8.285626593E-01
 3.076484225E-01 -8.603744682E-02 9.671718490E-01
 3.291882983E-01 -7.284890791E-02 9.816636597E-01
 3.527252648E-01 7.952487251E-02 9.846507877E-01
 -5.594610253E-02 7.941311455E-02 5.928493794E-01
 -2.803379685E-02 4.552806686E-02 5.271346194E-01
 1.285626198E-02 7.482341227E-02 6.551055136E-01
 2.468499043E-02 2.990720460E-02 6.726114087E-01
 6.170075974E-02 1.018176003E-01 7.579738183E-01