TITLE     = "Visualization of the solution"
VARIABLES = "x"
"y"
"Mach"
ZONE T="Zone"
 STRANDID=0, SOLUTIONTIME=0
 Nodes=714, Elements=1213, ZONETYPE=FEQuadrilateral
 DATAPACKING=POINT
 DT=(DOUBLE DOUBLE DOUBLE )
 1.000317931E+00 5.153864040E-04 5.951403666E-01
 9.879481196E-01 2.993909176E-03 6.444792530E-01
 9.749634862E-01 5.492984317E-03 6.638831828E-01
 9.587278366E-01 8.645657450E-03 6.975678052E-01
 9.443948865E-01 1.148900669E-02 7.155057447E-01
 9.299858212E-01 1.419184729E-02 7.287533439E-01
 9.188831449E-01 1.638928242E-02 7.445476353E-01
 9.068645239E-01 1.866962947E-02 7.618101776E-01
 8.954277039E-01 2.083548903E-02 7.769947943E-01
 8.834520578E-01 2.301290445E-02 7.872225948E-01
 8.708238602E-01 2.517809905E-02 7.950356100E-01
 8.587826490E-01 2.729774453E-02 8.056926122E-01
 8.464536071E-01 2.935103513E-02 8.165319732E-01
 8.354514837E-01 3.119117022E-02 8.251503572E-01
 8.237219453E-01 3.305274993E-02 8.313279185E-01
 8.110778332E-01 3.503430635E-02 8.402216987E-01
 7.984210253E-01 3.701679036E-02 8.489881725E-01
 7.860470414E-01 3.884347528E-02 8.547155240E-01
 7.737808228E-01 4.064480215E-02 8.631797366E-01
 7.621301413E-01 4.234903678E-02 8.716395216E-01
 7.489627600E-01 4.416421428E-02 8.806983719E-01
 7.355422974E-01 4.604352266E-02 8.921075015E-01
 7.247764468E-01 4.747331887E-02 9.004990738E-01
 7.136389017E-01 4.891362041E-02 9.078003665E-01
 7.019172907E-01 5.040049180E-02 9.179002726E-01
 6.884388328E-01 5.204897746E-02 9.301449547E-01
 6.755138636E-01 5.358958617E-02 9.397456072E-01
 6.652668118E-01 5.473055691E-02 9.469906855E-01
 6.537237167E-01 5.600883812E-02 9.565582967E-01
 6.421673298E-01 5.722267181E-02 9.655427398E-01
 6.302608848E-01 5.838433281E-02 9.769536387E-01
 6.189092994E-01 5.948554352E-02 9.919673464E-01
 6.082407832E-01 6.044837460E-02 1.003843863E+00
 5.958806872E-01 6.149361283E-02 1.013293455E+00
 5.842343569E-01 6.240574643E-02 1.021039463E+00
 5.708267689E-01 6.337104738E-02 1.028797259E+00
 5.583279133E-01 6.420300901E-02 1.035181890E+00
 5.461066365E-01 6.494788826E-02 1.038143233E+00
 5.349364281E-01 6.553354859E-02 1.036972715E+00
 5.232654214E-01 6.608384848E-02 1.036676502E+00
 5.106676221E-01 6.661380827E-02 1.036858789E+00
 4.994083941E-01 6.701751798E-02 1.033465370E+00
 4.861054718E-01 6.740682572E-02 1.027284601E+00
 4.725206196E-01 6.769803911E-02 1.023288592E+00
 4.584017992E-01 6.795375049E-02 1.019391153E+00
 4.447525442E-01 6.807552278E-02 1.013758853E+00
 4.317953289E-01 6.812752038E-02 1.008905855E+00
 4.189136326E-01 6.809247285E-02 1.004573185E+00
 4.065392017E-01 6.801017374E-02 9.981839316E-01
 3.938575387E-01 6.781961769E-02 9.918776523E-01
 3.817192912E-01 6.759906560E-02 9.877709061E-01
 3.701224923E-01 6.732248515E-02 9.830242129E-01
 3.569005132E-01 6.692693383E-02 9.769068452E-01
 3.443394005E-01 6.649150699E-02 9.708560419E-01
 3.311904967E-01 6.594302505E-02 9.656532217E-01
 3.203507662E-01 6.545145810E-02 9.609730943E-01
 3.076436818E-01 6.479812413E-02 9.554852977E-01
 2.944786549E-01 6.404518336E-02 9.496444774E-01
 2.805258036E-01 6.315071136E-02 9.446814675E-01
 2.682661414E-01 6.230804697E-02 9.396030631E-01
 2.561656237E-01 6.138448045E-02 9.330839464E-01
 2.438230515E-01 6.036988273E-02 9.279084398E-01
 2.313852906E-01 5.927818641E-02 9.228135011E-01
 2.191483676E-01 5.811399966E-02 9.174773096E-01
 2.073980570E-01 5.691414699E-02 9.120872556E-01
 1.959286034E-01 5.567427352E-02 9.076406473E-01
 1.836436093E-01 5.426019430E-02 9.018179929E-01
 1.718629450E-01 5.279797688E-02 8.952309575E-01
 1.605351418E-01 5.131138116E-02 8.870233607E-01
 1.489021182E-01 4.967718944E-02 8.783925584E-01
 1.383739412E-01 4.811850935E-02 8.696359863E-01
 1.269779056E-01 4.632582143E-02 8.604836238E-01
 1.158426031E-01 4.445323721E-02 8.510715384E-01
 1.053446159E-01 4.257402197E-02 8.431450210E-01
 9.579278529E-02 4.075810313E-02 8.343727686E-01
 8.499491215E-02 3.855869547E-02 8.240179266E-01
 7.352581620E-02 3.604069352E-02 8.142053328E-01
 6.379199028E-02 3.372732550E-02 7.994101841E-01
 5.402045324E-02 3.120524622E-02 7.802732077E-01
 4.530130699E-02 2.873880789E-02 7.549621460E-01
 3.777323291E-02 2.642843500E-02 7.356638967E-01
 3.110070899E-02 2.417902276E-02 7.196510930E-01
 2.537780255E-02 2.207137272E-02 7.107470956E-01
 2.117848955E-02 2.037898265E-02 6.884260048E-01
 1.714682207E-02 1.860399917E-02 6.603677728E-01
 1.411139127E-02 1.714957878E-02 6.446083088E-01
 1.133271307E-02 1.568994857E-02 6.215273712E-01
 9.302445687E-03 1.453108061E-02 6.142136675E-01
 7.511375472E-03 1.342345774E-02 5.969926971E-01
 5.866952706E-03 1.230817288E-02 5.725360859E-01
 3.727173898E-03 1.066054497E-02 5.241172950E-01
 1.887098886E-03 8.972945623E-03 4.541050030E-01
 3.557468299E-04 7.220664527E-03 3.956714070E-01
 -1.112585189E-03 4.796898458E-03 2.673467569E-01
 -1.724570175E-03 2.979806159E-03 1.123684235E-01
 -1.917205518E-03 1.499100588E-03 7.618640003E-03
 -1.820551581E-03 -1.329622610E-04 1.525276519E-01
 -1.378759625E-03 -1.833872055E-03 2.670728558E-01
 -4.235180095E-04 -3.842789447E-03 3.463866895E-01
 1.023675082E-03 -5.899760406E-03 4.394233815E-01
 3.064584220E-03 -8.062806912E-03 5.299120932E-01
 4.897997715E-03 -9.650474414E-03 6.039035845E-01
 6.978122052E-03 -1.120769139E-02 6.477113166E-01
 8.651168086E-03 -1.232571900E-02 6.701640661E-01
 1.075132005E-02 -1.360521559E-02 6.705449138E-01
 1.314117201E-02 -1.493108831E-02 6.810624005E-01
 1.643064618E-02 -1.658817753E-02 7.077683581E-01
 1.945503615E-02 -1.796721481E-02 7.350813105E-01
 2.332489565E-02 -1.958335750E-02 7.447256484E-01
 2.877743356E-02 -2.162450179E-02 7.549541219E-01
 3.464724869E-02 -2.360076271E-02 7.704081396E-01
 4.182161763E-02 -2.578343824E-02 7.818716034E-01
 4.949278384E-02 -2.788071521E-02 7.946811135E-01
 5.843657628E-02 -3.010358475E-02 8.090912386E-01
 6.730253249E-02 -3.210943192E-02 8.210850809E-01
 7.754213363E-02 -3.424371406E-02 8.312243069E-01
 8.751185238E-02 -3.616589680E-02 8.406445414E-01
 9.787920117E-02 -3.800670058E-02 8.478817027E-01
 1.088742688E-01 -3.983665258E-02 8.540719830E-01
 1.203945428E-01 -4.162746668E-02 8.596078220E-01
 1.321054548E-01 -4.332802445E-02 8.652641723E-01
 1.427678466E-01 -4.477728158E-02 8.709998690E-01
 1.540011764E-01 -4.622538388E-02 8.769430645E-01
 1.660017073E-01 -4.767530411E-02 8.830231958E-01
 1.776532978E-01 -4.898732901E-02 8.894906002E-01
 1.896833777E-01 -5.026270077E-02 8.965867341E-01
 2.004230767E-01 -5.133223161E-02 9.037860650E-01
 2.116797715E-01 -5.236928165E-02 9.097975075E-01
 2.240544260E-01 -5.344244838E-02 9.166294242E-01
 2.367724627E-01 -5.443743616E-02 9.248955094E-01
 2.491098344E-01 -5.531840026E-02 9.333098292E-01
 2.616208196E-01 -5.612118542E-02 9.421469457E-01
 2.727232277E-01 -5.674632639E-02 9.504881788E-01
 2.855535448E-01 -5.738826469E-02 9.586203323E-01
 2.980214059E-01 -5.790920556E-02 9.673588146E-01
 3.108991683E-01 -5.833552778E-02 9.751410687E-01
 3.226079643E-01 -5.862259865E-02 9.825102900E-01
 3.352616131E-01 -5.882390216E-02 9.889256351E-01
 3.460975289E-01 -5.889032409E-02 9.942222188E-01
 3.576126993E-01 -5.887342989E-02 9.972069892E-01
 3.685044050E-01 -5.874686688E-02 9.986193268E-01
 3.793734610E-01 -5.855431035E-02 9.990287699E-01
 3.909892738E-01 -5.820474774E-02 9.961627654E-01
 4.040278196E-01 -5.768809468E-02 9.888282891E-01
 4.164520204E-01 -5.707623065E-02 9.794830447E-01
 4.292834103E-01 -5.629798770E-02 9.665678265E-01
 4.417903125E-01 -5.541381240E-02 9.519337503E-01
 4.541316628E-01 -5.443658307E-02 9.375803448E-01
 4.662148952E-01 -5.335085467E-02 9.218402164E-01
 4.785043299E-01 -5.214456841E-02 9.046554458E-01
 4.901097417E-01 -5.090742186E-02 8.872389328E-01
 5.026987195E-01 -4.949867353E-02 8.702851809E-01
 5.164826512E-01 -4.787074775E-02 8.545128696E-01
 5.300459862E-01 -4.617734998E-02 8.383364780E-01
 5.432110429E-01 -4.445289820E-02 8.225631475E-01
 5.562773347E-01 -4.273413494E-02 8.088926465E-01
 5.694485903E-01 -4.091535136E-02 7.955817310E-01
 5.824688077E-01 -3.910505772E-02 7.835898961E-01
 5.947192907E-01 -3.737364337E-02 7.721604647E-01
 6.072065830E-01 -3.558710590E-02 7.607294242E-01
 6.213554144E-01 -3.356480971E-02 7.496321941E-01
 6.358066797E-01 -3.149804845E-02 7.386520001E-01
 6.500886083E-01 -2.943462133E-02 7.278353294E-01
 6.632393599E-01 -2.755387314E-02 7.181370791E-01
 6.767872572E-01 -2.564362064E-02 7.103505286E-01
 6.891400814E-01 -2.390258387E-02 7.025150974E-01
 7.015386820E-01 -2.217355184E-02 6.942126188E-01
 7.160376906E-01 -2.015271597E-02 6.849285375E-01
 7.289370894E-01 -1.837864146E-02 6.760068244E-01
 7.408394814E-01 -1.679872535E-02 6.701845992E-01
 7.538517714E-01 -1.510285679E-02 6.641440259E-01
 7.657866478E-01 -1.351949386E-02 6.552330770E-01
 7.787827849E-01 -1.188422181E-02 6.470823920E-01
 7.905484438E-01 -1.045132242E-02 6.414163884E-01
 8.034961820E-01 -8.944171481E-03 6.361189570E-01
 8.145920038E-01 -7.697650697E-03 6.299870185E-01
 8.259713650E-01 -6.436459720E-03 6.228229871E-01
 8.384506702E-01 -5.126214121E-03 6.152697018E-01
 8.509773612E-01 -3.917791881E-03 6.085923930E-01
 8.629465699E-01 -2.837661188E-03 6.027194091E-01
 8.745096922E-01 -1.899353578E-03 5.976744907E-01
 8.862013817E-01 -1.054533292E-03 5.940653907E-01
 8.992145061E-01 -2.550889913E-04 5.898324736E-01
 9.091456532E-01 2.606040216E-04 5.864867132E-01
 9.194511771E-01 6.878461572E-04 5.854660975E-01
 9.289234877E-01 9.845878230E-04 5.835198623E-01
 9.379608631E-01 1.184854424E-03 5.832950971E-01
 9.498308301E-01 1.335154520E-03 5.836762047E-01
 9.625486135E-01 1.353023341E-03 5.834271376E-01
 9.767298698E-01 1.198481885E-03 5.772954986E-01
 9.893497825E-01 9.081577300E-04 5.905419277E-01
 -5.000000000E-01 -1.000000000E+00 7.112122533E-01
 3.500000000E+00 -1.000000000E+00 7.306767669E-01
 3.500000000E+00 1.000000000E+00 7.277616546E-01
 -5.000000000E-01 1.000000000E+00 7.112256850E-01
 -5.000000000E-01 5.000000000E-01 6.977524214E-01
 -5.000000000E-01 2.752797990E-12 6.858866422E-01
 -5.000000000E-01 -5.000000000E-01 6.979556247E-01
 -9.421907698E-13 -1.000000000E+00 7.227234439E-01
 5.000000000E-01 -1.000000000E+00 7.416894541E-01
 1.000000000E+00 -1.000000000E+00 7.275764002E-01
 1.500000000E+00 -1.000000000E+00 7.175652359E-01
 2.000000000E+00 -1.000000000E+00 7.209613185E-01
 2.500000000E+00 -1.000000000E+00 7.255626425E-01
 3.000000000E+00 -1.000000000E+00 7.278878180E-01
 3.500000000E+00 -5.000000000E-01 7.335877874E-01
 3.500000000E+00 -2.752797990E-12 7.355069274E-01
 3.500000000E+00 5.000000000E-01 7.325366617E-01
 3.000000000E+00 1.000000000E+00 7.251288109E-01
 2.500000000E+00 1.000000000E+00 7.278103563E-01
 2.000000000E+00 1.000000000E+00 7.334556371E-01
 1.500000000E+00 1.000000000E+00 7.481177761E-01
 1.000000000E+00 1.000000000E+00 7.745484112E-01
 5.000000000E-01 1.000000000E+00 7.744713858E-01
 1.733724275E-12 1.000000000E+00 7.295915690E-01
 6.840686071E-01 -3.813567605E-02 7.073354826E-01
 7.872542475E-01 -2.497789897E-02 6.469262347E-01
 9.058118139E-01 -9.867177135E-03 5.939901064E-01
 6.945289741E-01 6.057583240E-02 9.240201974E-01
 2.777176799E-01 -6.637630220E-02 9.492434745E-01
 2.722597095E-01 7.332162281E-02 9.396047970E-01
 3.627350834E-01 7.862080817E-02 9.778384097E-01
 9.162523569E-01 3.093275719E-02 7.512729986E-01
 7.927969634E-01 5.447716081E-02 8.498844705E-01
 5.768890492E-01 -5.325010283E-02 7.915012907E-01
 6.051804501E-01 7.217341084E-02 1.000776986E+00
 4.107698098E-01 -6.814183615E-02 9.779901351E-01
 5.072134156E-01 8.006851146E-02 1.029463521E+00
 1.843854808E+00 -5.909086791E-01 7.273687527E-01
 1.773500602E+00 6.377796703E-01 7.447202712E-01
 3.031176751E+00 2.156834656E-01 7.387450729E-01
 7.215088609E-01 -6.410898506E-01 7.400043538E-01
 4.849815407E-01 -6.394827192E-02 8.936136025E-01
 7.415737531E-01 5.047023044E-01 8.368585975E-01
 2.478007290E-01 6.866724240E-01 7.747977367E-01
 1.186697829E-01 5.451711971E-02 8.522816128E-01
 1.758208616E-01 6.817833671E-02 8.948361308E-01
 2.734844997E+00 -5.326945833E-01 7.336375025E-01
 1.166291562E+00 6.066610491E-01 7.642110948E-01
 9.964781703E-01 3.388932043E-01 7.593423869E-01
 8.558971273E-01 4.047434500E-02 8.076722371E-01
 1.256308571E+00 -6.404793670E-01 7.166829639E-01
 1.494392603E+00 -2.352641638E-01 7.254894786E-01
 2.215442195E-01 -5.874769194E-01 7.646253102E-01
 8.137260693E-02 -4.548669908E-02 8.278754915E-01
 1.359682982E-01 -5.379138476E-02 8.625292353E-01
 1.956269114E-01 -5.932126793E-02 8.972335503E-01
 2.250184362E+00 -5.872146730E-01 7.311486757E-01
 1.986676221E+00 -2.067461574E-01 7.351852995E-01
 2.414052092E+00 -1.854802568E-01 7.380960649E-01
 2.184610293E+00 1.582012755E-01 7.416803596E-01
 1.797552571E+00 1.347406315E-01 7.389799360E-01
 -2.710200435E-01 -2.547541756E-01 6.811324729E-01
 -1.601531911E-01 -5.728505991E-01 7.118886998E-01
 -2.559965428E-01 2.353891074E-01 6.778721336E-01
 -1.298937534E-01 6.784438554E-01 7.227035108E-01
 2.593590872E-02 3.297010544E-01 7.335548580E-01
 4.654058116E-02 3.785117218E-02 7.591053229E-01
 2.224965078E+00 5.668411219E-01 7.401265470E-01
 2.743659386E+00 5.981251958E-01 7.359463796E-01
 -2.509534698E-01 -9.558942102E-04 6.581078319E-01
 -1.421241986E-01 -1.290908965E-01 6.523222654E-01
 3.230409110E-02 -3.714320362E-01 7.368663935E-01
 2.810308325E-01 -3.196968099E-01 8.325804515E-01
 3.534212164E-01 -6.994973561E-02 9.884416959E-01
 3.178492262E-01 -7.013677302E-02 9.733825352E-01
 -1.345135869E-01 1.180393094E-01 6.439374661E-01
 -1.058583518E-01 3.207609574E-03 5.998721306E-01
 -5.445707376E-02 -6.590795802E-02 5.936010439E-01
 4.456793707E-02 -3.352625567E-02 7.746271277E-01
 2.517605351E-02 -2.691901955E-02 7.212847557E-01
 -4.972905137E-02 -1.501733846E-01 6.642065027E-01
 3.658303542E-03 -9.434151426E-02 6.714255250E-01
 2.739466664E-02 -1.994905997E-01 7.252605137E-01
 -1.681505879E-02 -5.117997212E-02 5.756589866E-01
 1.051690881E-02 -1.729517845E-02 6.263108963E-01
 -5.490790127E-02 -1.249912033E-02 5.289783328E-01
 6.807442583E-02 -1.152088604E-01 7.687888351E-01
 1.144146630E-01 -1.565225864E-01 8.027706199E-01
 1.150166360E-01 -9.999922894E-02 8.292534895E-01
 1.105783491E-01 -5.288573140E-02 8.472150631E-01
 1.723911039E-01 -1.153785560E-01 8.600912014E-01
 2.419171925E-01 -6.714492637E-02 9.249351761E-01
 1.871886495E-01 -1.806293544E-01 8.421081360E-01
 2.289067049E-01 -1.371991487E-01 8.864097245E-01
 1.229181148E-01 -2.564427141E-01 7.852416740E-01
 2.113800782E-01 -1.001430288E-01 8.934170210E-01
 2.164622746E-01 -6.474518896E-02 9.084396240E-01
 3.109358855E+00 -2.612775180E-01 7.371441123E-01
 1.848183771E-02 -5.808202960E-02 6.729652887E-01
 4.827603271E-02 -7.548596492E-02 7.532464818E-01
 5.922325415E-02 -4.065594411E-02 7.974768338E-01
 2.523877796E-01 -1.030473411E-01 9.175750697E-01
 2.810334840E-01 -1.397871687E-01 9.107396552E-01
 2.536461071E-01 -2.034268797E-01 8.673311661E-01
 3.291549933E-01 -2.005966472E-01 8.940858078E-01
 3.995794540E-01 -2.615692805E-01 8.647368635E-01
 4.418325388E-01 -1.999896592E-01 8.749295123E-01
 4.478390305E-01 -6.706178260E-02 9.384551522E-01
 5.022469675E-01 -2.750761903E-01 8.209860948E-01
 5.447788458E-01 -1.780367289E-01 8.146775112E-01
 6.273071667E-01 -4.763367518E-02 7.476889707E-01
 5.391908708E-01 -5.531583201E-02 8.286053915E-01
 6.122026903E-01 -2.352925050E-01 7.674249739E-01
 6.484388778E-01 -1.545587896E-01 7.452040739E-01
 7.350851320E-01 -2.735863864E-02 6.751542908E-01
 7.101162424E-01 -2.513149769E-01 7.206451962E-01
 7.515297209E-01 -1.563501761E-01 6.959605726E-01
 8.106125870E-01 -2.215878292E-01 6.895688828E-01
 9.696365005E-01 -1.212101463E-02 5.886056824E-01
 8.469023518E-01 -1.321692969E-02 6.149340799E-01
 8.224453237E-01 -1.595542675E-02 6.283164993E-01
 8.551945847E-01 -1.662812687E-01 6.671086363E-01
 9.154481707E-01 -2.279973888E-01 6.763024428E-01
 9.627415234E-01 -1.325503534E-01 6.507326896E-01
 1.011212224E+00 -1.929116751E-01 6.719571891E-01
 1.067124459E+00 -1.294812998E-01 6.707471894E-01
 1.132746368E+00 -2.108570271E-01 6.927330128E-01
 1.145239642E+00 -1.038871475E-01 6.904065252E-01
 9.919420435E-01 -3.356804252E-01 6.955056392E-01
 1.103201216E+00 1.572895827E-03 6.795566510E-01
 1.229545175E+00 1.174065353E-02 7.071704370E-01
 1.144097252E+00 1.097443443E-01 7.098955537E-01
 1.313069039E+00 1.595008094E-01 7.263323745E-01
 8.931383825E-01 -7.889796217E-02 6.318482976E-01
 9.369330527E-01 -1.008479824E-02 5.898140413E-01
 4.553301773E-01 -4.083276160E-01 8.040720052E-01
 7.947230282E-01 -9.716595755E-02 6.677786621E-01
 3.840802485E-01 -1.372832764E-01 9.330080808E-01
 6.971815277E-01 -1.122218840E-01 7.139680766E-01
 1.415886803E+00 -2.389209023E-02 7.228040785E-01
 5.954254481E-01 -1.191052409E-01 7.756802427E-01
 4.914942924E-01 -1.344065412E-01 8.569792913E-01
 1.006127913E+00 -7.989137522E-02 6.458062467E-01
 4.927980907E-01 -6.311044064E-01 7.716298117E-01
 1.174098835E+00 2.832207747E-01 7.343197502E-01
 1.375174766E+00 3.802609465E-01 7.421751331E-01
 1.273993804E+00 -2.064963972E-01 7.115923331E-01
 1.066596566E+00 6.251572263E-02 6.899058246E-01
 9.667575274E-01 2.282016291E-02 6.874470754E-01
 1.048336004E+00 1.796831404E-01 7.208791347E-01
 8.860910466E-01 2.108902250E-01 7.836961868E-01
 9.569555425E-01 1.439208312E-01 7.400000957E-01
 9.991325795E-01 8.836248779E-02 7.029194089E-01
 8.277262783E-01 3.442666676E-01 8.112682315E-01
 7.326715861E-01 2.566662723E-01 8.629923092E-01
 6.500963017E-01 6.769233395E-02 9.561109302E-01
 7.444412891E-01 5.815485182E-02 8.841905028E-01
 7.982651462E-01 1.537645241E-01 8.337421465E-01
 6.881610240E-01 3.554784447E-01 8.698548239E-01
 4.372500424E-01 8.254946682E-02 1.006112688E+00
 6.078191520E-01 2.608316793E-01 9.156820781E-01
 5.550396697E-01 7.420118000E-02 1.031554604E+00
 6.573024488E-01 1.752322065E-01 9.261114378E-01
 5.472073734E-01 4.019670103E-01 8.849049015E-01
 4.170543055E-01 3.044972990E-01 8.991435767E-01
 4.971474156E-01 1.852288658E-01 9.681703485E-01
 2.880726163E-01 -1.015090487E-01 9.408838586E-01
 3.288455642E-01 -1.169763226E-01 9.461027171E-01
 3.691697435E-01 -1.010087377E-01 9.672101603E-01
 3.865317049E-01 -6.780271657E-02 9.920302182E-01
 3.976481333E-01 -1.029582315E-01 9.606383821E-01
 9.420856865E-01 8.534270594E-02 7.365930130E-01
 8.992828826E-01 1.186170755E-01 7.728535359E-01
 9.447502919E-01 2.565096502E-02 7.175351697E-01
 1.009454628E+00 4.059262214E-02 6.702692262E-01
 1.046408081E+00 1.767105715E-02 6.545365093E-01
 1.034064879E+00 -1.965825839E-02 6.390098660E-01
 9.015648335E-01 6.922585000E-02 7.691221775E-01
 8.792103899E-01 3.817672130E-02 7.886302596E-01
 8.603332702E-01 8.250211979E-02 8.020437578E-01
 6.707450549E-01 -3.656261067E-01 7.544467432E-01
 8.293294379E-01 -3.916298490E-01 7.083831634E-01
 9.920024187E-01 -5.667341299E-01 7.136373822E-01
 -2.663478685E-02 -2.266671738E-02 4.910172424E-01
 1.900449935E-03 -9.659780403E-03 4.848231282E-01
 8.462914579E-02 -7.952274332E-02 8.121056792E-01
 2.665704978E-01 -6.711676243E-02 9.410819696E-01
 1.488845532E-01 -8.697467575E-02 8.574212419E-01
 1.706912557E-01 -5.842188990E-02 8.818829823E-01
 2.908987637E-01 -7.393487893E-02 9.550619086E-01
 1.166379146E+00 -3.923781195E-01 7.091999047E-01
 3.967450638E-01 -6.700393379E-02 9.878008382E-01
 3.056159911E-01 -6.875751674E-02 9.665106687E-01
 3.102622584E-01 -8.571102456E-02 9.610258288E-01
 3.288665076E-01 -8.239874069E-02 9.719022962E-01
 3.398782974E-01 -7.048421975E-02 9.840717268E-01
 3.288927217E-01 -6.809324685E-02 9.805951041E-01
 2.721734543E-01 -8.217272427E-02 9.399015689E-01
 2.530152006E-01 -7.939250954E-02 9.285624279E-01
 1.479342641E+00 6.085853516E-01 7.498896153E-01
 3.494913585E-03 -3.936129205E-02 6.093103892E-01
 4.246791971E-01 -6.881175507E-02 9.647322248E-01
 4.147526914E-01 -8.619106597E-02 9.626718717E-01
 4.266981723E-01 -1.128086620E-01 9.311584693E-01
 4.653582303E-01 -1.013339090E-01 8.981202315E-01
 4.388588368E-01 -8.330367604E-02 9.410728084E-01
 9.360537498E-02 -5.850669379E-02 8.312538177E-01
 8.441034844E-01 1.245948297E-01 8.112626885E-01
 8.232431866E-01 8.818801139E-02 8.268947684E-01
 8.348354141E-01 4.583611908E-02 8.232759635E-01
 7.612648298E-01 1.121219456E-01 8.623299028E-01
 7.443314776E-01 1.724937336E-01 8.671658112E-01
 7.105489021E-01 1.164936758E-01 8.975920860E-01
 6.580111183E-01 1.229251989E-01 9.334102457E-01
 7.893918129E-01 8.150175441E-02 8.487360442E-01
 7.704005516E-01 5.061675859E-02 8.653013841E-01
 7.340850199E-01 8.929060776E-02 8.873626274E-01
 7.217574057E-01 5.971243709E-02 9.009410977E-01
 7.567558265E-01 7.601115961E-02 8.716313181E-01
 7.600577291E-01 5.624511063E-02 8.717901058E-01
 4.621064060E-01 -6.579711972E-02 9.226661816E-01
 4.578056500E-01 -7.891877785E-02 9.223724187E-01
 4.735883739E-01 -7.584184622E-02 9.043007553E-01
 4.950064203E-01 -7.941856205E-02 8.768567104E-01
 5.270808872E-01 -1.111905205E-01 8.288403280E-01
 5.092662405E-01 -6.329420605E-02 8.612562996E-01
 5.637461438E-01 -9.398666591E-02 8.010459261E-01
 4.364901574E-01 -6.617780276E-02 9.532284290E-01
 1.004408207E-01 -4.713821288E-02 8.444107722E-01
 3.477286255E-01 -8.706016218E-02 9.756092172E-01
 3.661904241E-01 -8.154321675E-02 9.837556835E-01
 7.814226543E-01 5.001785239E-02 8.582897920E-01
 5.517846293E-01 -5.525921890E-02 8.150828238E-01
 5.177967150E-01 -8.123274419E-02 8.484963536E-01
 2.559103398E+00 2.061152347E-01 7.412211827E-01
 1.002563056E+00 -3.926147851E-02 6.219346594E-01
 9.631170239E-01 -6.375234925E-02 6.227035239E-01
 9.220279859E-01 -4.776805768E-02 6.137230761E-01
 1.350218601E+00 -3.929110494E-01 7.196779602E-01
 2.544467090E-01 -6.501875681E-02 9.341210898E-01
 -7.746792920E-03 -2.435724219E-02 5.004293829E-01
 6.851054512E-02 -5.600810745E-02 8.033912071E-01
 5.441536906E-01 -7.350601094E-02 8.248573780E-01
 5.648754208E-01 -6.641794488E-02 8.039380235E-01
 5.888711295E-01 -7.244255601E-02 7.805999010E-01
 6.225262987E-01 -9.477026890E-02 7.561390331E-01
 6.037459466E-01 -4.612264887E-02 7.660314603E-01
 6.145998120E-01 -4.534658908E-02 7.573114242E-01
 6.107920952E-01 -6.277116963E-02 7.612806310E-01
 5.929143865E-01 -5.184419640E-02 7.765083454E-01
 9.291454894E-01 5.111395701E-01 7.919593451E-01
 1.639312686E+00 -6.479840419E-02 7.315742424E-01
 4.155368332E-02 -4.880174293E-02 7.510203650E-01
 6.357127818E-01 -6.810880288E-02 7.437382405E-01
 6.596848277E-01 -4.180490843E-02 7.234816066E-01
 6.438992151E-01 -4.657877664E-02 7.351392026E-01
 6.547952261E-01 -6.099260354E-02 7.284760371E-01
 6.749511459E-01 -5.114925749E-02 7.154421246E-01
 6.968516944E-01 -5.192633443E-02 7.023986550E-01
 7.091507869E-01 -3.567427932E-02 6.921359253E-01
 7.206235934E-01 -5.390457252E-02 6.886675681E-01
 6.571409212E-01 -9.421113616E-02 7.330088673E-01
 7.089163737E-01 8.647094106E-02 9.082184798E-01
 3.596574540E-01 4.634055496E-01 8.411272563E-01
 2.765576713E-01 3.087837593E-01 8.504351845E-01
 3.548696511E-01 2.221603573E-01 9.098235604E-01
 3.118847964E-01 7.719379502E-02 9.545529097E-01
 3.373827615E-01 7.770113476E-02 9.659848457E-01
 2.225088483E-01 2.076514476E-01 8.569817746E-01
 2.239286968E-01 7.247363898E-02 9.169338932E-01
 2.000442605E-01 7.017108671E-02 9.073638666E-01
 2.810060199E-01 1.532882730E-01 9.071079041E-01
 1.510043946E-01 2.833578949E-01 7.979179515E-01
 9.201273140E-02 1.901490328E-01 7.629852202E-01
 1.646474687E-01 1.424567062E-01 8.567289274E-01
 1.245550363E-01 4.610646708E-01 7.671137282E-01
 -5.558800133E-02 2.139604766E-01 6.825404766E-01
 1.816141904E-02 1.256630840E-01 6.923732224E-01
 1.742375007E-02 2.322215896E-02 6.483591776E-01
 7.594835777E-02 4.876556270E-02 8.074796889E-01
 -5.358062853E-02 9.375978161E-02 6.109908915E-01
 -3.863485736E-02 3.189870223E-02 5.235360809E-01
 -3.746243462E-03 6.884025168E-02 6.252306371E-01
 8.532252258E-02 1.161334511E-01 7.865985872E-01
 1.291574801E-01 1.082991957E-01 8.417812709E-01
 1.501422115E-01 6.484319305E-02 8.772102156E-01
 4.232630808E-02 8.584973072E-02 7.354711525E-01
 -2.845700911E-02 4.742935913E-03 4.299187095E-01
 -8.932584261E-03 3.927339768E-02 5.492421901E-01
 5.217362377E-03 1.472514329E-02 5.209189323E-01
 1.475551229E-02 4.879875585E-02 6.543114853E-01
 3.139047330E-02 3.291253874E-02 7.134976882E-01
 7.682748249E-02 8.297751435E-02 7.952770969E-01
 9.838079877E-02 5.229368150E-02 8.334286925E-01
 1.060220496E-01 8.511140010E-02 8.278105583E-01
 3.477436580E-02 6.041126460E-02 7.226599978E-01
 1.987993366E-02 3.635691279E-02 6.761588957E-01
 4.550249111E-03 3.161348109E-02 5.890064121E-01
 1.161927038E-02 1.851911438E-02 6.058970780E-01
 -9.280720768E-03 2.072804356E-02 4.460640575E-01
 -1.613073023E-03 9.032226375E-03 3.481621142E-01
 6.244749813E-03 2.302672980E-02 5.497401541E-01
 6.229258839E-02 6.513281556E-02 7.826298353E-01
 5.847718811E-02 4.880640398E-02 7.781302112E-01
 3.513833993E-02 4.495836484E-02 7.268116610E-01
 8.770481543E-02 6.397204659E-02 8.175529899E-01
 5.516494989E-01 6.363203189E-01 8.310526996E-01
 9.695943181E-01 4.930227888E-02 6.995778446E-01
 9.303917565E-01 4.817372653E-02 7.405677765E-01
 9.685240493E-01 -3.024961658E-02 6.018956010E-01
 1.102314246E-01 -6.936014616E-02 8.392285646E-01
 8.348733043E-01 6.488652953E-02 8.222303445E-01
 8.696411551E-01 5.610073941E-02 7.949715147E-01
 7.238767680E-01 -3.323780328E-02 6.826511134E-01
 1.520457024E+00 1.673394975E-01 7.350556305E-01
 7.074155693E-01 -7.872750821E-02 7.011801571E-01
 7.416823181E-01 -8.528670181E-02 6.862896158E-01
 7.781805287E-01 -6.313352102E-02 6.628247435E-01
 7.622060755E-01 -2.343017269E-02 6.607854862E-01
 8.192953222E-01 -5.956283493E-02 6.448636594E-01
 7.469042720E-01 -5.314094929E-02 6.749439333E-01
 7.974351165E-01 -4.497449973E-02 6.473030899E-01
 8.459519158E-01 -1.042097401E-01 6.515285689E-01
 8.597199493E-01 -6.164995274E-02 6.310052986E-01
 8.815161787E-01 -1.113849698E-02 6.003160150E-01
 8.443197038E-01 -4.268760193E-02 6.279423542E-01
 8.659027346E-01 -3.394509018E-02 6.164333223E-01
 8.889096362E-01 -4.712356095E-02 6.166688712E-01
 8.711869686E-01 -1.546091806E-02 6.055340875E-01
 8.585932190E-01 -1.611450998E-02 6.108063504E-01
 8.930587252E-01 -1.237891448E-02 5.979221602E-01
 9.019865982E-01 -2.763857408E-02 6.039360841E-01
 9.178177437E-01 -2.203788001E-02 5.969412232E-01
 9.399618228E-01 -2.847018093E-02 6.026996172E-01
 9.502959490E-01 -1.574060613E-02 5.971334213E-01
 8.837601403E-01 -2.461425912E-02 6.063979896E-01
 7.730883125E-01 -2.286661522E-02 6.536769946E-01
 7.690431151E-01 -3.867018280E-02 6.598082552E-01
 8.033807821E-01 -2.744972278E-02 6.401433912E-01
 7.487651661E-01 -3.120849962E-02 6.695141822E-01
 9.881870306E-01 -2.005651442E-02 5.997886124E-01
 8.132071668E-01 6.297523841E-02 8.371850723E-01
 1.105880790E-01 6.465314481E-02 8.428984778E-01
 4.281795931E-01 2.070367796E-01 9.417871164E-01
 3.931937949E-01 1.513672439E-01 9.556448445E-01
 3.987590834E-01 7.733406565E-02 9.918540909E-01
 4.579311163E-01 1.463470053E-01 9.796531347E-01
 5.141465485E-01 1.341414153E-01 9.981631893E-01
 5.598975324E-01 1.859901538E-01 9.658162760E-01
 5.633661629E-01 1.196438664E-01 1.002903366E+00
 5.792783178E-01 7.506700461E-02 1.018691086E+00
 4.799271358E-01 1.102786589E-01 1.006366199E+00
 4.683436174E-01 8.542789115E-02 1.014560358E+00
 6.100016574E-01 1.448827625E-01 9.644063278E-01
 6.245448122E-01 1.066269844E-01 9.695690014E-01
 6.242185533E-01 6.932779353E-02 9.824998034E-01
 4.227784632E-01 1.185450476E-01 9.837670411E-01
 5.296404260E-01 1.019730412E-01 1.019703607E+00
 5.302786881E-01 8.055330916E-02 1.030175468E+00
 5.038234635E-01 9.771595008E-02 1.018581299E+00
 4.481555804E-01 1.024596993E-01 1.000418833E+00
 4.204447029E-01 9.425038200E-02 9.963200413E-01
 4.848512090E-01 9.000506715E-02 1.017328645E+00
 6.368041869E-01 6.955720786E-02 9.675761161E-01
 6.468409682E-01 8.685434135E-02 9.543914849E-01
 6.729019402E-01 6.525942451E-02 9.398003227E-01
 6.753126897E-01 9.416237593E-02 9.281365989E-01
 6.633633446E-01 7.804608618E-02 9.433745271E-01
 6.843870417E-01 6.175134111E-02 9.328235390E-01
 3.867361706E-01 7.886212923E-02 9.873789539E-01
 3.954144980E-01 9.897247250E-02 9.832420133E-01
 3.632439406E-01 1.150659828E-01 9.645266461E-01
 3.740269810E-01 9.076163384E-02 9.796352672E-01
 4.126532255E-01 7.905637306E-02 9.964159760E-01
 5.427998550E-01 7.497999565E-02 1.032932516E+00
 3.750680037E-01 7.663322440E-02 9.837045806E-01
 6.610704230E-01 6.434744793E-02 9.484547288E-01
 5.476378527E-01 8.966405225E-02 1.025356812E+00
 5.670807389E-01 8.569742732E-02 1.021623248E+00
 5.863356613E-01 9.223741332E-02 1.007919901E+00
 6.905515978E-01 7.728288503E-02 9.272740094E-01
 4.245295019E-01 7.858876158E-02 1.002702523E+00
 5.176823808E-01 8.716838958E-02 1.027302992E+00
 5.929592334E-01 7.569734397E-02 1.009525422E+00
 2.051609712E-01 -2.639463234E-01 8.244320231E-01
 5.178215056E-01 7.609757339E-02 1.032521547E+00
 1.864869729E-01 -8.900764046E-02 8.827448396E-01
 1.515675926E-01 -6.987892352E-02 8.662274575E-01
 2.000948443E-01 -7.414287994E-02 8.966908618E-01
 2.288574690E-01 -7.996546629E-02 9.119025550E-01
 1.333793322E-01 -6.972722183E-02 8.537674940E-01
 6.961499704E-01 -3.436248510E-02 6.996688234E-01
 7.337205835E-01 7.041220433E-02 8.904428137E-01
 1.697935738E-01 -7.690114391E-02 8.740189031E-01
 1.314430952E-01 7.871599525E-02 8.590860651E-01
 1.599412385E-01 8.761598795E-02 8.778846296E-01
 1.986782715E-01 1.119140121E-01 8.909703534E-01
 1.888389356E-01 8.175956958E-02 8.986906866E-01
 2.096419147E-01 8.259030563E-02 9.078106072E-01
 2.339634395E-01 9.126804317E-02 9.154448348E-01
 2.279784508E-01 1.363501766E-01 8.916879139E-01
 2.671926434E-01 1.133145051E-01 9.244293182E-01
 2.486856589E-01 7.435256065E-02 9.278478496E-01
 3.075405361E-01 1.155591972E-01 9.399523473E-01
 3.327290699E-01 1.528414516E-01 9.319474951E-01
 3.348247288E-01 1.072014845E-01 9.559277400E-01
 2.926240482E-01 9.280289337E-02 9.437059716E-01
 2.663380956E-01 8.509610656E-02 9.329885759E-01
 3.496071088E-01 9.101265228E-02 9.690964796E-01
 1.323426703E-01 5.916484823E-02 8.632733740E-01