TITLE     = "Visualization of the solution"
VARIABLES = "x"
"y"
"Mach"
ZONE T="Zone"
 STRANDID=0, SOLUTIONTIME=0
 Nodes=688, Elements=1161, ZONETYPE=FEQuadrilateral
 DATAPACKING=POINT
 DT=(DOUBLE DOUBLE DOUBLE )
 1.000321507E+00 5.183507456E-04 5.867074494E-01
 9.866502285E-01 3.003245452E-03 6.361798831E-01
 9.739601016E-01 5.360725801E-03 6.644286920E-01
 9.585042596E-01 8.208742365E-03 6.908084416E-01
 9.439456463E-01 1.083598193E-02 7.071103509E-01
 9.304652214E-01 1.328587160E-02 7.248442619E-01
 9.186896086E-01 1.538652927E-02 7.389331336E-01
 9.063264132E-01 1.756929234E-02 7.544204193E-01
 8.944876790E-01 1.963750273E-02 7.670125403E-01
 8.821185827E-01 2.168722264E-02 7.766704249E-01
 8.698886037E-01 2.366618626E-02 7.880719346E-01
 8.581519723E-01 2.556286380E-02 7.960249415E-01
 8.457056880E-01 2.739461325E-02 8.005279402E-01
 8.344955444E-01 2.907637134E-02 8.070788535E-01
 8.230226040E-01 3.074936941E-02 8.148907076E-01
 8.106939197E-01 3.251056746E-02 8.208518756E-01
 7.979512215E-01 3.425761685E-02 8.265293333E-01
 7.857198715E-01 3.592404723E-02 8.325453933E-01
 7.729628086E-01 3.759456798E-02 8.402091246E-01
 7.610990405E-01 3.916823119E-02 8.483556098E-01
 7.476663589E-01 4.085176438E-02 8.567025891E-01
 7.342224717E-01 4.253293201E-02 8.659557553E-01
 7.232934833E-01 4.385445267E-02 8.720990649E-01
 7.115933299E-01 4.520545155E-02 8.768789221E-01
 6.998797655E-01 4.655218497E-02 8.845147093E-01
 6.866469383E-01 4.802251607E-02 8.950598088E-01
 6.736441851E-01 4.942925274E-02 9.051412136E-01
 6.627928019E-01 5.053941905E-02 9.121320094E-01
 6.509022117E-01 5.171269923E-02 9.188339927E-01
 6.395432353E-01 5.279335007E-02 9.276890857E-01
 6.277115941E-01 5.387848616E-02 9.371342964E-01
 6.162462831E-01 5.486556143E-02 9.454399355E-01
 6.054201126E-01 5.574837700E-02 9.519115161E-01
 5.933310390E-01 5.666304007E-02 9.585223053E-01
 5.816133618E-01 5.750098452E-02 9.671369940E-01
 5.682649016E-01 5.839400738E-02 9.756653020E-01
 5.556100607E-01 5.913673341E-02 9.832786534E-01
 5.430990458E-01 5.982152373E-02 9.890184599E-01
 5.318110585E-01 6.036553904E-02 9.908617910E-01
 5.197409987E-01 6.086227298E-02 9.926151584E-01
 5.076011419E-01 6.132686511E-02 9.938325408E-01
 4.966402352E-01 6.165577844E-02 9.912400952E-01
 4.835878611E-01 6.196951494E-02 9.900066803E-01
 4.709278047E-01 6.223548204E-02 9.876037931E-01
 4.572083354E-01 6.238712370E-02 9.830471980E-01
 4.439892173E-01 6.249020994E-02 9.801924722E-01
 4.312403798E-01 6.251317263E-02 9.772659122E-01
 4.183547795E-01 6.245955452E-02 9.730118876E-01
 4.059571326E-01 6.232938543E-02 9.682880421E-01
 3.934214413E-01 6.214506924E-02 9.626358358E-01
 3.811739683E-01 6.188162789E-02 9.563864118E-01
 3.694979846E-01 6.158100069E-02 9.513086081E-01
 3.566653430E-01 6.119460240E-02 9.476300833E-01
 3.443988562E-01 6.076317281E-02 9.434406143E-01
 3.320654035E-01 6.025942415E-02 9.388741765E-01
 3.214029372E-01 5.977224931E-02 9.338428634E-01
 3.092970550E-01 5.916411430E-02 9.276134986E-01
 2.962805629E-01 5.842991546E-02 9.209366164E-01
 2.825548947E-01 5.758964643E-02 9.153696369E-01
 2.700899243E-01 5.674790218E-02 9.106479933E-01
 2.584720850E-01 5.592731386E-02 9.053887736E-01
 2.457473874E-01 5.491976067E-02 8.998676349E-01
 2.332195491E-01 5.389162898E-02 8.950119455E-01
 2.207966149E-01 5.277368426E-02 8.889624189E-01
 2.089161575E-01 5.163559690E-02 8.840379409E-01
 1.970945448E-01 5.045295507E-02 8.794615808E-01
 1.847234666E-01 4.911108688E-02 8.749195495E-01
 1.727625728E-01 4.774343595E-02 8.694385209E-01
 1.609188169E-01 4.631698877E-02 8.628927516E-01
 1.488065124E-01 4.475903511E-02 8.553112521E-01
 1.377695948E-01 4.324976727E-02 8.490158890E-01
 1.260740608E-01 4.155903310E-02 8.430123218E-01
 1.146356389E-01 3.980292380E-02 8.369210520E-01
 1.038043648E-01 3.802765161E-02 8.299947782E-01
 9.373169392E-02 3.627658263E-02 8.234880017E-01
 8.262842894E-02 3.421798721E-02 8.166740970E-01
 7.135049254E-02 3.195975348E-02 8.103367565E-01
 6.158980355E-02 2.984963730E-02 8.006367177E-01
 5.215744302E-02 2.763478644E-02 7.891420112E-01
 4.344860464E-02 2.539647929E-02 7.801178021E-01
 3.600719571E-02 2.330523729E-02 7.737369193E-01
 2.950684913E-02 2.129529417E-02 7.530046512E-01
 2.398773655E-02 1.942041330E-02 7.231889909E-01
 1.997192390E-02 1.791566052E-02 6.951004389E-01
 1.625881903E-02 1.639848761E-02 6.757341335E-01
 1.337612234E-02 1.510335319E-02 6.645280804E-01
 1.081167068E-02 1.383984089E-02 6.468093511E-01
 8.926813491E-03 1.281862706E-02 6.227181049E-01
 7.221123669E-03 1.181932539E-02 5.830971658E-01
 5.629050545E-03 1.079090033E-02 5.516057058E-01
 3.535801778E-03 9.233097546E-03 5.317997584E-01
 1.803352963E-03 7.678837050E-03 4.888303943E-01
 3.917314461E-04 6.074070465E-03 4.109234446E-01
 -9.385486483E-04 3.906974569E-03 2.926554131E-01
 -1.538486104E-03 2.186686033E-03 2.008944856E-01
 -1.744884648E-03 7.795986603E-04 1.599097056E-01
 -1.685840776E-03 -8.538325201E-04 2.467799113E-02
 -1.256534364E-03 -2.700055484E-03 1.524338485E-01
 -3.093023261E-04 -4.827310331E-03 1.741112475E-01
 1.172024291E-03 -7.045507897E-03 3.126088377E-01
 3.208016744E-03 -9.342963807E-03 3.817977913E-01
 5.092984997E-03 -1.109303255E-02 4.673606703E-01
 7.293482311E-03 -1.285375282E-02 5.026201969E-01
 9.002996609E-03 -1.407808997E-02 5.398943273E-01
 1.108864602E-02 -1.545080449E-02 5.786324437E-01
 1.351232361E-02 -1.690604910E-02 6.094810196E-01
 1.674938202E-02 -1.866797917E-02 6.437535344E-01
 1.986692846E-02 -2.021669783E-02 6.715651408E-01
 2.381237037E-02 -2.201034501E-02 6.993691473E-01
 2.909591421E-02 -2.418002114E-02 7.265020799E-01
 3.469410166E-02 -2.625107579E-02 7.478826663E-01
 4.150618613E-02 -2.852831222E-02 7.676267550E-01
 4.899456352E-02 -3.079885989E-02 7.866887495E-01
 5.776810646E-02 -3.319376335E-02 8.013474651E-01
 6.648964435E-02 -3.537290171E-02 8.155271118E-01
 7.674916089E-02 -3.771610186E-02 8.280516263E-01
 8.667565137E-02 -3.978672624E-02 8.403988135E-01
 9.717006236E-02 -4.182118550E-02 8.516398436E-01
 1.083097905E-01 -4.381666705E-02 8.619664867E-01
 1.198438257E-01 -4.574025795E-02 8.709715451E-01
 1.315429658E-01 -4.754612595E-02 8.791972572E-01
 1.424549371E-01 -4.912200198E-02 8.865416246E-01
 1.537027210E-01 -5.064965785E-02 8.940924476E-01
 1.659366786E-01 -5.219953880E-02 9.016854934E-01
 1.778028309E-01 -5.358856916E-02 9.092310785E-01
 1.896952391E-01 -5.489565805E-02 9.160978816E-01
 2.004577219E-01 -5.599462986E-02 9.230431701E-01
 2.120984197E-01 -5.710402131E-02 9.305089386E-01
 2.244490385E-01 -5.818444118E-02 9.385899065E-01
 2.366999984E-01 -5.915303901E-02 9.456182124E-01
 2.488137782E-01 -6.001354381E-02 9.525757124E-01
 2.613458633E-01 -6.082084030E-02 9.611761269E-01
 2.727214396E-01 -6.145507470E-02 9.709213401E-01
 2.853110731E-01 -6.205879524E-02 9.804361164E-01
 2.975902855E-01 -6.254126132E-02 9.904481420E-01
 3.104249835E-01 -6.294134259E-02 9.997957397E-01
 3.221858740E-01 -6.317166239E-02 1.006969919E+00
 3.348596692E-01 -6.334144622E-02 1.015420794E+00
 3.455680907E-01 -6.337519735E-02 1.023256783E+00
 3.568334579E-01 -6.329468638E-02 1.028791779E+00
 3.680632114E-01 -6.314467639E-02 1.030853369E+00
 3.789753020E-01 -6.286805123E-02 1.030604305E+00
 3.906237185E-01 -6.248198450E-02 1.028298060E+00
 4.033503234E-01 -6.193818152E-02 1.025104796E+00
 4.153479338E-01 -6.126300246E-02 1.017309064E+00
 4.281658530E-01 -6.045719981E-02 1.005409312E+00
 4.402272105E-01 -5.951258913E-02 9.889780542E-01
 4.526416659E-01 -5.848728865E-02 9.703932387E-01
 4.646333456E-01 -5.737569556E-02 9.521263231E-01
 4.770102799E-01 -5.609344319E-02 9.307086895E-01
 4.887109995E-01 -5.481662601E-02 9.103481568E-01
 5.009775162E-01 -5.339241028E-02 8.933381062E-01
 5.143398643E-01 -5.176287889E-02 8.766157113E-01
 5.271782279E-01 -5.008881167E-02 8.592540014E-01
 5.399860740E-01 -4.837578908E-02 8.426690744E-01
 5.529731512E-01 -4.660078138E-02 8.290395067E-01
 5.659824014E-01 -4.476277903E-02 8.153409813E-01
 5.788547397E-01 -4.291356727E-02 8.019132397E-01
 5.915785432E-01 -4.105246440E-02 7.884038796E-01
 6.043339968E-01 -3.916038573E-02 7.755017593E-01
 6.178064942E-01 -3.717491031E-02 7.644253178E-01
 6.315917969E-01 -3.511333093E-02 7.530701586E-01
 6.454436183E-01 -3.303414583E-02 7.421066127E-01
 6.585353017E-01 -3.108796850E-02 7.325304227E-01
 6.717147231E-01 -2.911025472E-02 7.226643295E-01
 6.842512488E-01 -2.726310492E-02 7.136822589E-01
 6.967476606E-01 -2.543713525E-02 7.059983176E-01
 7.112505436E-01 -2.333513461E-02 6.980923778E-01
 7.243484855E-01 -2.146091871E-02 6.896416558E-01
 7.357345819E-01 -1.980330236E-02 6.808204143E-01
 7.490633130E-01 -1.794463210E-02 6.730768463E-01
 7.618009448E-01 -1.618412137E-02 6.657709220E-01
 7.752596736E-01 -1.437522192E-02 6.585308876E-01
 7.874720097E-01 -1.277767494E-02 6.519587030E-01
 8.002000451E-01 -1.116088219E-02 6.453012685E-01
 8.111091852E-01 -9.781573899E-03 6.373352885E-01
 8.224951625E-01 -8.422770537E-03 6.303126881E-01
 8.351317644E-01 -6.995038595E-03 6.246270132E-01
 8.473502994E-01 -5.657734815E-03 6.177389610E-01
 8.596625328E-01 -4.420112353E-03 6.113028201E-01
 8.708302379E-01 -3.371630097E-03 6.053978482E-01
 8.824009299E-01 -2.392647322E-03 6.005101292E-01
 8.956428766E-01 -1.421638182E-03 5.967621174E-01
 9.060369134E-01 -7.636848022E-04 5.934036668E-01
 9.168061018E-01 -1.812825067E-04 5.903233182E-01
 9.271218777E-01 2.668997622E-04 5.878199711E-01
 9.371486902E-01 5.919730174E-04 5.883504574E-01
 9.498846531E-01 8.670856478E-04 5.875107865E-01
 9.637384415E-01 9.976438014E-04 5.898522098E-01
 9.775807261E-01 9.605244850E-04 5.810753348E-01
 9.895679951E-01 7.815306308E-04 6.000026625E-01
 -5.000000000E-01 -1.000000000E+00 7.118482229E-01
 3.500000000E+00 -1.000000000E+00 7.310442973E-01
 3.500000000E+00 1.000000000E+00 7.290995199E-01
 -5.000000000E-01 1.000000000E+00 7.103558556E-01
 -5.000000000E-01 5.000000000E-01 6.986782415E-01
 -5.000000000E-01 2.752797990E-12 6.865824206E-01
 -5.000000000E-01 -5.000000000E-01 6.983238479E-01
 -9.421907698E-13 -1.000000000E+00 7.223283737E-01
 5.000000000E-01 -1.000000000E+00 7.440687421E-01
 1.000000000E+00 -1.000000000E+00 7.335292798E-01
 1.500000000E+00 -1.000000000E+00 7.236500397E-01
 2.000000000E+00 -1.000000000E+00 7.246954279E-01
 2.500000000E+00 -1.000000000E+00 7.277457858E-01
 3.000000000E+00 -1.000000000E+00 7.293812019E-01
 3.500000000E+00 -5.000000000E-01 7.332726932E-01
 3.500000000E+00 -2.752797990E-12 7.350202693E-01
 3.500000000E+00 5.000000000E-01 7.327289612E-01
 3.000000000E+00 1.000000000E+00 7.276740980E-01
 2.500000000E+00 1.000000000E+00 7.303839516E-01
 2.000000000E+00 1.000000000E+00 7.355095891E-01
 1.500000000E+00 1.000000000E+00 7.485711633E-01
 1.000000000E+00 1.000000000E+00 7.713594398E-01
 5.000000000E-01 1.000000000E+00 7.679546765E-01
 1.733724275E-12 1.000000000E+00 7.273578183E-01
 6.806663864E-01 -4.151212654E-02 7.208912309E-01
 7.828309964E-01 -2.744186846E-02 6.599684020E-01
 8.999824224E-01 -9.202745657E-03 6.001668365E-01
 5.882179733E-01 -5.479262250E-02 7.944362461E-01
 6.945443130E-01 5.781511709E-02 8.897106681E-01
 2.808147215E-01 6.948533803E-02 9.140899222E-01
 2.785250750E-01 -7.199974135E-02 9.703050123E-01
 9.134841191E-01 2.785161269E-02 7.489242968E-01
 7.932787175E-01 4.568349181E-02 8.318647083E-01
 6.011645596E-01 6.504924107E-02 9.531689613E-01
 3.739633928E-01 7.090134459E-02 9.526447148E-01
 4.099619277E-01 -7.392665935E-02 1.009794185E+00
 5.031155245E-01 7.224414803E-02 9.900123497E-01
 1.838173758E+00 -6.005300807E-01 7.276600827E-01
 1.728084358E+00 5.380497408E-01 7.436890669E-01
 3.031180038E+00 2.156819632E-01 7.380219425E-01
 7.500000000E-01 -5.669872981E-01 7.384485222E-01
 4.831981269E-01 -6.535211893E-02 9.177390260E-01
 3.489020766E-01 -7.021050166E-01 7.696950212E-01
 1.262966724E-01 -5.806624049E-02 8.708762733E-01
 1.825804196E-01 -6.668903723E-02 9.072336367E-01
 7.893359102E-01 5.668290053E-01 8.108572448E-01
 2.734836702E+00 -5.327028421E-01 7.332462315E-01
 1.166875686E+00 6.149791435E-01 7.624737262E-01
 9.696159508E-01 3.135259797E-01 7.608278449E-01
 8.522230279E-01 3.806378295E-02 7.995754851E-01
 1.237320421E+00 -6.107538555E-01 7.178259156E-01
 1.509516816E+00 -2.741197518E-01 7.253139696E-01
 2.889375113E-01 6.444306772E-01 7.859396506E-01
 1.177988854E-01 5.265992216E-02 8.359985953E-01
 1.872542631E-01 6.574016516E-02 8.748066163E-01
 2.249230247E+00 -5.888296621E-01 7.310202573E-01
 1.988171047E+00 -2.127326177E-01 7.342356964E-01
 2.414133154E+00 -1.867655088E-01 7.368208918E-01
 2.184581903E+00 1.581352257E-01 7.408627664E-01
 1.808184195E+00 1.429830133E-01 7.395958741E-01
 -2.684143859E-01 2.170492109E-01 6.782752603E-01
 -9.133577948E-02 6.221423065E-01 7.274340260E-01
 4.923656707E-02 3.281135159E-01 7.453037993E-01
 4.720840429E-02 3.514359995E-02 7.745796403E-01
 -2.710545984E-01 -2.367802461E-01 6.790036454E-01
 -1.459754877E-01 -6.015446696E-01 7.166242840E-01
 1.046655901E-01 -3.919649747E-01 7.599132051E-01
 2.191428111E+00 6.008037943E-01 7.400063361E-01
 2.738071319E+00 6.037850100E-01 7.364721767E-01
 -2.342287892E-01 -7.055210204E-03 6.580794306E-01
 -1.339290002E-01 1.001518458E-01 6.440371034E-01
 -1.189363595E-01 -1.422689251E-01 6.514225302E-01
 6.923470263E-02 -4.444016285E-02 8.125231846E-01
 4.400697589E-02 -3.812495070E-02 7.619841927E-01
 -7.991099017E-02 -3.261875113E-01 7.022098716E-01
 1.363545572E-03 -1.823829821E-01 6.969177469E-01
 1.642138280E-01 -2.074128538E-01 8.267438437E-01
 3.434846799E-01 -7.353157479E-02 1.013823235E+00
 3.728814314E-01 -7.558727685E-02 1.016986991E+00
 3.152298682E-01 -7.562990466E-02 9.956675297E-01
 2.280974644E-01 -7.299234499E-02 9.364138445E-01
 -3.706150439E-02 -9.812811882E-02 6.205023587E-01
 1.998428827E-02 -2.524936069E-02 6.583041797E-01
 -1.093669627E-01 -2.345143459E-02 6.002312769E-01
 -7.221222261E-02 5.720112116E-02 5.956588995E-01
 3.933241822E-02 -1.084613474E-01 7.237322198E-01
 3.109354199E+00 -2.612847230E-01 7.360777245E-01
 6.049947505E-03 -7.007831772E-02 6.339437871E-01
 -4.017201656E-02 -4.200815378E-02 5.359532135E-01
 -5.266269037E-02 7.257266524E-03 5.233669606E-01
 -2.678247086E-02 4.304078242E-02 5.552209077E-01
 2.393349589E-02 2.478825266E-02 7.148668442E-01
 -3.970882287E-02 1.068594792E-01 6.396128610E-01
 2.260057163E-02 8.778709689E-02 7.071482833E-01
 8.660334404E-02 4.702689380E-02 8.120114872E-01
 1.670581431E-02 1.696483454E-01 7.114132019E-01
 7.542492174E-02 1.283270667E-01 7.710239606E-01
 1.487392932E-01 5.669099601E-02 8.552178432E-01
 6.527947015E-02 8.596360061E-02 7.775830507E-01
 6.754513849E-02 4.080826721E-02 7.953911689E-01
 1.085459208E-01 9.291420939E-02 8.208907309E-01
 1.396200156E-01 1.408553888E-01 8.258727065E-01
 9.511308768E-02 1.955944071E-01 7.743653684E-01
 1.840356974E-01 2.113276081E-01 8.226070911E-01
 2.281569983E-01 1.482321711E-01 8.698724189E-01
 3.262299294E-01 7.133018639E-02 9.353376259E-01
 3.516646536E-01 7.638049820E-02 9.447738995E-01
 3.004499900E-01 7.111156627E-02 9.229812392E-01
 2.393265729E-01 6.854116905E-02 8.966487556E-01
 1.835917202E-01 1.136812996E-01 8.617351959E-01
 1.509573812E-01 9.415335701E-02 8.508257630E-01
 -8.764755030E-02 2.239938423E-01 6.818231724E-01
 -7.865541543E-03 -4.103955702E-02 5.406122510E-01
 -2.520037659E-02 -1.851754857E-02 4.502361693E-01
 -6.944786054E-04 -1.011097360E-02 3.434635337E-01
 2.552588064E+00 2.124879369E-01 7.403217074E-01
 4.318650548E-02 -7.354460062E-02 7.367876250E-01
 8.804318083E-02 -1.023076916E-01 8.076750476E-01
 9.821313625E-02 -5.413331112E-02 8.466286595E-01
 7.653198696E-03 5.356017222E-02 6.456604552E-01
 1.514442025E-02 -4.402946677E-02 6.441005125E-01
 3.089049604E-02 -3.282026739E-02 7.168744238E-01
 6.935817381E-02 -7.776838850E-02 7.893549924E-01
 8.159896306E-02 -5.798249910E-02 8.211273903E-01
 1.004809907E-01 -7.527315036E-02 8.366354423E-01
 1.283469051E-01 -1.036919269E-01 8.484241415E-01
 1.584786187E-01 -6.583175663E-02 8.915963951E-01
 9.854639805E-02 -1.566688076E-01 7.910914768E-01
 1.691276879E-01 -1.487832284E-01 8.578826413E-01
 2.459133404E-01 -1.845667564E-01 8.837298732E-01
 2.226842827E-01 -1.295566185E-01 9.021697196E-01
 1.736168484E-01 -1.052601430E-01 8.858104432E-01
 2.164422605E-01 -8.897166266E-02 9.196230502E-01
 2.054618317E-01 -6.961963879E-02 9.210467792E-01
 2.089814999E-01 -2.772555375E-01 8.282734578E-01
 3.208077186E-01 -2.437479882E-01 8.882982638E-01
 3.276389007E-01 -1.653066309E-01 9.333914188E-01
 4.108318012E-01 -1.913258145E-01 9.162000627E-01
 4.189557609E-01 -2.723327147E-01 8.779531458E-01
 5.124648500E-01 -2.167939691E-01 8.460537008E-01
 5.356210867E-01 -6.377641059E-02 8.495039064E-01
 5.275155299E-01 -3.402174352E-01 8.157688364E-01
 6.246806414E-01 -2.615527152E-01 7.657039901E-01
 5.998436319E-01 -1.613730891E-01 7.840898266E-01
 6.414140203E-01 -4.411038424E-02 7.484391368E-01
 6.916323024E-01 -1.819375239E-01 7.322773652E-01
 8.415528867E-01 -1.872456301E-02 6.276857882E-01
 8.159524828E-01 -2.180638835E-02 6.406746109E-01
 8.670653288E-01 -1.772947259E-02 6.155060019E-01
 7.313030561E-01 -2.962854646E-02 6.882014256E-01
 7.387769142E-01 -2.471218906E-01 7.164326318E-01
 8.356256531E-01 -1.785565800E-01 6.803318276E-01
 9.727154931E-01 -1.351095591E-02 5.950441562E-01
 9.433058699E-01 -1.136735623E-02 5.967503413E-01
 8.465562920E-01 -3.322814916E-01 7.028371060E-01
 9.336152160E-01 -1.989765959E-01 6.697901729E-01
 8.897867052E-01 -1.121499845E-01 6.502991746E-01
 9.776100837E-01 -1.282689754E-01 6.545008718E-01
 1.039829769E+00 -1.957252777E-01 6.791251707E-01
 1.092057829E+00 -9.516569684E-02 6.824195764E-01
 1.174865443E+00 -1.945392680E-01 7.010311852E-01
 1.199790178E+00 -8.880246434E-02 7.041673933E-01
 1.139086168E+00 7.611037718E-03 6.902673159E-01
 1.269810315E+00 1.167025044E-02 7.126038134E-01
 8.022910475E-01 -1.073706109E-01 6.742312340E-01
 1.164238742E+00 1.290825437E-01 7.094176824E-01
 1.333267927E+00 1.719794685E-01 7.269176915E-01
 5.286702939E-01 -1.415247530E-01 8.464859911E-01
 4.515614180E-01 -7.247570636E-02 9.644423893E-01
 9.401004896E-01 -7.756864482E-02 6.361255503E-01
 1.033349838E+00 -5.684088528E-02 6.583091956E-01
 1.110017424E+00 -3.552358706E-01 6.998733178E-01
 6.648514533E-01 -1.211154986E-01 7.421961991E-01
 1.433922370E+00 1.960701798E-02 7.251872352E-01
 8.470424059E-01 -7.564589347E-02 6.500809712E-01
 5.690730336E-01 -1.126398884E-01 8.135121846E-01
 5.615941337E-01 -5.993819920E-02 8.209813139E-01
 1.147527660E+00 3.281756510E-01 7.406170746E-01
 1.011220568E+00 1.804085244E-01 7.288904488E-01
 8.693699605E-01 2.729533051E-01 7.894542069E-01
 9.719204154E-01 1.780000333E-02 6.753854291E-01
 8.928033315E-01 1.412586568E-01 7.706733111E-01
 3.761015825E-01 -1.343925964E-01 9.670032022E-01
 4.410143507E-01 -1.336607161E-01 9.448850913E-01
 1.391502817E+00 4.181747109E-01 7.430056760E-01
 1.060201281E+00 6.765275054E-02 6.874029442E-01
 1.064795110E+00 -8.724631515E-03 6.643371856E-01
 6.688139005E-01 -3.856162838E-01 7.494236501E-01
 9.729665410E-01 -4.939372845E-01 7.100948739E-01
 1.318625304E+00 -3.507829934E-01 7.144264537E-01
 7.192181642E-01 -1.189407914E-01 7.125865277E-01
 6.942699948E-01 -7.954338581E-02 7.211399722E-01
 7.050440235E-01 -3.710033357E-02 7.057634421E-01
 7.336985770E-01 -7.130198703E-02 6.973280973E-01
 7.580857173E-01 -2.920062230E-02 6.734324574E-01
 9.856807138E-01 9.599240010E-02 7.182218294E-01
 9.142430638E-01 8.537375432E-02 7.622660059E-01
 3.268669741E-01 -3.772145268E-01 8.205743695E-01
 3.342120045E-01 -1.200132371E-01 9.731452973E-01
 2.837854299E-01 -1.221007398E-01 9.421569258E-01
 2.470823697E-01 -1.024092174E-01 9.327585772E-01
 2.552000408E-01 -7.226930169E-02 9.525610724E-01
 5.349651381E-01 -5.223491044E-01 7.868161321E-01
 5.266370608E-01 -1.024315999E-01 8.558566571E-01
 5.099392472E-01 -6.608343140E-02 8.806099340E-01
 4.850665235E-01 -1.115018744E-01 8.989579133E-01
 6.544210524E-01 -8.319500415E-02 7.468884683E-01
 6.162410649E-01 -1.010101643E-01 7.751067547E-01
 6.114923470E-01 -4.889450004E-02 7.724704359E-01
 1.011435074E+00 5.349503126E-02 6.825363617E-01
 4.096372423E-01 -1.101829946E-01 9.804187913E-01
 7.432028723E-01 -3.091852685E-02 6.818749770E-01
 7.508055657E-01 -4.721945421E-02 6.826122659E-01
 7.698997472E-01 -3.954809986E-02 6.704229637E-01
 7.914958411E-01 -4.343531645E-02 6.619001564E-01
 7.731177818E-01 -6.735001809E-02 6.776351333E-01
 1.455218435E+00 6.515915061E-01 7.491925897E-01
 7.201207546E-01 -3.432783649E-02 6.965329990E-01
 7.135423779E-01 -5.344379391E-02 7.049708322E-01
 6.933573734E-01 -5.162736935E-02 7.162529074E-01
 2.678113562E-01 -7.056460122E-02 9.622907478E-01
 2.688061496E-01 -8.686923530E-02 9.543938790E-01
 2.905190416E-01 -8.808922957E-02 9.706454424E-01
 6.536748990E-01 -4.339878756E-02 7.389622334E-01
 2.173098030E-01 -6.937442178E-02 9.292412131E-01
 1.905098517E-01 -7.964135806E-02 9.072239324E-01
 6.703965809E-01 -5.731753962E-02 7.320701364E-01
 1.937410128E-01 -6.536806440E-02 9.149293839E-01
 1.026755413E+00 2.130053854E-02 6.492284463E-01
 1.361359782E+00 -1.629969338E-01 7.191328393E-01
 7.985748547E-01 -2.719377293E-02 6.518336990E-01
 8.129239095E-01 -4.078357479E-02 6.499563877E-01
 8.310037959E-01 -3.149453839E-02 6.381561332E-01
 8.518691526E-01 -3.605994487E-02 6.313541438E-01
 8.758224623E-01 -3.423544540E-02 6.217655252E-01
 8.837094116E-01 -2.246574195E-02 6.124057195E-01
 8.942739617E-01 -3.823930630E-02 6.201016419E-01
 9.171625119E-01 -2.759303143E-02 6.103451345E-01
 9.230387414E-01 -1.116024711E-02 5.970736878E-01
 8.781760394E-01 -5.964783668E-02 6.340178189E-01
 9.330768229E-01 -2.132354722E-02 6.038630967E-01
 9.485982176E-01 -2.560367953E-02 6.084781403E-01
 8.101931858E-01 -6.494158356E-02 6.599754596E-01
 9.099430479E-01 -1.203622299E-02 5.992922979E-01
 9.327384004E-01 -8.598455555E-03 5.941804693E-01
 8.245413398E-01 3.845158462E-01 8.034670367E-01
 6.983135023E-01 3.051905712E-01 8.514968592E-01
 7.492767971E-01 1.710262371E-01 8.490199901E-01
 6.456331667E-01 6.424866515E-02 9.237818501E-01
 6.682376230E-01 6.331634850E-02 9.094524888E-01
 7.552296094E-01 5.255497959E-02 8.548402200E-01
 7.294744306E-01 5.513042206E-02 8.705529262E-01
 6.114941953E-01 2.304558914E-01 8.996636511E-01
 4.363480306E-01 7.234288630E-02 9.771180578E-01
 4.663704661E-01 7.833208182E-02 9.828497905E-01
 5.489928853E-01 7.041269052E-02 9.845837300E-01
 4.118714254E-01 7.936639582E-02 9.675730504E-01
 5.250107970E-01 6.973999569E-02 9.895058670E-01
 5.758642629E-01 3.324446267E-01 8.795746501E-01
 5.168224209E-01 2.274192512E-01 9.229528070E-01
 6.839501618E-01 1.419770118E-01 8.870644535E-01
 5.639866252E-01 1.616679995E-01 9.431013878E-01
 4.764089454E-01 1.607989437E-01 9.517858361E-01
 4.221278065E-01 2.180332562E-01 9.186566619E-01
 3.948794616E-01 1.498399530E-01 9.383256077E-01
 4.720011081E-01 3.081627792E-01 8.925318449E-01
 3.365965889E-01 3.216594896E-01 8.541832063E-01
 5.217906119E-01 1.316280223E-01 9.677449589E-01
 4.425409951E-01 1.270893848E-01 9.616375742E-01
 5.007652196E-01 4.570762247E-01 8.510562871E-01
 1.925456497E-01 4.596439913E-01 7.790855937E-01
 2.691539532E-01 2.212719300E-01 8.654986428E-01
 2.891587120E-01 1.516891184E-01 8.989009523E-01
 3.417194184E-01 1.979385474E-01 9.027595256E-01
 2.628853740E-01 1.091722106E-01 9.005158770E-01
 3.029917729E-01 1.090137217E-01 9.188519615E-01
 3.383999879E-01 1.251375374E-01 9.274140507E-01
 3.777789432E-01 1.122482221E-01 9.479278629E-01
 4.085226878E-01 1.078084738E-01 9.599945170E-01
 2.241057889E-01 1.041840664E-01 8.846473825E-01
 2.136074794E-01 6.614611066E-02 8.853907131E-01
 2.233589518E-01 3.065522906E-01 8.162952561E-01
 4.247519785E-01 7.344531480E-02 9.738599443E-01
 4.331478606E-01 9.075203695E-02 9.727668832E-01
 3.929932706E-01 8.873492277E-02 9.585314067E-01
 4.593540159E-01 9.908786378E-02 9.766665113E-01
 4.494029877E-01 7.756536708E-02 9.794219889E-01
 4.824924513E-01 8.988225611E-02 9.826755158E-01
 3.995323729E-01 7.290924638E-02 9.633394849E-01
 5.365358745E-02 -5.447824932E-02 7.795518370E-01
 3.630547442E-01 -1.020074836E-01 9.960299844E-01
 3.876709055E-01 -9.743306222E-02 9.977715959E-01
 4.302530160E-01 -9.697316692E-02 9.765873856E-01
 4.571858778E-01 -9.459081530E-02 9.483736898E-01
 4.644008029E-01 -7.703676656E-02 9.420733395E-01
 3.555389492E-01 -8.236616240E-02 1.012432221E+00
 5.809644832E-01 6.649987527E-01 8.174612905E-01
 5.845718104E-01 -8.739386312E-02 8.008645612E-01
 3.281807300E-01 9.985678622E-02 9.324988630E-01
 3.524167906E-01 9.879037045E-02 9.417603985E-01
 2.880806035E-01 8.813136164E-02 9.164685683E-01
 6.300944522E-01 -7.313502725E-02 7.622115955E-01
 1.623703286E+00 -8.635204284E-02 7.310765868E-01
 3.144926702E-01 8.363646489E-02 9.284323898E-01
 5.532355813E-01 -7.926456478E-02 8.307152795E-01
 5.241077120E-01 -7.926077246E-02 8.620155867E-01
 5.042135436E-01 -8.479076525E-02 8.855158522E-01
 1.707634135E-01 -8.013041477E-02 8.948704933E-01
 1.491028418E-01 -8.263473724E-02 8.775097347E-01
 1.409826727E-01 -6.141897537E-02 8.806171817E-01
 1.262861177E-01 -7.267182636E-02 8.636817653E-01
 9.806282239E-01 5.562986150E-02 6.946863473E-01
 9.438100590E-01 5.464114750E-02 7.295919321E-01
 9.917320688E-01 2.709270257E-02 6.633567838E-01
 9.416638689E-01 2.886814385E-02 7.199518442E-01
 9.560895619E-01 2.072295173E-02 7.007594925E-01
 9.135954936E-01 5.713585995E-02 7.567158427E-01
 8.786037706E-01 3.826947242E-02 7.814511401E-01
 9.004466044E-01 4.116007401E-02 7.636368658E-01
 8.836920150E-01 6.328301260E-02 7.810405477E-01
 8.394411661E-01 1.180068218E-01 8.075636222E-01
 8.446178874E-01 7.535800536E-02 8.049308548E-01
 8.159914219E-01 4.216866905E-02 8.195045287E-01
 8.915784523E-01 2.999980878E-02 7.703513378E-01
 8.640731384E-01 3.516472848E-02 7.934252094E-01
 8.606776127E-01 5.053401271E-02 7.952306578E-01
 8.228501085E-01 1.838168713E-01 8.070376711E-01
 1.029178465E+00 -1.592593621E-02 6.343239699E-01
 1.003375445E+00 -2.867854289E-02 6.232074782E-01
 9.919766827E-01 -7.159381411E-02 6.386609867E-01
 9.697966187E-01 -3.696753236E-02 6.125276771E-01
 9.865802929E-01 -1.521628141E-02 6.021886353E-01
 3.364372580E-01 8.403172349E-02 9.381193489E-01
 8.892793903E-01 -1.164634073E-02 6.042854198E-01
 2.429474373E-01 -8.231443776E-02 9.405161665E-01
 -2.733366005E-02 7.219396873E-03 4.396600278E-01
 -6.123145751E-03 1.731359043E-02 4.789748186E-01
 1.113651689E-02 1.641471526E-02 6.463060820E-01
 4.966526680E-03 1.372520762E-02 5.575135013E-01
 1.725054596E+00 -3.244823569E-01 7.294321452E-01
 9.331664735E-01 -4.307229754E-02 6.178371847E-01
 9.098752897E-01 -6.107628225E-02 6.278270648E-01
 7.321122006E-01 -4.447335749E-02 6.923289168E-01
 3.910185117E-01 -7.670017274E-02 1.015792595E+00
 3.390812663E-01 -9.254449691E-02 9.972969739E-01
 3.132411675E-01 -9.269045767E-02 9.820417697E-01
 2.009875890E-01 8.174268407E-02 8.786061547E-01
 1.782416019E-01 8.399218253E-02 8.684514174E-01
 1.373332406E-01 7.223840869E-02 8.467751065E-01
 1.684170559E-01 6.464340681E-02 8.638953788E-01
 9.730040102E-01 5.128661157E-01 7.794549265E-01
 7.696894180E-01 -2.558527625E-02 6.658015391E-01
 8.738220994E-01 9.694191127E-02 7.902019760E-01
 8.090523374E-01 9.246647885E-02 8.251216275E-01
 7.895451742E-01 1.303827374E-01 8.322290730E-01
 7.394576937E-01 1.171432959E-01 8.624637935E-01
 6.903651080E-01 1.023131971E-01 8.908794810E-01
 6.485722252E-01 1.040894769E-01 9.177216257E-01
 6.330684077E-01 1.584404818E-01 9.146598308E-01
 6.003316661E-01 1.116681566E-01 9.444853663E-01
 5.756450964E-01 6.849990413E-02 9.687345953E-01
 6.229792688E-01 8.746080537E-02 9.377416033E-01
 6.223188577E-01 6.883333329E-02 9.400203613E-01
 7.240177706E-01 8.723134504E-02 8.745574285E-01
 7.569443081E-01 8.654671184E-02 8.559433711E-01
 7.850060492E-01 7.229521382E-02 8.383489951E-01
 7.419131915E-01 6.785986057E-02 8.648023786E-01
 7.197671960E-01 6.644763758E-02 8.767392048E-01
 6.115977385E-01 6.468270784E-02 9.480153109E-01
 6.382593125E-01 7.796770501E-02 9.295042252E-01
 6.560459539E-01 7.500036804E-02 9.174667155E-01
 8.137206148E-01 5.930249006E-02 8.215283874E-01
 7.788348067E-01 5.462046157E-02 8.410380868E-01
 6.779467585E-01 8.000627370E-02 9.045146682E-01
 6.993477792E-01 7.282103803E-02 8.886636551E-01
 5.615924428E-01 1.148011680E-01 9.648769316E-01
 5.361158278E-01 9.956951784E-02 9.785911608E-01
 5.584002518E-01 9.361118066E-02 9.743052363E-01
 5.792363189E-01 8.778260421E-02 9.634016682E-01
 8.140038561E-02 -2.663194659E-01 7.604518877E-01
 5.897497462E-01 6.926352830E-02 9.599164590E-01
 4.795768465E-01 7.729509975E-02 9.869724353E-01
 5.077409600E-01 9.249295808E-02 9.839206402E-01
 4.921923131E-01 7.592329256E-02 9.875035317E-01
 3.634229991E-01 7.176189424E-02 9.493116513E-01
 3.703108780E-01 8.561888461E-02 9.507029407E-01
 3.390274587E-02 -5.138961346E-02 7.167929121E-01
 5.140562690E-01 7.368319817E-02 9.903828311E-01
 6.833945995E-01 6.190175769E-02 8.991020621E-01
 6.920133386E-01 -3.658801392E-02 7.124130738E-01
 3.016971718E-01 -7.680450797E-02 9.866708701E-01
 4.303408165E-01 -7.640717164E-02 9.891783666E-01
 8.028330045E-01 -1.704146529E-02 6.457366823E-01
 5.380683708E-01 7.058046094E-02 9.876914604E-01
 7.417012124E-01 5.178599172E-02 8.629628318E-01
 7.020256617E-03 3.463882328E-02 6.388303670E-01
 1.694081421E-02 2.003166685E-02 6.810547242E-01
 3.121565337E-02 5.088350334E-02 7.256494944E-01
 7.602699857E-03 2.373256793E-02 6.286676933E-01
 4.850623824E-02 6.641883992E-02 7.556810493E-01
 3.188234284E-02 3.465399892E-02 7.461745483E-01
 5.276613844E-01 8.180752094E-02 9.865339502E-01
 3.280137542E-01 -7.681825711E-02 1.001840552E+00
 4.809935351E-01 -8.172385527E-02 9.174639416E-01
 8.408558367E-01 5.306507442E-02 8.074372727E-01
 6.273053482E-01 -5.257121701E-02 7.613217178E-01
 8.063271791E-01 4.278456705E-02 8.245809788E-01
 8.292272185E-01 -1.748865978E-02 6.323656512E-01
 3.133974596E+00 6.339745962E-01 7.328434670E-01
 2.246202369E-01 7.947076680E-02 8.895141823E-01