TITLE     = "Visualization of the solution"
VARIABLES = "x"
"y"
"Mach"
ZONE T="Zone"
 STRANDID=0, SOLUTIONTIME=0
 Nodes=706, Elements=1197, ZONETYPE=FEQuadrilateral
 DATAPACKING=POINT
 DT=(DOUBLE DOUBLE DOUBLE )
 9.998798370E-01 5.107413745E-04 5.374639117E-01
 9.893618822E-01 2.710268833E-03 6.316304333E-01
 9.770117998E-01 5.168531556E-03 6.325844059E-01
 9.606968164E-01 8.479540236E-03 6.732540800E-01
 9.460490346E-01 1.152549218E-02 6.922464509E-01
 9.307356477E-01 1.463450957E-02 7.155360835E-01
 9.189583063E-01 1.701849326E-02 7.314349775E-01
 9.072651267E-01 1.937060803E-02 7.472331325E-01
 8.954861164E-01 2.168165520E-02 7.593072982E-01
 8.838721514E-01 2.392964065E-02 7.735211823E-01
 8.721535802E-01 2.618552186E-02 7.873501091E-01
 8.598552942E-01 2.845604718E-02 8.002412378E-01
 8.475368619E-01 3.070715256E-02 8.105651406E-01
 8.365297318E-01 3.261184692E-02 8.190880823E-01
 8.251354694E-01 3.459395096E-02 8.288086347E-01
 8.126753569E-01 3.668269515E-02 8.383998650E-01
 8.000375032E-01 3.874755651E-02 8.474814083E-01
 7.873046994E-01 4.078797251E-02 8.572539391E-01
 7.749245167E-01 4.271541163E-02 8.655002066E-01
 7.629699111E-01 4.451745376E-02 8.748847649E-01
 7.495548725E-01 4.652371630E-02 8.859213659E-01
 7.355232835E-01 4.852926731E-02 8.974664426E-01
 7.248852849E-01 5.001755804E-02 9.075634285E-01
 7.139641047E-01 5.150918290E-02 9.159881073E-01
 7.022800446E-01 5.302469060E-02 9.272305259E-01
 6.891651750E-01 5.474473536E-02 9.391820984E-01
 6.760897040E-01 5.631088838E-02 9.476375617E-01
 6.661198139E-01 5.748531967E-02 9.581814045E-01
 6.548435092E-01 5.876720697E-02 9.710883801E-01
 6.431632042E-01 6.003991514E-02 9.820723668E-01
 6.312668920E-01 6.124509871E-02 9.915971878E-01
 6.199182868E-01 6.235051155E-02 1.002611923E+00
 6.093510985E-01 6.331317872E-02 1.015195716E+00
 5.969825983E-01 6.441108137E-02 1.024903199E+00
 5.853673220E-01 6.531097740E-02 1.030936669E+00
 5.722340345E-01 6.628824770E-02 1.038203832E+00
 5.600544214E-01 6.710745394E-02 1.043768326E+00
 5.481246710E-01 6.783598661E-02 1.044893608E+00
 5.373100042E-01 6.840863079E-02 1.043477527E+00
 5.257814527E-01 6.898035854E-02 1.041008170E+00
 5.133253932E-01 6.948928535E-02 1.039372968E+00
 5.020976663E-01 6.991146505E-02 1.038554974E+00
 4.887303710E-01 7.031608373E-02 1.035536847E+00
 4.752208292E-01 7.063465565E-02 1.029594825E+00
 4.611929655E-01 7.084319741E-02 1.023633794E+00
 4.480397701E-01 7.098097354E-02 1.019465347E+00
 4.354158938E-01 7.102961093E-02 1.013861694E+00
 4.228307605E-01 7.099188119E-02 1.008079488E+00
 4.107646644E-01 7.090879232E-02 1.003098725E+00
 3.987564147E-01 7.074767351E-02 9.977116190E-01
 3.863802850E-01 7.051829994E-02 9.930296499E-01
 3.746486604E-01 7.024616003E-02 9.880565560E-01
 3.615144193E-01 6.986273825E-02 9.823605009E-01
 3.486481905E-01 6.941034645E-02 9.769894301E-01
 3.356319666E-01 6.888458133E-02 9.726164599E-01
 3.244213760E-01 6.836806238E-02 9.678296887E-01
 3.113755286E-01 6.769982725E-02 9.624692752E-01
 2.979353964E-01 6.690744311E-02 9.556208796E-01
 2.839604616E-01 6.600312889E-02 9.491179252E-01
 2.715785801E-01 6.512543559E-02 9.439473631E-01
 2.598713934E-01 6.423175335E-02 9.384573627E-01
 2.473110855E-01 6.317070872E-02 9.322871923E-01
 2.352623194E-01 6.210121140E-02 9.268500350E-01
 2.227276266E-01 6.087660044E-02 9.209343373E-01
 2.109542042E-01 5.965812877E-02 9.160377851E-01
 1.989099830E-01 5.833164975E-02 9.106013041E-01
 1.866023988E-01 5.686899647E-02 9.035843463E-01
 1.747551262E-01 5.535988510E-02 8.961999212E-01
 1.635878831E-01 5.385463312E-02 8.885650295E-01
 1.514251232E-01 5.210017040E-02 8.819556748E-01
 1.406760514E-01 5.046486109E-02 8.745722196E-01
 1.288731992E-01 4.853603616E-02 8.655368857E-01
 1.174910888E-01 4.654303193E-02 8.562374270E-01
 1.069015637E-01 4.458134994E-02 8.477806711E-01
 9.685666859E-02 4.259070009E-02 8.377086536E-01
 8.569221944E-02 4.022144526E-02 8.241978494E-01
 7.387861609E-02 3.750221804E-02 8.103288053E-01
 6.386636943E-02 3.499803692E-02 7.976131363E-01
 5.378472432E-02 3.226334229E-02 7.838040677E-01
 4.527662322E-02 2.973783389E-02 7.698433181E-01
 3.785856441E-02 2.734399959E-02 7.528697198E-01
 3.127350286E-02 2.501672320E-02 7.346695129E-01
 2.569843642E-02 2.287055925E-02 7.182343325E-01
 2.168454230E-02 2.119726501E-02 7.017062005E-01
 1.782638207E-02 1.945347153E-02 6.871771304E-01
 1.472229324E-02 1.792363822E-02 6.560269737E-01
 1.182109769E-02 1.637654938E-02 6.330126876E-01
 9.648929350E-03 1.511176862E-02 5.788378421E-01
 7.803092711E-03 1.394514926E-02 6.092153803E-01
 6.154065020E-03 1.281648688E-02 5.963866956E-01
 3.945391625E-03 1.110451110E-02 5.563479038E-01
 2.001288580E-03 9.318228811E-03 4.437723579E-01
 3.760138643E-04 7.456416730E-03 3.256733913E-01
 -1.215373399E-03 4.768560641E-03 1.391193576E-01
 -1.799561898E-03 2.795578679E-03 3.231765404E-02
 -1.912349369E-03 1.265236177E-03 4.968709250E-02
 -1.716774656E-03 -3.185258829E-04 1.848350722E-01
 -1.232096925E-03 -1.815328375E-03 3.118423851E-01
 -2.596731065E-04 -3.636542009E-03 4.435498529E-01
 1.159685315E-03 -5.475762300E-03 5.575380719E-01
 3.093646141E-03 -7.384326775E-03 5.928948176E-01
 4.839016125E-03 -8.800377138E-03 6.234533400E-01
 6.856599823E-03 -1.021498814E-02 6.493214062E-01
 8.497538976E-03 -1.123946998E-02 6.747174953E-01
 1.057220530E-02 -1.242214628E-02 6.979101935E-01
 1.290048473E-02 -1.363102347E-02 7.159513765E-01
 1.620270312E-02 -1.516934112E-02 7.300735725E-01
 1.908444613E-02 -1.638990827E-02 7.468297347E-01
 2.282569371E-02 -1.784365997E-02 7.600106084E-01
 2.810638398E-02 -1.969220303E-02 7.730798680E-01
 3.380458802E-02 -2.148472890E-02 7.780050736E-01
 4.083192348E-02 -2.347627655E-02 7.855908400E-01
 4.842334613E-02 -2.542536333E-02 7.956492222E-01
 5.761446059E-02 -2.755902708E-02 8.020648552E-01
 6.650936604E-02 -2.944566682E-02 8.075054030E-01
 7.663476467E-02 -3.142819181E-02 8.150361305E-01
 8.665474504E-02 -3.324184194E-02 8.231696306E-01
 9.674209356E-02 -3.494483232E-02 8.304350725E-01
 1.077214479E-01 -3.668144345E-02 8.362172573E-01
 1.188890338E-01 -3.833633289E-02 8.407458608E-01
 1.306556165E-01 -3.997220844E-02 8.458317668E-01
 1.415501386E-01 -4.140020162E-02 8.509148249E-01
 1.529726237E-01 -4.281259701E-02 8.563035695E-01
 1.653379202E-01 -4.425217211E-02 8.621240263E-01
 1.771459430E-01 -4.553863406E-02 8.685885369E-01
 1.892674565E-01 -4.678774998E-02 8.752334164E-01
 2.001373470E-01 -4.782603309E-02 8.812473563E-01
 2.115904540E-01 -4.886673763E-02 8.876835056E-01
 2.240291238E-01 -4.991753772E-02 8.950697228E-01
 2.367763221E-01 -5.089434981E-02 9.027205104E-01
 2.493930757E-01 -5.178998038E-02 9.108170262E-01
 2.617679536E-01 -5.256316066E-02 9.188739410E-01
 2.730151415E-01 -5.321130529E-02 9.267768443E-01
 2.855551541E-01 -5.382084846E-02 9.345048920E-01
 2.981678545E-01 -5.435784161E-02 9.421479814E-01
 3.108710051E-01 -5.478250608E-02 9.501116929E-01
 3.227308691E-01 -5.508667603E-02 9.567274410E-01
 3.355031312E-01 -5.529293790E-02 9.619345982E-01
 3.465773463E-01 -5.539439991E-02 9.674618013E-01
 3.580670953E-01 -5.539814383E-02 9.726670704E-01
 3.687931001E-01 -5.528857931E-02 9.739286101E-01
 3.795797825E-01 -5.510503426E-02 9.725165276E-01
 3.910279870E-01 -5.481588840E-02 9.700641774E-01
 4.042225778E-01 -5.433124304E-02 9.647658427E-01
 4.169909954E-01 -5.374936759E-02 9.570986094E-01
 4.297285676E-01 -5.300933868E-02 9.470373253E-01
 4.421547949E-01 -5.217816681E-02 9.346102416E-01
 4.537391067E-01 -5.131183937E-02 9.217398120E-01
 4.652531445E-01 -5.032069236E-02 9.050223406E-01
 4.774438441E-01 -4.918520153E-02 8.873557955E-01
 4.889520705E-01 -4.805015773E-02 8.714536815E-01
 5.017359257E-01 -4.668314382E-02 8.561769060E-01
 5.155478716E-01 -4.513625056E-02 8.410392636E-01
 5.288056135E-01 -4.354482144E-02 8.249271250E-01
 5.423327684E-01 -4.187121615E-02 8.097573306E-01
 5.548011661E-01 -4.028427601E-02 7.963834703E-01
 5.684025288E-01 -3.850711882E-02 7.834295073E-01
 5.814560056E-01 -3.678517416E-02 7.713510542E-01
 5.931246281E-01 -3.519222885E-02 7.591875451E-01
 6.056984067E-01 -3.348556533E-02 7.487528421E-01
 6.206203103E-01 -3.145240247E-02 7.384580645E-01
 6.355023980E-01 -2.942710370E-02 7.277468270E-01
 6.509615183E-01 -2.727494948E-02 7.159290803E-01
 6.638708711E-01 -2.552510984E-02 7.066985101E-01
 6.772371531E-01 -2.369897626E-02 6.987980169E-01
 6.900117397E-01 -2.198579721E-02 6.904599761E-01
 7.022117376E-01 -2.032457106E-02 6.817688458E-01
 7.165188193E-01 -1.843203604E-02 6.731316194E-01
 7.296405435E-01 -1.671923324E-02 6.661451205E-01
 7.420485020E-01 -1.517233625E-02 6.607562646E-01
 7.555153966E-01 -1.345174853E-02 6.530815962E-01
 7.674644589E-01 -1.197969913E-02 6.449773400E-01
 7.805439234E-01 -1.039307378E-02 6.373128322E-01
 7.921834588E-01 -9.026805870E-03 6.295345789E-01
 8.048619628E-01 -7.592912298E-03 6.228534906E-01
 8.160636425E-01 -6.399524864E-03 6.173341051E-01
 8.275978565E-01 -5.192513578E-03 6.115006819E-01
 8.404525518E-01 -3.936306573E-03 6.045168890E-01
 8.527145386E-01 -2.807155717E-03 5.978730681E-01
 8.651200533E-01 -1.787816756E-03 5.924084230E-01
 8.762305975E-01 -9.299792000E-04 5.868544633E-01
 8.878899813E-01 -1.674263185E-04 5.829409803E-01
 9.010372162E-01 5.466014845E-04 5.797435056E-01
 9.113603830E-01 9.952844121E-04 5.770320514E-01
 9.215813875E-01 1.347890007E-03 5.758125152E-01
 9.308676124E-01 1.569249667E-03 5.754021377E-01
 9.393892884E-01 1.697790110E-03 5.756419156E-01
 9.505727291E-01 1.762236934E-03 5.771222996E-01
 9.624899030E-01 1.699087559E-03 5.796312889E-01
 9.759932756E-01 1.461026724E-03 5.754640408E-01
 9.880112410E-01 1.091729850E-03 5.949379725E-01
 -5.000000000E-01 -1.000000000E+00 7.122109860E-01
 3.500000000E+00 -1.000000000E+00 7.306257086E-01
 3.500000000E+00 1.000000000E+00 7.277285784E-01
 -5.000000000E-01 1.000000000E+00 7.110797183E-01
 -5.000000000E-01 5.000000000E-01 6.978406707E-01
 -5.000000000E-01 2.752797990E-12 6.851917306E-01
 -5.000000000E-01 -5.000000000E-01 6.979429313E-01
 -9.421907698E-13 -1.000000000E+00 7.231580689E-01
 5.000000000E-01 -1.000000000E+00 7.404215109E-01
 1.000000000E+00 -1.000000000E+00 7.267058565E-01
 1.500000000E+00 -1.000000000E+00 7.176467387E-01
 2.000000000E+00 -1.000000000E+00 7.204277876E-01
 2.500000000E+00 -1.000000000E+00 7.250989039E-01
 3.000000000E+00 -1.000000000E+00 7.276249167E-01
 3.500000000E+00 -5.000000000E-01 7.337021111E-01
 3.500000000E+00 -2.752797990E-12 7.355112770E-01
 3.500000000E+00 5.000000000E-01 7.323228272E-01
 3.000000000E+00 1.000000000E+00 7.256297116E-01
 2.500000000E+00 1.000000000E+00 7.287588951E-01
 2.000000000E+00 1.000000000E+00 7.353001090E-01
 1.500000000E+00 1.000000000E+00 7.513033592E-01
 1.000000000E+00 1.000000000E+00 7.764292088E-01
 5.000000000E-01 1.000000000E+00 7.736386597E-01
 1.733724275E-12 1.000000000E+00 7.276308571E-01
 6.878766949E-01 -3.715759960E-02 6.989976601E-01
 7.866200369E-01 -2.116626507E-02 6.403067591E-01
 9.059389316E-01 -8.629235698E-03 5.873206434E-01
 2.782069431E-01 -6.765312604E-02 9.274969892E-01
 7.093922475E-01 6.205954734E-02 9.184204844E-01
 2.903242760E-01 7.652601660E-02 9.476293178E-01
 3.790772733E-01 7.967875962E-02 9.856259381E-01
 9.166698610E-01 3.270008323E-02 7.403654326E-01
 8.226398332E-01 5.061417733E-02 8.314528549E-01
 5.625831688E-01 -5.167112934E-02 7.919890185E-01
 1.799681050E-01 -5.600767715E-02 8.692786972E-01
 6.034867048E-01 7.616488618E-02 1.016038007E+00
 3.993936341E-01 -6.636046335E-02 9.614427291E-01
 5.090624863E-01 8.152819755E-02 1.034005100E+00
 1.833494150E+00 -6.043213232E-01 7.267887329E-01
 1.781953993E+00 5.412791040E-01 7.433920615E-01
 3.031177116E+00 2.156832678E-01 7.382842591E-01
 7.474716729E-01 -6.695982884E-01 7.379711273E-01
 4.746754107E-01 -6.320206089E-02 8.907924854E-01
 7.925433128E-01 6.180126217E-01 8.246687301E-01
 3.337143987E-01 6.153198287E-01 8.058307049E-01
 1.228400234E-01 5.651036574E-02 8.532235830E-01
 1.781909752E-01 6.907293486E-02 8.900598799E-01
 2.734844306E+00 -5.326953248E-01 7.338007128E-01
 1.222106572E+00 6.766789130E-01 7.588005099E-01
 9.946937658E-01 3.517022914E-01 7.585479818E-01
 1.273072209E+00 -5.941948634E-01 7.145030984E-01
 1.501593226E+00 -2.120943190E-01 7.263639936E-01
 1.415438913E-01 -5.847541742E-01 7.483564696E-01
 8.348810120E-02 -4.192821644E-02 8.166785055E-01
 2.248456982E+00 -5.894509939E-01 7.308872531E-01
 1.983191665E+00 -2.192882791E-01 7.356110311E-01
 2.413182846E+00 -1.879449798E-01 7.384586697E-01
 2.184608394E+00 1.581956304E-01 7.417040452E-01
 1.803952511E+00 1.355183291E-01 7.401043270E-01
 -2.709716934E-01 -2.545943651E-01 6.811040447E-01
 -1.715215476E-01 -5.723631985E-01 7.104296490E-01
 -2.716855238E-01 2.301754608E-01 6.762316054E-01
 -1.311858387E-01 6.381025357E-01 7.207260232E-01
 4.994518949E-03 3.674198825E-01 7.293644802E-01
 4.524827326E-02 3.871708927E-02 7.462109364E-01
 2.191387971E+00 6.008269687E-01 7.390155454E-01
 2.738063424E+00 6.037894130E-01 7.352771019E-01
 -2.509521467E-01 -9.530696944E-04 6.584208022E-01
 -1.420238515E-01 -1.287830058E-01 6.534767783E-01
 3.721233857E-02 -3.073027814E-02 7.568762842E-01
 3.236828469E-02 -3.682390715E-01 7.363677680E-01
 3.042804338E-01 -3.221540402E-01 8.302791878E-01
 3.390098136E-01 -6.328099440E-02 9.608691287E-01
 -1.134821555E-01 1.166432826E-01 6.403991406E-01
 -1.205039341E-01 -3.413536994E-03 6.103791161E-01
 -5.637449124E-02 -6.646405850E-02 6.018036307E-01
 -4.992378352E-02 -1.499502747E-01 6.682587221E-01
 4.884574932E-03 -9.389029696E-02 6.833779777E-01
 2.804638368E-02 -1.998521844E-01 7.292336816E-01
 1.379368881E-01 -5.288437461E-02 8.480800446E-01
 1.587480294E-01 -5.667909964E-02 8.582398192E-01
 1.675640647E-02 -1.963436121E-02 7.058447133E-01
 -1.137571478E-02 -5.155686232E-02 6.063929862E-01
 -5.435512882E-02 -5.258165870E-03 5.313061117E-01
 7.008127820E-02 -1.150477153E-01 7.751073881E-01
 1.168533669E-01 -1.589777430E-01 8.024122034E-01
 2.308163039E-01 -6.436361204E-02 8.975566097E-01
 1.186230019E-01 -1.003659357E-01 8.290530558E-01
 1.767844308E-01 -1.246784609E-01 8.530256872E-01
 1.830176618E-01 -1.766858701E-01 8.379092389E-01
 2.464872588E-01 -1.439624632E-01 8.816109701E-01
 1.289161266E-01 -2.467462671E-01 7.883542141E-01
 3.109358481E+00 -2.612782016E-01 7.374136394E-01
 2.244099110E-01 -1.040088237E-01 8.870717761E-01
 2.592000999E-01 -1.026578476E-01 9.079613525E-01
 2.974751867E-01 -1.443085382E-01 9.036382607E-01
 2.548166185E-01 -6.551408239E-02 9.130046953E-01
 3.110834914E-01 -1.095181129E-01 9.304900105E-01
 3.486041711E-01 -1.333992792E-01 9.267866798E-01
 3.054639450E-01 -6.404395722E-02 9.442611445E-01
 3.341685740E-01 -1.870038017E-01 8.948939705E-01
 3.967255959E-01 -1.805040905E-01 8.962387364E-01
 4.354316584E-01 -6.541503680E-02 9.358324308E-01
 3.998656184E-01 -1.212208289E-01 9.297991325E-01
 3.777754323E-01 -2.532192550E-01 8.618640131E-01
 4.701144951E-01 -2.367097130E-01 8.418968213E-01
 4.366540080E-01 -3.422287227E-01 8.202636454E-01
 5.734232604E-01 -3.049965895E-01 7.808238692E-01
 6.090943795E-01 -2.060788550E-01 7.681679614E-01
 6.313492364E-01 -4.091611893E-02 7.363293531E-01
 5.953933468E-01 -4.778855141E-02 7.631136791E-01
 6.832055205E-01 -2.487656518E-01 7.373872847E-01
 7.190895966E-01 -1.715353727E-01 7.148677976E-01
 8.475614185E-01 -1.399092316E-02 6.094924424E-01
 7.845465201E-01 -2.294891309E-01 7.012216906E-01
 9.670011896E-01 -1.006227679E-02 5.910765991E-01
 7.363247845E-01 -2.823390297E-02 6.689555233E-01
 8.182935199E-01 -1.417787947E-01 6.754204854E-01
 8.806675520E-01 -1.865519525E-01 6.733040527E-01
 9.051800159E-01 -1.100934555E-01 6.484909521E-01
 8.821722563E-01 -2.986489502E-01 6.949513699E-01
 9.954397270E-01 -2.563060089E-01 6.829298055E-01
 5.090681740E-01 -1.593485525E-01 8.350316870E-01
 5.250997323E-01 -5.743479659E-02 8.317415867E-01
 7.449762139E-01 -9.726661133E-02 6.927991791E-01
 8.401450314E-01 -7.582640669E-02 6.494609912E-01
 6.256569027E-01 -1.317218560E-01 7.573700778E-01
 9.768307461E-01 -4.479176361E-01 7.074575840E-01
 5.468143059E-01 -4.797637434E-01 7.744461647E-01
 1.129949189E+00 -3.172802968E-01 7.015347349E-01
 1.163053179E+00 -1.749514028E-01 6.990682127E-01
 1.030080507E+00 -1.292267574E-01 6.699007286E-01
 3.677144745E-01 -1.032340840E-01 9.501754207E-01
 3.749421736E-01 -6.799089512E-02 9.676702138E-01
 2.550471382E-01 -2.206636721E-01 8.508107901E-01
 3.388100909E-01 -9.270261041E-02 9.487841256E-01
 1.695782457E-02 -5.956253652E-02 6.877276747E-01
 4.994936183E-02 -6.838711567E-02 7.603592347E-01
 5.019552955E-02 -3.364893180E-02 7.800967558E-01
 8.748692250E-02 -7.847537505E-02 8.137850679E-01
 1.092992502E-01 -4.799394742E-02 8.342568705E-01
 1.314713819E+00 -3.138938287E-01 7.175802114E-01
 1.297928468E+00 -8.909367353E-02 7.112350250E-01
 1.179616489E+00 2.606267143E-02 6.979474407E-01
 1.314098633E+00 8.386895408E-02 7.219289508E-01
 1.189675056E+00 1.613963555E-01 7.196860695E-01
 1.341940946E+00 2.579476836E-01 7.353330484E-01
 1.083497359E+00 8.183282481E-02 6.948380035E-01
 9.739380439E-01 2.167121492E-02 6.597039649E-01
 1.092101720E+00 3.124842082E-03 6.697175628E-01
 1.488516189E+00 2.911119076E-04 7.283237034E-01
 1.042694424E+00 4.294755609E-02 6.701360781E-01
 1.017434913E+00 1.056993961E-01 6.980857078E-01
 -2.548301348E-02 -2.085641478E-02 4.819130881E-01
 4.780131639E-03 -1.107982134E-02 6.008159629E-01
 1.038129891E+00 -6.928627926E-03 6.356397434E-01
 1.063383626E+00 -5.199329714E-02 6.602139700E-01
 1.015234013E+00 -4.653612238E-02 6.388811041E-01
 9.655233278E-01 -9.013089146E-02 6.423238984E-01
 3.290955899E-01 -6.287830762E-02 9.573779486E-01
 9.746437824E-01 -4.910743798E-02 6.207115713E-01
 9.356539290E-01 -6.588113391E-03 5.828407045E-01
 9.269352776E-01 -6.075243436E-02 6.257594238E-01
 9.471052786E-01 -3.435409076E-02 6.081801092E-01
 9.925720029E-01 -2.804569586E-02 6.129632111E-01
 9.539628821E-01 -1.803055839E-02 5.940078325E-01
 4.506306143E-01 -1.515135006E-01 8.845055766E-01
 4.423988190E-01 -1.073566221E-01 9.128526622E-01
 4.893965469E-01 -1.070164495E-01 8.664441411E-01
 4.926405130E-01 -5.916046000E-02 8.681467535E-01
 5.356747649E-01 -1.126239666E-01 8.212364645E-01
 3.497485970E-01 -6.815772901E-02 9.628206984E-01
 6.098057981E-02 -4.975316722E-02 7.839381321E-01
 9.984915499E-01 5.948295496E-02 6.793794500E-01
 9.488772313E-01 9.806691368E-02 7.304227901E-01
 8.680603912E-01 3.966805707E-02 7.923320119E-01
 9.743755682E-01 1.619191067E-01 7.351923636E-01
 8.957282106E-01 1.702636935E-01 7.763761779E-01
 7.558877023E-01 5.521431857E-02 8.819566072E-01
 7.838602068E-01 5.110795540E-02 8.609101587E-01
 8.865686288E-01 1.080856060E-01 7.803904791E-01
 8.253835121E-01 1.476091698E-01 8.240245089E-01
 8.344213879E-01 2.165100837E-01 8.187827361E-01
 7.515033249E-01 2.042041523E-01 8.679204505E-01
 6.500867689E-01 6.934659832E-02 9.741663765E-01
 6.702546561E-01 6.631817156E-02 9.532707779E-01
 7.540576625E-01 1.303274765E-01 8.749327283E-01
 6.813663828E-01 1.674838482E-01 9.205601629E-01
 6.802304913E-01 2.343040081E-01 9.119790502E-01
 6.017422350E-01 1.991796198E-01 9.556096069E-01
 4.418360066E-01 8.779708392E-02 1.009853914E+00
 4.701795550E-01 8.816852932E-02 1.019390525E+00
 4.183780522E-01 8.243490145E-02 1.001712683E+00
 5.558459250E-01 7.716278581E-02 1.038950986E+00
 5.309722766E-01 8.124640585E-02 1.036049807E+00
 5.999770713E-01 2.971823252E-01 9.194436541E-01
 5.123376461E-01 2.429680104E-01 9.474421838E-01
 5.294503293E-01 1.625818835E-01 9.900536277E-01
 4.464275864E-01 1.836294281E-01 9.638032513E-01
 4.154359876E-01 2.854532415E-01 9.149956879E-01
 3.503720329E-01 2.048260794E-01 9.236630062E-01
 3.309290428E-01 7.848882224E-02 9.672697851E-01
 3.181656365E-01 2.961494574E-01 8.769218155E-01
 2.465528056E-01 2.175908730E-01 8.684782404E-01
 2.281690021E-01 7.465317344E-02 9.172394900E-01
 2.522808404E-01 7.418605865E-02 9.294722576E-01
 2.036687947E-01 7.322985705E-02 9.045096763E-01
 5.902136119E-01 1.372221975E-01 9.954509359E-01
 3.870388164E-01 1.483721773E-01 9.636658445E-01
 3.370646876E-01 1.453170064E-01 9.439633505E-01
 1.953722666E-01 3.414521248E-01 8.092085395E-01
 7.022135684E-01 1.115596791E-01 9.182146953E-01
 6.568364468E-01 1.228374880E-01 9.523296293E-01
 4.783840864E-01 1.358543485E-01 1.000567207E+00
 4.982467889E-01 3.422839153E-01 9.105028095E-01
 8.015040052E-01 1.006798792E-01 8.448832192E-01
 5.506394321E-01 1.199381791E-01 1.017623521E+00
 5.133705707E-01 1.163130725E-01 1.017647673E+00
 7.405167675E-01 9.598183835E-02 8.926022863E-01
 7.334106141E-01 6.120789427E-02 9.009159731E-01
 7.628973119E-01 3.019857343E-01 8.579498121E-01
 3.644176603E-01 1.179166208E-01 9.648043656E-01
 3.540857278E-01 8.107012573E-02 9.742246569E-01
 5.777794340E-01 1.002575573E-01 1.021671532E+00
 5.812644119E-01 7.916886100E-02 1.027927171E+00
 7.683567901E-01 8.694756398E-02 8.714381593E-01
 3.971775838E-01 1.091569500E-01 9.817289073E-01
 4.320467016E-01 1.328643651E-01 9.875124786E-01
 6.724904944E-01 9.873104858E-02 9.458743107E-01
 9.134123086E-01 7.517778114E-02 7.563246053E-01
 8.921103973E-01 3.543610452E-02 7.673828415E-01
 7.453562724E-01 5.695629496E-02 8.909334588E-01
 5.680236349E-01 8.095483913E-02 1.034598040E+00
 5.946729663E-01 8.863739295E-02 1.017991013E+00
 6.148012205E-01 8.853957112E-02 1.001193201E+00
 6.259283189E-01 7.435455660E-02 9.933143911E-01
 6.432645946E-01 8.967845819E-02 9.743903533E-01
 3.667949494E-01 8.240231406E-02 9.796920204E-01
 5.196727020E-01 -7.909090677E-02 8.383286375E-01
 5.490593864E-01 -8.478151179E-02 8.106929795E-01
 5.791018037E-01 -9.994902839E-02 7.868946200E-01
 6.186402683E-01 -8.434059802E-02 7.568784187E-01
 6.633130231E-01 -8.524126004E-02 7.306552682E-01
 6.587886215E-01 -3.749079797E-02 7.154015058E-01
 6.466302507E-01 -4.217536581E-02 7.258315913E-01
 6.394756060E-01 -5.921287888E-02 7.374029623E-01
 5.876128091E-02 -3.789319865E-02 7.877563566E-01
 9.221631996E-01 -3.351383164E-02 6.065480262E-01
 8.985070972E-01 -4.002544240E-02 6.144416263E-01
 8.723551903E-01 -9.880999777E-03 5.963124897E-01
 -4.587463480E-03 -2.953113710E-02 5.467109598E-01
 1.170190088E-02 -3.864888881E-02 6.560495646E-01
 2.559901473E-02 -2.421350261E-02 7.356941856E-01
 8.597336018E-01 -1.223205659E-02 6.028118834E-01
 8.561947026E-01 -2.829745236E-02 6.160515377E-01
 8.238808560E-01 -1.801892092E-02 6.215507393E-01
 8.362874385E-01 -3.002938864E-02 6.242059715E-01
 8.140424527E-01 -3.237514964E-02 6.346041026E-01
 8.350313723E-01 -1.486047113E-02 6.144650912E-01
 9.553782258E-01 -1.544618132E-01 6.604361354E-01
 5.557167720E-01 9.272527400E-02 1.030635999E+00
 4.651756058E-01 -8.845500952E-02 8.992187742E-01
 6.146363547E-01 -5.287212735E-02 7.509394711E-01
 6.826408133E-01 6.607350034E-02 9.427078011E-01
 6.314394006E-01 4.425047012E-01 8.707593284E-01
 4.156029915E-01 -9.435695167E-02 9.400932633E-01
 3.902935578E-01 -8.384872252E-02 9.560286469E-01
 4.153449356E-01 -7.416422362E-02 9.486044095E-01
 6.382323632E-01 7.068437860E-02 9.829681398E-01
 4.383271757E-01 -8.344883574E-02 9.279203259E-01
 3.900372528E-01 8.453795951E-02 9.881507525E-01
 3.178395326E-01 -6.541960008E-02 9.512367806E-01
 8.117013974E-01 -1.654705069E-02 6.257379971E-01
 8.007845684E-01 -2.000423694E-02 6.328917621E-01
 7.932489808E-01 -3.632717651E-02 6.458615897E-01
 7.627647599E-01 -2.306391538E-02 6.530681076E-01
 8.046107754E-01 -5.531645185E-02 6.508870834E-01
 7.765059240E-01 -5.424303417E-02 6.639419978E-01
 7.766582412E-01 -3.414946736E-02 6.518209234E-01
 7.505560325E-01 -2.633419610E-02 6.615843821E-01
 7.445887802E-01 -3.781361106E-02 6.701309757E-01
 7.123033501E-01 -3.227623700E-02 6.826514401E-01
 7.276638505E-01 -4.291730506E-02 6.804177382E-01
 7.052582816E-01 -5.117047644E-02 6.951107123E-01
 6.827724905E-01 -5.852372267E-02 7.105832819E-01
 7.017994659E-01 -8.490203203E-02 7.077653555E-01
 5.444574863E-01 8.124702812E-02 1.037371710E+00
 5.387752689E-01 1.001030857E-01 1.028848267E+00
 5.191294146E-01 9.240622320E-02 1.029899001E+00
 9.905241125E-01 -6.714851491E-01 7.174162001E-01
 7.244988822E-01 -2.844808375E-02 6.741084002E-01
 3.308948519E-01 1.083760737E-01 9.545539097E-01
 2.949328284E-01 1.246746090E-01 9.328602653E-01
 6.146971259E-01 7.294454083E-02 1.006433355E+00
 5.440933993E-01 -6.344345387E-02 8.126680118E-01
 7.013410525E-02 -3.931784631E-02 8.014444495E-01
 3.870474270E-01 -6.562420073E-02 9.665104789E-01
 7.900552739E-01 -8.992161289E-02 6.711907425E-01
 1.575628445E-01 -9.078911965E-02 8.541794527E-01
 8.832184329E-01 -1.048439652E-02 5.928787924E-01
 8.765150656E-01 -2.412344335E-02 6.062725450E-01
 8.946878702E-01 -1.883033984E-02 5.976511498E-01
 9.221059082E-01 -1.797046461E-02 5.941094934E-01
 7.940911690E-01 4.935862480E-02 8.534696070E-01
 7.911495875E-01 6.742048665E-02 8.553513492E-01
 8.193022476E-01 7.214509884E-02 8.345339388E-01
 8.443207137E-01 4.444154075E-02 8.130767751E-01
 2.552429103E+00 2.123112907E-01 7.404964147E-01
 7.250345148E-01 -6.812603553E-02 6.917304773E-01
 1.697997117E+00 -1.202703365E-01 7.329387221E-01
 7.699362291E-01 6.017563834E-02 8.711589097E-01
 1.169012930E+00 3.512834349E-01 7.421305181E-01
 8.945544864E-01 -7.512959379E-03 5.881190341E-01
 4.065910084E-01 8.748361686E-02 9.947138567E-01
 8.830537929E-01 7.178190256E-02 7.812446063E-01
 7.466394907E-01 -5.622172453E-02 6.771478241E-01
 1.176562727E-01 2.256350074E-01 7.867557670E-01
 1.719767232E-01 1.601305139E-01 8.517817761E-01
 7.415817525E-02 1.497655465E-01 7.674479468E-01
 7.482185547E-02 4.984639681E-02 7.941064664E-01
 1.252614180E-01 1.280859610E-01 8.227347897E-01
 2.451401305E-01 1.434889305E-01 9.004540561E-01
 2.028373186E-01 1.174587510E-01 8.853203105E-01
 1.631567675E-01 1.083862316E-01 8.602783590E-01
 1.422663847E-01 6.676712976E-02 8.640092754E-01
 2.393979091E-01 1.120149161E-01 9.072825244E-01
 2.671815246E-01 1.045205689E-01 9.227370006E-01
 2.650533940E-01 8.156868031E-02 9.339895312E-01
 1.411161815E-01 5.092630293E-01 7.704119370E-01
 4.553901841E-01 1.055758041E-01 1.006818931E+00
 4.841479944E-01 1.050252982E-01 1.016483512E+00
 3.065486251E-01 9.820259972E-02 9.473431369E-01
 2.948124970E-01 1.671794997E-01 9.175714469E-01
 1.909358044E-01 -9.070097560E-02 8.719417285E-01
 2.017664337E-01 -5.870019386E-02 8.807166107E-01
 5.925706060E-01 -6.997249227E-02 7.722373414E-01
 1.549584670E+00 2.297220553E-01 7.396245460E-01
 1.463129889E+00 4.945875735E-01 7.459586081E-01
 6.970933130E-01 8.850362256E-02 9.297686668E-01
 9.271305674E-01 -8.408984086E-03 5.847525269E-01
 7.481035267E-01 7.059757574E-02 8.884187221E-01
 7.199293336E-01 7.778321909E-02 9.111787020E-01
 2.425611974E-01 8.814240489E-02 9.193751294E-01
 2.173078023E-01 8.977834398E-02 9.037957832E-01
 1.880521068E-01 8.631496769E-02 8.868826927E-01
 1.609578162E-01 7.826416473E-02 8.711340926E-01
 1.302737444E-01 9.020528275E-02 8.395415317E-01
 8.787890714E-02 1.000704907E-01 7.875433870E-01
 3.756257213E-02 1.121771077E-01 7.135671129E-01
 1.803550857E-02 2.639263583E-02 6.541578717E-01
 9.911114861E-02 5.635145562E-02 8.262580472E-01
 4.542364376E-03 1.826106488E-01 6.979587966E-01
 -1.138246855E-01 2.683422133E-01 6.847950248E-01
 5.341308663E-02 7.712391915E-02 7.416946828E-01
 1.889455590E-02 7.115378723E-02 6.660016840E-01
 -1.823435342E-02 1.002246619E-01 6.272790535E-01
 -5.766424968E-02 4.434728207E-02 5.545823092E-01
 5.491213194E-01 6.537190557E-01 8.335124666E-01
 -2.515979721E-02 1.535087169E-02 4.379237507E-01
 -7.746616755E-03 2.148148326E-03 2.338483687E-01
 4.379407688E-03 1.453416597E-02 5.675014356E-01
 -2.230338691E-04 1.006548378E-02 3.577907377E-01
 -1.098510467E-02 5.024438533E-02 5.587767529E-01
 -8.513072432E-04 2.443222802E-02 4.960046767E-01
 1.186715061E-02 1.994838193E-02 6.217622214E-01
 2.864400822E-01 -8.894329633E-02 9.266058521E-01
 3.641391644E-01 -8.003410477E-02 9.612026804E-01
 3.757895635E-01 9.522505218E-02 9.779446024E-01
 8.678718546E-01 -4.805741598E-02 6.260029481E-01
 4.849906247E-01 8.724458320E-02 1.026726951E+00
 -6.952108319E-03 -1.142387107E-02 4.326046386E-01
 -9.666442944E-04 -7.084566126E-03 4.547812291E-01
 -2.770704773E-03 -1.486670356E-03 2.628104782E-01
 9.362702815E-01 -1.810091823E-02 5.944706098E-01
 5.923548006E-01 7.473863978E-02 1.023650811E+00
 3.160923888E-01 8.387008156E-02 9.591518177E-01
 4.258087548E-01 9.817763550E-02 9.978771327E-01
 3.752088364E-01 4.403791112E-01 8.532914533E-01
 7.750294198E-01 -2.081866359E-02 6.455790416E-01
 1.017961258E+00 2.139224418E-02 6.410467063E-01
 9.948702137E-01 1.245640399E-02 6.190394580E-01
 3.314635516E-01 -7.465776132E-02 9.550990854E-01
 6.609833073E-01 -5.464606699E-02 7.213957963E-01
 5.196542047E-01 7.873009410E-02 1.035885119E+00
 6.791712564E-01 8.029785475E-02 9.429498750E-01
 6.995323608E-01 -3.258293626E-02 6.899086896E-01
 8.467215980E-01 4.215393609E-01 8.114919087E-01
 1.062507459E-01 7.391049863E-02 8.229251518E-01
 8.384161866E-02 6.794335175E-02 7.927394130E-01
 5.756054647E-02 5.795217778E-02 7.570442773E-01
 3.823583495E-02 5.758057822E-02 7.100298400E-01
 3.208039245E-02 3.246976285E-02 7.126595484E-01
 1.796647128E-02 4.481264072E-02 6.394616072E-01
 5.070780743E-01 -6.129780400E-02 8.519322725E-01
 3.126451614E-02 -4.632435571E-02 7.258238591E-01
 2.435985176E-02 -3.354668532E-02 7.100336186E-01
 1.734998939E-02 -2.772344191E-02 6.852665397E-01
 8.108891467E-03 -2.266242669E-02 6.200581646E-01
 7.973523071E-03 -1.276808152E-02 6.497102826E-01
 6.305643235E-03 -1.491261088E-02 6.026567928E-01
 1.397442341E-03 -1.486839428E-02 5.144869881E-01
 1.125997963E-02 -1.588571302E-02 6.699883415E-01
 4.031600604E-01 -7.055410712E-01 7.578496721E-01
 7.420663260E-01 -3.827399986E-01 7.285675348E-01
 2.940229971E-01 -6.825559754E-02 9.362215574E-01
 2.647353386E-01 -7.823386153E-02 9.174466465E-01
 2.425731248E-01 -7.971603109E-02 9.036038628E-01
 6.719215231E-01 -3.950704555E-02 7.086473975E-01
 5.689298356E-01 -7.150362665E-02 7.922631062E-01