TITLE     = "Visualization of the solution"
VARIABLES = "x"
"y"
"Mach"
ZONE T="Zone"
 STRANDID=0, SOLUTIONTIME=0
 Nodes=684, Elements=1153, ZONETYPE=FEQuadrilateral
 DATAPACKING=POINT
 DT=(DOUBLE DOUBLE DOUBLE )
 9.996291995E-01 5.174541730E-04 5.723432936E-01
 9.851635695E-01 3.166107927E-03 6.299920304E-01
 9.724075198E-01 5.481761415E-03 6.691737114E-01
 9.570094943E-01 8.194237947E-03 6.898648614E-01
 9.434990287E-01 1.068863273E-02 7.110704600E-01
 9.305257201E-01 1.291511580E-02 7.256030676E-01
 9.195320606E-01 1.489647664E-02 7.389309277E-01
 9.070204496E-01 1.701507345E-02 7.540124875E-01
 8.955548406E-01 1.902456768E-02 7.701624138E-01
 8.829119205E-01 2.106444910E-02 7.831852803E-01
 8.703597784E-01 2.301728167E-02 7.911404190E-01
 8.580176830E-01 2.484843880E-02 7.960246238E-01
 8.455750942E-01 2.663901635E-02 8.018350771E-01
 8.341139555E-01 2.828828804E-02 8.107811613E-01
 8.224269748E-01 2.991665900E-02 8.173906846E-01
 8.096896410E-01 3.160581738E-02 8.213793912E-01
 7.969638705E-01 3.326787427E-02 8.284486785E-01
 7.852576971E-01 3.479669988E-02 8.371582726E-01
 7.728560567E-01 3.635825962E-02 8.436388483E-01
 7.607731819E-01 3.782534227E-02 8.478500579E-01
 7.478436828E-01 3.936021775E-02 8.540019953E-01
 7.344728112E-01 4.093024135E-02 8.621799457E-01
 7.235651612E-01 4.217855260E-02 8.689066100E-01
 7.119284868E-01 4.345711693E-02 8.744590096E-01
 7.002126575E-01 4.472202435E-02 8.819791694E-01
 6.869058013E-01 4.612646624E-02 8.909683474E-01
 6.739027500E-01 4.743206128E-02 8.991558087E-01
 6.630149484E-01 4.849551246E-02 9.066762843E-01
 6.510306597E-01 4.961944744E-02 9.126563268E-01
 6.399788260E-01 5.060461536E-02 9.180444759E-01
 6.279843450E-01 5.163639039E-02 9.258216330E-01
 6.165562272E-01 5.257480219E-02 9.354556167E-01
 6.057370901E-01 5.342660472E-02 9.428796503E-01
 5.935795903E-01 5.430176854E-02 9.480652152E-01
 5.815777779E-01 5.511017889E-02 9.551093092E-01
 5.680103302E-01 5.596899241E-02 9.624818296E-01
 5.550293326E-01 5.670262128E-02 9.671636629E-01
 5.421889424E-01 5.735579878E-02 9.695334891E-01
 5.307905078E-01 5.787659436E-02 9.696539286E-01
 5.186025500E-01 5.834760889E-02 9.714248970E-01
 5.062042475E-01 5.880529061E-02 9.747015044E-01
 4.954454005E-01 5.912204832E-02 9.737759048E-01
 4.824497402E-01 5.941915885E-02 9.711986571E-01
 4.697665870E-01 5.964550748E-02 9.701203395E-01
 4.560555816E-01 5.982283503E-02 9.693275806E-01
 4.424046278E-01 5.990627781E-02 9.674201340E-01
 4.295092225E-01 5.991940573E-02 9.636888829E-01
 4.163126051E-01 5.983874947E-02 9.593827879E-01
 4.039323926E-01 5.970912799E-02 9.562435635E-01
 3.910160959E-01 5.951360986E-02 9.537861689E-01
 3.789854646E-01 5.925914645E-02 9.498541199E-01
 3.677982092E-01 5.896665156E-02 9.451861881E-01
 3.548552990E-01 5.857270211E-02 9.406551134E-01
 3.427990675E-01 5.813522637E-02 9.352483931E-01
 3.305856884E-01 5.762259662E-02 9.312993463E-01
 3.204372227E-01 5.716845393E-02 9.282317758E-01
 3.086658716E-01 5.657675117E-02 9.238407079E-01
 2.961893082E-01 5.589263886E-02 9.176708508E-01
 2.825924158E-01 5.505199730E-02 9.117583058E-01
 2.702116072E-01 5.423715711E-02 9.065552506E-01
 2.583730817E-01 5.339347571E-02 9.014963512E-01
 2.459047586E-01 5.243659392E-02 8.960902937E-01
 2.331172526E-01 5.138171092E-02 8.910975970E-01
 2.209012806E-01 5.031256750E-02 8.860270622E-01
 2.091033757E-01 4.921084270E-02 8.801398880E-01
 1.973163486E-01 4.804026335E-02 8.745585399E-01
 1.848287880E-01 4.673682526E-02 8.693543544E-01
 1.728223413E-01 4.539826885E-02 8.628102780E-01
 1.606538147E-01 4.396099970E-02 8.556182189E-01
 1.485934258E-01 4.245287552E-02 8.491074943E-01
 1.373579204E-01 4.098051041E-02 8.432654072E-01
 1.258110851E-01 3.936125711E-02 8.373009463E-01
 1.143615842E-01 3.767141327E-02 8.314434781E-01
 1.034556180E-01 3.596129268E-02 8.240722999E-01
 9.336271137E-02 3.428317234E-02 8.164088532E-01
 8.227254450E-02 3.232079744E-02 8.077564493E-01
 7.084483653E-02 3.014576994E-02 7.996922712E-01
 6.116533279E-02 2.815269306E-02 7.902402184E-01
 5.181945860E-02 2.607506514E-02 7.763118146E-01
 4.304404184E-02 2.395349368E-02 7.662088470E-01
 3.543734550E-02 2.193019912E-02 7.592724636E-01
 2.885435522E-02 2.000896633E-02 7.637887239E-01
 2.326525934E-02 1.819987036E-02 7.597823031E-01
 1.918715425E-02 1.674068719E-02 7.545675617E-01
 1.541127916E-02 1.526291762E-02 7.364886415E-01
 1.261606254E-02 1.405053586E-02 7.079871589E-01
 1.019998733E-02 1.290812716E-02 6.941686816E-01
 8.449008688E-03 1.199272834E-02 6.815606547E-01
 6.815390196E-03 1.107161865E-02 6.624162212E-01
 5.270416383E-03 1.010453049E-02 6.303902418E-01
 3.273028880E-03 8.674021810E-03 5.918759783E-01
 1.610620064E-03 7.235476747E-03 5.466213940E-01
 2.480332623E-04 5.754551850E-03 4.770816352E-01
 -1.068671234E-03 3.738306696E-03 4.010707520E-01
 -1.702744397E-03 2.119777724E-03 2.408578958E-01
 -1.961949281E-03 7.934043533E-04 6.267964425E-02
 -1.979583642E-03 -8.330161218E-04 2.983543452E-02
 -1.596991322E-03 -2.809378318E-03 1.167328681E-01
 -6.711549358E-04 -5.045604892E-03 2.296738651E-01
 8.745387895E-04 -7.464449387E-03 2.923593495E-01
 3.027776722E-03 -9.967730381E-03 3.778422081E-01
 5.006791092E-03 -1.185127627E-02 4.391884880E-01
 7.315985393E-03 -1.375221275E-02 4.795857914E-01
 9.037480690E-03 -1.501937304E-02 5.272232087E-01
 1.114368252E-02 -1.644712500E-02 5.624053579E-01
 1.362260245E-02 -1.798955724E-02 5.843568100E-01
 1.688784175E-02 -1.984131150E-02 6.064218875E-01
 2.013342641E-02 -2.151852287E-02 6.288942813E-01
 2.419986576E-02 -2.343627624E-02 6.575081645E-01
 2.965078503E-02 -2.576611005E-02 6.926476055E-01
 3.528256342E-02 -2.794775553E-02 7.183238004E-01
 4.228219762E-02 -3.039670363E-02 7.422100302E-01
 4.983237013E-02 -3.279011324E-02 7.622818719E-01
 5.856018886E-02 -3.529597819E-02 7.778870729E-01
 6.727771461E-02 -3.758020699E-02 7.913922835E-01
 7.768190652E-02 -4.007736966E-02 8.051929482E-01
 8.761152625E-02 -4.227045923E-02 8.200573121E-01
 9.843026847E-02 -4.446266964E-02 8.311221335E-01
 1.096133813E-01 -4.656847566E-02 8.411737960E-01
 1.214867607E-01 -4.863942787E-02 8.527780879E-01
 1.330069900E-01 -5.050792545E-02 8.629470178E-01
 1.436667591E-01 -5.212618038E-02 8.725155862E-01
 1.548810005E-01 -5.372015014E-02 8.803905904E-01
 1.666253060E-01 -5.528486893E-02 8.891076145E-01
 1.781707108E-01 -5.670554191E-02 8.975333627E-01
 1.898635775E-01 -5.806499347E-02 9.068467355E-01
 2.003262341E-01 -5.919470266E-02 9.165366906E-01
 2.116195261E-01 -6.032454222E-02 9.256415358E-01
 2.237360924E-01 -6.144091114E-02 9.337787656E-01
 2.355966866E-01 -6.244231761E-02 9.417838424E-01
 2.473608404E-01 -6.334876269E-02 9.509103126E-01
 2.594192624E-01 -6.416495144E-02 9.601003400E-01
 2.706679404E-01 -6.484151632E-02 9.687800858E-01
 2.831853330E-01 -6.549886614E-02 9.780179549E-01
 2.952973545E-01 -6.604015082E-02 9.898019835E-01
 3.079102635E-01 -6.646874547E-02 1.001777950E+00
 3.195450902E-01 -6.676179171E-02 1.012499933E+00
 3.317197263E-01 -6.695780903E-02 1.022527953E+00
 3.419626355E-01 -6.703069061E-02 1.032986067E+00
 3.532376885E-01 -6.701063365E-02 1.041216462E+00
 3.642166555E-01 -6.688211858E-02 1.046355406E+00
 3.750085533E-01 -6.666243821E-02 1.046503412E+00
 3.866666555E-01 -6.630656868E-02 1.043931952E+00
 3.990471065E-01 -6.581508368E-02 1.038637469E+00
 4.109757245E-01 -6.519749016E-02 1.029186418E+00
 4.238948822E-01 -6.440120190E-02 1.013632762E+00
 4.361383021E-01 -6.351365149E-02 9.944110389E-01
 4.491860271E-01 -6.246201694E-02 9.736207759E-01
 4.615842402E-01 -6.133270264E-02 9.552436683E-01
 4.739747345E-01 -6.005975977E-02 9.348728557E-01
 4.861226082E-01 -5.874850973E-02 9.134578879E-01
 4.980495572E-01 -5.733561143E-02 8.930677871E-01
 5.112628937E-01 -5.572006479E-02 8.749900489E-01
 5.243524313E-01 -5.402748287E-02 8.582551392E-01
 5.369114876E-01 -5.233066902E-02 8.425158508E-01
 5.504878759E-01 -5.044036731E-02 8.262364625E-01
 5.632166862E-01 -4.858815670E-02 8.097051710E-01
 5.765079260E-01 -4.665872455E-02 7.951859621E-01
 5.893960595E-01 -4.471725971E-02 7.827559074E-01
 6.022044420E-01 -4.278301820E-02 7.715819110E-01
 6.150051951E-01 -4.082096368E-02 7.608006969E-01
 6.288530231E-01 -3.871151432E-02 7.506420411E-01
 6.420581937E-01 -3.664192930E-02 7.389036379E-01
 6.555905938E-01 -3.456948698E-02 7.284711655E-01
 6.692052484E-01 -3.247097135E-02 7.201529447E-01
 6.817755103E-01 -3.053681739E-02 7.111079626E-01
 6.941169500E-01 -2.859690227E-02 7.004782995E-01
 7.088235021E-01 -2.633714303E-02 6.902541089E-01
 7.218494415E-01 -2.435428649E-02 6.817276927E-01
 7.333623171E-01 -2.261286974E-02 6.742698964E-01
 7.463069558E-01 -2.068702318E-02 6.666298559E-01
 7.594016790E-01 -1.875983924E-02 6.585164586E-01
 7.726510763E-01 -1.683804207E-02 6.502191070E-01
 7.850580215E-01 -1.508804318E-02 6.428147084E-01
 7.979777455E-01 -1.332554687E-02 6.362236716E-01
 8.090630770E-01 -1.182552148E-02 6.287209729E-01
 8.202462196E-01 -1.035221945E-02 6.207686646E-01
 8.325987458E-01 -8.815073408E-03 6.136727966E-01
 8.449987769E-01 -7.329725195E-03 6.069409843E-01
 8.570569754E-01 -5.950244144E-03 5.985760896E-01
 8.681768179E-01 -4.755157977E-03 5.915458368E-01
 8.799457550E-01 -3.633912187E-03 5.868286323E-01
 8.928727508E-01 -2.511902945E-03 5.817154591E-01
 9.029666185E-01 -1.732740784E-03 5.766261495E-01
 9.138835669E-01 -1.029245090E-03 5.754839292E-01
 9.240915179E-01 -4.630032636E-04 5.734844457E-01
 9.344749451E-01 -1.893340232E-05 5.730474018E-01
 9.476096034E-01 3.995294101E-04 5.729706915E-01
 9.620500803E-01 6.732220645E-04 5.740822087E-01
 9.764921665E-01 7.571210153E-04 5.668533005E-01
 9.889903665E-01 6.752929185E-04 5.854768969E-01
 -5.000000000E-01 -1.000000000E+00 7.110747212E-01
 3.500000000E+00 -1.000000000E+00 7.309916076E-01
 3.500000000E+00 1.000000000E+00 7.292745600E-01
 -5.000000000E-01 1.000000000E+00 7.105395167E-01
 -5.000000000E-01 5.000000000E-01 6.990570839E-01
 -5.000000000E-01 2.752797990E-12 6.860058017E-01
 -5.000000000E-01 -5.000000000E-01 6.980549113E-01
 -9.421907698E-13 -1.000000000E+00 7.221448480E-01
 5.000000000E-01 -1.000000000E+00 7.497297467E-01
 1.000000000E+00 -1.000000000E+00 7.384166617E-01
 1.500000000E+00 -1.000000000E+00 7.244502551E-01
 2.000000000E+00 -1.000000000E+00 7.247887445E-01
 2.500000000E+00 -1.000000000E+00 7.277540085E-01
 3.000000000E+00 -1.000000000E+00 7.292253177E-01
 3.500000000E+00 -5.000000000E-01 7.333411166E-01
 3.500000000E+00 -2.752797990E-12 7.350698274E-01
 3.500000000E+00 5.000000000E-01 7.327666620E-01
 3.000000000E+00 1.000000000E+00 7.279259410E-01
 2.500000000E+00 1.000000000E+00 7.303670395E-01
 2.000000000E+00 1.000000000E+00 7.348664361E-01
 1.500000000E+00 1.000000000E+00 7.461761227E-01
 1.000000000E+00 1.000000000E+00 7.654237023E-01
 5.000000000E-01 1.000000000E+00 7.650494035E-01
 1.733724275E-12 1.000000000E+00 7.287390102E-01
 6.786717372E-01 -4.444834615E-02 7.175619389E-01
 7.796217634E-01 -2.850949408E-02 6.520734003E-01
 9.091801187E-01 -1.335549022E-02 5.870300239E-01
 5.804537497E-01 -6.240512372E-02 7.974699058E-01
 7.073515830E-01 5.443853871E-02 8.787261455E-01
 2.722051134E-01 6.937149027E-02 9.085900808E-01
 2.753088823E-01 -7.655570330E-02 9.689513052E-01
 9.159882064E-01 2.906133751E-02 7.474207620E-01
 8.040278043E-01 4.590899116E-02 8.274728551E-01
 6.001906473E-01 6.451876976E-02 9.456052726E-01
 4.220233150E-01 7.061993115E-02 9.604347440E-01
 4.181850357E-01 -7.633145262E-02 1.013761783E+00
 1.840367331E+00 -5.655775590E-01 7.291021311E-01
 1.774167282E+00 5.582784581E-01 7.429863484E-01
 3.031176384E+00 2.156837110E-01 7.379029473E-01
 7.614808676E-01 -6.200332265E-01 7.469529670E-01
 4.925954730E-01 -6.783505108E-02 9.040913902E-01
 3.019146406E-01 -7.145769037E-01 7.703447742E-01
 1.252248114E-01 -6.457753832E-02 8.559627398E-01
 1.945958029E-01 -6.819646065E-02 9.114857003E-01
 3.503589300E-01 -7.817102599E-02 1.032831749E+00
 7.500000000E-01 5.669872981E-01 8.091978178E-01
 5.019448978E-01 6.797481165E-02 9.736243679E-01
 2.734845344E+00 -5.326941035E-01 7.337838593E-01
 1.157103830E+00 6.940181503E-01 7.609863368E-01
 9.946600700E-01 3.285135097E-01 7.553509661E-01
 1.256594480E+00 -6.287860003E-01 7.208643637E-01
 1.459545504E+00 -2.131234769E-01 7.249720598E-01
 3.329557257E-01 6.148818087E-01 7.876537439E-01
 1.013238737E-01 4.527757727E-02 8.272717041E-01
 1.656966370E-01 5.857726783E-02 8.647252856E-01
 3.471462123E-01 6.732838986E-02 9.368151399E-01
 2.249603415E+00 -5.829925227E-01 7.319752510E-01
 2.035145944E+00 -1.986187905E-01 7.357482313E-01
 2.420184003E+00 -1.843199002E-01 7.374748153E-01
 2.184610304E+00 1.582043933E-01 7.405708738E-01
 1.799252983E+00 1.328371796E-01 7.386457363E-01
 -2.740812451E-01 2.322345187E-01 6.793937846E-01
 -1.003736451E-01 6.206511582E-01 7.250323324E-01
 2.969094647E-02 3.285711292E-01 7.293199287E-01
 4.646946178E-02 3.595919471E-02 7.750766051E-01
 -2.713215712E-01 -2.368381191E-01 6.783968318E-01
 -1.459865622E-01 -6.018984374E-01 7.176019767E-01
 1.367129040E-01 -3.727180659E-01 7.733407676E-01
 2.191382168E+00 6.008303191E-01 7.394059491E-01
 2.738061915E+00 6.037901844E-01 7.362111495E-01
 -2.353749404E-01 -4.546537445E-03 6.578673881E-01
 -1.277104738E-01 1.263739894E-01 6.481373837E-01
 -1.098718087E-01 -1.272934895E-01 6.428947027E-01
 7.034188605E-02 -4.776194440E-02 7.922280615E-01
 3.541428151E-02 -3.614541312E-02 7.093039610E-01
 -7.418643797E-02 -3.213674898E-01 7.023198744E-01
 8.365578536E-03 -1.819008672E-01 7.005402572E-01
 1.591824707E-01 -2.190315605E-01 8.280617602E-01
 -2.229140532E-02 -9.891236310E-02 6.312644518E-01
 -1.099287081E-01 -2.339237852E-02 6.014688875E-01
 -7.062091859E-02 5.515877151E-02 5.871710312E-01
 3.302292305E-02 -1.163011712E-01 7.089941629E-01
 3.109359017E+00 -2.612770072E-01 7.364346919E-01
 -5.113455234E-02 -3.902869463E-02 5.508722527E-01
 -5.119159843E-02 1.130537563E-02 5.317878024E-01
 -2.806903465E-02 5.010423649E-02 5.825295906E-01
 2.420821825E-02 2.397826948E-02 7.384211508E-01
 -3.634471174E-02 1.017911123E-01 6.398102103E-01
 3.459885064E-02 1.132212417E-01 7.229286406E-01
 7.423590570E-02 3.950183905E-02 8.058766201E-01
 -2.032461622E-02 1.841665248E-01 6.920157024E-01
 7.464667200E-02 1.967924178E-01 7.635751442E-01
 2.116871323E-01 5.979901920E-02 8.838885984E-01
 1.663207949E-01 2.819417781E-01 8.020902315E-01
 1.897760753E-01 6.094597741E-02 8.760414961E-01
 2.194653443E-01 1.836250487E-01 8.524997668E-01
 2.847003835E-01 2.605964755E-01 8.540368348E-01
 2.976193328E-01 1.611587275E-01 8.928398713E-01
 3.680787856E-01 2.193701949E-01 8.928108541E-01
 3.124051459E-01 6.963387427E-02 9.248096684E-01
 3.729379848E-01 1.433699004E-01 9.266342708E-01
 4.376864596E-01 1.814195011E-01 9.244772422E-01
 5.507624464E-01 7.009296705E-02 9.669548169E-01
 5.239355680E-01 7.066382104E-02 9.702773248E-01
 4.630585623E-01 7.113720534E-02 9.681672669E-01
 4.462101272E-01 2.723084072E-01 8.894784461E-01
 5.302984264E-01 2.076207336E-01 9.154251431E-01
 3.838411006E-01 7.191123904E-02 9.507092291E-01
 5.421995265E-01 3.434243983E-01 8.736195669E-01
 6.319967462E-01 2.603593377E-01 8.784263066E-01
 6.570440240E-01 6.119496361E-02 9.113206395E-01
 6.141926529E-01 1.648967821E-01 9.114322929E-01
 7.088921586E-01 1.839284998E-01 8.627133866E-01
 7.565542897E-01 5.062314449E-02 8.515741385E-01
 7.360938518E-01 2.690211965E-01 8.388852578E-01
 8.164521661E-01 1.990674669E-01 8.141422613E-01
 8.679521308E-01 3.819156766E-02 7.928329322E-01
 8.434497445E-01 4.197015498E-02 8.072544025E-01
 7.706280571E-01 1.312477646E-01 8.409553268E-01
 8.565348896E-01 1.324538530E-01 7.957594035E-01
 9.656723906E-01 2.126729983E-02 6.879118759E-01
 6.709697256E-01 1.280272911E-01 8.939700192E-01
 5.470172438E-01 1.406740903E-01 9.447579898E-01
 2.419301069E-01 1.221558800E-01 8.850348696E-01
 1.845760346E-01 1.178013456E-01 8.621212100E-01
 6.264843900E-01 1.086397260E-01 9.242358623E-01
 6.348188939E-01 6.085429171E-02 9.237676107E-01
 9.031678470E-01 1.963820385E-01 7.695623780E-01
 9.492860307E-01 1.220338054E-01 7.411244955E-01
 9.951460305E-01 1.947759960E-01 7.353726003E-01
 1.115492001E+00 2.696416854E-01 7.330351932E-01
 1.023115775E+00 1.207826833E-01 7.105382763E-01
 8.959075330E-01 8.414155425E-02 7.735961632E-01
 8.923953242E-01 3.361750269E-02 7.751886065E-01
 8.144352996E-01 9.656656048E-02 8.215286105E-01
 9.898024022E-01 7.306268750E-02 6.999340026E-01
 1.040194150E+00 5.093099342E-02 6.801177190E-01
 3.252053368E-01 1.166039577E-01 9.218962337E-01
 9.325655172E-02 1.126976132E-01 8.008751085E-01
 4.267871227E-01 1.258007398E-01 9.489052288E-01
 4.824247955E-01 1.299335470E-01 9.510851300E-01
 6.790482446E-01 3.841430589E-01 8.420027521E-01
 1.428382500E-01 4.501254858E-01 7.678957585E-01
 1.002909319E+00 3.396496781E-02 6.661864633E-01
 1.000558839E+00 1.343306975E-02 6.365059851E-01
 4.288313260E-01 3.999414330E-01 8.497218468E-01
 5.188711721E-01 1.069896644E-01 9.629996639E-01
 -8.296396019E-03 -5.916695910E-02 5.815035135E-01
 1.094529593E-02 -2.045014459E-02 5.520864717E-01
 2.026050452E-02 -2.664949384E-02 6.243233297E-01
 9.831833262E-01 1.816514360E-02 6.577881260E-01
 2.906006809E-02 -7.344876579E-02 6.941915527E-01
 5.318665118E-02 -4.431944682E-02 7.603265922E-01
 6.609842558E-01 9.622753240E-02 9.084939310E-01
 6.809035664E-01 5.960247556E-02 8.965110292E-01
 6.947195675E-01 9.633245416E-02 8.877636720E-01
 7.170853823E-01 1.262368888E-01 8.696003183E-01
 7.370420126E-01 9.237327636E-02 8.642788580E-01
 7.301000555E-01 5.100069896E-02 8.666476970E-01
 3.614943863E-01 1.064071921E-01 9.377067811E-01
 3.903964453E-01 1.065487871E-01 9.474217604E-01
 8.505869253E-01 3.360592938E-01 7.971220781E-01
 6.895817996E-02 -8.992234681E-02 7.797273748E-01
 1.022254704E-01 -5.505530948E-02 8.356348493E-01
 8.278599614E-02 -1.398851282E-01 7.729286730E-01
 1.147622879E-01 -1.102413799E-01 8.312907543E-01
 1.623816890E-01 -6.631453112E-02 8.857832769E-01
 5.589911992E-01 1.069226522E-01 9.566018546E-01
 5.740096092E-01 6.549037647E-02 9.593157653E-01
 5.605531906E-01 5.159870917E-01 8.350875292E-01
 1.299667603E-02 6.574018384E-02 6.873958034E-01
 3.594085668E-01 7.074372701E-02 9.416640702E-01
 5.299193327E-02 7.747583741E-02 7.721876037E-01
 9.781299996E-01 3.838360501E-02 6.891577920E-01
 9.521450927E-01 3.531566407E-02 7.109652509E-01
 9.393850438E-01 2.449594487E-02 7.206494208E-01
 9.316380386E-01 3.754054200E-02 7.344026242E-01
 9.086040743E-01 4.749098249E-02 7.595324616E-01
 8.841627364E-01 4.924462952E-02 7.829526057E-01
 8.619535856E-01 5.706294271E-02 7.976435663E-01
 8.332680037E-01 6.120172806E-02 8.145339732E-01
 9.452486810E-01 6.397399408E-02 7.302859823E-01
 9.515422100E-01 1.999235589E-02 7.048161455E-01
 3.372787497E-01 6.663211804E-02 9.329954023E-01
 3.407889916E-01 8.289856224E-02 9.343026187E-01
 9.039125790E-01 2.924189276E-02 7.618931795E-01
 8.187112536E-01 4.539060734E-02 8.202739131E-01
 8.118118860E-01 6.463022878E-02 8.276774273E-01
 7.805397175E-01 4.772502760E-02 8.413204489E-01
 7.815445199E-01 8.047769618E-02 8.431025778E-01
 4.540894789E-01 1.039472797E-01 9.621528036E-01
 4.852085934E-01 9.438122162E-02 9.670087523E-01
 4.442884909E-01 8.436146265E-02 9.648453794E-01
 4.200336188E-01 9.049109845E-02 9.581316549E-01
 7.417084893E-01 5.293143751E-02 8.600129981E-01
 2.142161734E-01 9.881291112E-02 8.807390966E-01
 2.412005136E-01 6.521255673E-02 8.955157539E-01
 6.962923505E-01 5.935934235E-02 8.868383295E-01
 3.269213464E-01 7.031428576E-02 9.297737361E-01
 3.179264162E-01 8.790147357E-02 9.256135141E-01
 2.995974253E-01 8.230451246E-02 9.186376212E-01
 7.530562438E-01 6.838967456E-02 8.561037289E-01
 7.717451060E-01 6.031294424E-02 8.464032599E-01
 3.957334116E-01 6.952399434E-02 9.542651645E-01
 7.903605320E-01 5.727993900E-02 8.367397482E-01
 4.483551676E-01 6.931692316E-02 9.671621820E-01
 6.448432927E-01 5.944107649E-02 9.170864516E-01
 6.433509244E-01 7.594161729E-02 9.184324964E-01
 6.231216740E-01 7.771995795E-02 9.318123306E-01
 5.953560207E-01 8.757070806E-02 9.452764234E-01
 6.708491006E-01 7.548820504E-02 9.039827255E-01
 4.359685755E-01 7.135683500E-02 9.638066442E-01
 4.764813145E-01 7.379422650E-02 9.694244194E-01
 4.079844106E-01 7.263355653E-02 9.571088062E-01
 6.906587365E-01 7.374066346E-02 8.917543656E-01
 7.914299243E-01 4.379570638E-02 8.343698972E-01
 7.684936704E-01 4.656894364E-02 8.462599809E-01
 -1.201496739E-01 2.648134130E-01 6.880783150E-01
 5.636210154E-01 6.623221913E-02 9.641400451E-01
 5.702933584E-01 8.290613844E-02 9.600954248E-01
 5.378695533E-01 8.639713201E-02 9.669347250E-01
 8.795563781E-01 3.302708613E-02 7.856873639E-01
 7.108548112E-01 7.137064022E-02 8.789081519E-01
 3.717353185E-01 8.544763480E-02 9.452523539E-01
 2.553595425E+00 2.129186089E-01 7.399477045E-01
 8.553896476E-01 3.774242410E-02 7.991954737E-01
 -2.041321162E-02 -3.128258549E-02 4.950434207E-01
 3.937833660E-03 -1.581185958E-02 4.538405558E-01
 -1.818261714E-02 -6.113488816E-03 3.476662199E-01
 -1.448376126E-02 1.777266665E-02 4.750499203E-01
 2.856045364E-01 1.204443133E-01 9.056181824E-01
 2.722186096E-01 9.291649218E-02 9.065389785E-01
 2.559481793E-01 7.537394653E-02 9.026703978E-01
 8.303939864E-01 4.135348748E-02 8.148317353E-01
 8.664307565E-02 7.414231089E-02 8.151736797E-01
 1.202152139E-01 8.406185795E-02 8.376937384E-01
 1.407866219E-01 5.426202610E-02 8.515477068E-01
 6.137716719E-02 5.135662024E-02 7.964228504E-01
 8.551106861E-02 5.265240700E-02 8.201240312E-01
 5.884083013E-01 1.217407918E-01 9.409978961E-01
 -4.016474208E-04 3.554562277E-02 6.239120439E-01
 1.055515632E-02 1.644490693E-02 6.778569213E-01
 2.342401230E-01 8.585331200E-02 8.931150899E-01
 2.049202264E-01 7.765200591E-02 8.810429400E-01
 1.765816430E-01 7.712159555E-02 8.696903717E-01
 1.487059380E-01 7.248790981E-02 8.580530510E-01
 1.239547936E-01 6.339274886E-02 8.472397874E-01
 1.899435297E-02 -4.782419091E-02 6.467838669E-01
 2.112069699E-03 -3.139672951E-02 5.279147059E-01
 -4.957445985E-03 -1.467968017E-02 3.653897799E-01
 1.119497679E-04 -1.029811460E-02 3.336268039E-01
 1.344372832E-01 -1.554926641E-01 8.338110573E-01
 1.635066621E-01 -1.090014019E-01 8.757608477E-01
 2.293226844E-01 -7.699769823E-02 9.345918706E-01
 1.957682702E-01 -1.510139708E-01 8.823068620E-01
 2.405140817E-01 -2.231600443E-01 8.775422840E-01
 2.710758935E-01 -1.504077252E-01 9.299398901E-01
 3.221146129E-01 -2.148026683E-01 9.219027526E-01
 3.122455877E-01 -7.822474517E-02 1.001151267E+00
 2.925035834E-01 -3.038882866E-01 8.624252401E-01
 3.996846622E-01 -2.780449081E-01 8.939843793E-01
 4.319319804E-01 -1.850634806E-01 9.284544303E-01
 5.047499662E-01 -2.482486007E-01 8.537050499E-01
 4.572074120E-01 -7.287296201E-02 9.551167308E-01
 5.358613119E-01 -1.663508482E-01 8.442053050E-01
 6.008980362E-01 -2.239369751E-01 7.869703646E-01
 5.467082731E-01 -6.428833925E-02 8.332866547E-01
 5.201875555E-01 -7.135790943E-02 8.666546558E-01
 6.105734579E-01 -1.381862144E-01 7.831940966E-01
 6.833465526E-01 -1.904975156E-01 7.425977182E-01
 7.304544245E-01 -3.963382641E-02 6.841655295E-01
 6.355488975E-01 -5.415415952E-02 7.500590537E-01
 5.024481068E-01 -3.796989624E-01 8.246039721E-01
 6.784370349E-01 -1.142449910E-01 7.379743340E-01
 6.802432590E-01 -2.947520081E-01 7.465226793E-01
 7.692592505E-01 -2.337769628E-01 7.117141377E-01
 8.531467766E-01 -1.532434593E-02 6.086692335E-01
 3.320809572E-01 -1.487065414E-01 9.702773243E-01
 3.794724535E-01 -8.110464996E-02 1.036473489E+00
 4.706303435E-01 -1.346037958E-01 9.167137923E-01
 5.601520451E-01 -1.185262193E-01 8.225736327E-01
 7.473210175E-01 -1.491675226E-01 7.084668101E-01
 8.401266206E-01 -1.475608191E-01 6.760621167E-01
 9.703383681E-01 -1.234541750E-02 5.766914553E-01
 9.400807100E-01 -8.437486985E-03 5.803791876E-01
 8.762676353E-01 -2.600910774E-01 6.923473243E-01
 9.513754799E-01 -1.622980132E-01 6.630915237E-01
 1.013581409E+00 -2.757455640E-01 6.890195197E-01
 1.072768341E+00 -1.715115159E-01 6.834008314E-01
 9.039298171E-01 -1.047382854E-01 6.466704379E-01
 9.794557140E-01 -9.060547804E-02 6.392584274E-01
 1.095991162E+00 -7.961769474E-02 6.757963775E-01
 1.186261719E+00 -1.304005797E-01 7.010267773E-01
 1.191277287E+00 -4.098234654E-03 6.993726740E-01
 1.165142485E+00 -2.643701118E-01 7.031443550E-01
 8.270901712E-01 -8.582760251E-02 6.579637799E-01
 8.151626973E-01 -2.218998764E-02 6.304493701E-01
 7.309009042E-01 -9.012784545E-02 7.031986199E-01
 1.330019448E+00 -7.469124134E-02 7.154502302E-01
 1.350627425E+00 1.087795563E-01 7.242615918E-01
 1.101655253E+00 8.626149099E-02 6.998415573E-01
 9.347026542E-01 -7.096201858E-02 6.278717135E-01
 9.151405657E-01 -4.197868321E-01 7.108469767E-01
 6.319674098E-01 -9.718890407E-02 7.680770244E-01
 6.140382529E-01 -5.539136726E-02 7.669711609E-01
 2.330334252E-01 -1.195703383E-01 9.229112973E-01
 2.532742684E-01 -7.572996138E-02 9.527104380E-01
 6.925507672E-01 -7.635415994E-02 7.205406074E-01
 7.026249561E-01 -4.014701109E-02 7.001951373E-01
 6.561242657E-01 -7.126574518E-02 7.413735186E-01
 1.020977773E+00 -4.408615185E-02 6.309322676E-01
 3.012361132E-01 -1.133673660E-01 9.750120385E-01
 2.675295625E-01 -1.102298573E-01 9.514942764E-01
 9.538447275E-01 -1.131603966E-02 5.845253668E-01
 9.598683032E-01 -2.738786326E-02 5.918531813E-01
 9.843854573E-01 -2.429726184E-02 6.010934518E-01
 1.534512925E+00 8.757906124E-03 7.292186384E-01
 1.540476730E+00 2.849026513E-01 7.391985610E-01
 1.319882273E+00 3.169337443E-01 7.360571992E-01
 7.841243810E-01 -1.018717994E-01 6.814125628E-01
 7.665144564E-01 -6.720699448E-02 6.793990058E-01
 7.556640354E-01 -3.237174379E-02 6.669138304E-01
 8.022588075E-01 -5.717672167E-02 6.567845308E-01
 8.384429591E-01 -5.003996065E-02 6.370887065E-01
 1.109866643E+00 -4.278444431E-01 7.084214328E-01
 1.008616511E+00 -6.192901004E-01 7.231525737E-01
 3.386530826E-01 -1.088212608E-01 1.005021262E+00
 3.696787980E-01 -1.262064550E-01 1.001430407E+00
 3.240060546E-01 -7.774414701E-02 1.011017575E+00
 3.186847558E-01 -9.252521349E-02 1.000341528E+00
 3.005206621E-01 -8.806593092E-02 9.866769184E-01
 8.400076139E-01 -2.357174159E-02 6.198877267E-01
 8.626673039E-01 -1.394295485E-02 6.023341775E-01
 8.599717522E-01 -2.980333737E-02 6.153318107E-01
 8.883545010E-01 -1.598866684E-02 5.945715235E-01
 8.651765391E-01 -5.804616531E-02 6.341993762E-01
 8.841272770E-01 -3.619252568E-02 6.121091645E-01
 7.373641868E-01 -6.190982037E-02 6.893732098E-01
 1.438003741E+00 5.696980563E-01 7.467520962E-01
 7.153668468E-01 -3.660112845E-02 6.910242156E-01
 7.141249191E-01 -5.595369479E-02 7.006598497E-01
 6.920891618E-01 -5.315509070E-02 7.121819738E-01
 8.262499243E-01 -1.981817710E-02 6.232829327E-01
 8.232343448E-01 -3.416186339E-02 6.345327038E-01
 7.702669942E-01 -4.587105325E-02 6.641546533E-01
 3.636147265E-01 -9.968066251E-02 1.025386331E+00
 7.430033484E-01 -3.271716013E-02 6.740820309E-01
 3.009514626E-01 -7.509342363E-02 9.922396272E-01
 3.488670774E-01 -4.364001347E-01 8.190811567E-01
 3.624963935E-01 -8.325534316E-02 1.035099174E+00
 1.702942747E+00 -2.171156560E-01 7.319321742E-01
 7.742045323E-01 -3.770763459E-01 7.246622783E-01
 6.372857254E-01 -4.274493400E-01 7.678602443E-01
 8.042104832E-01 -2.134896683E-02 6.362217253E-01
 7.937119559E-01 -2.561106447E-02 6.434202711E-01
 8.738739012E-01 -1.738609248E-02 6.000681823E-01
 9.013543625E-01 -2.486654285E-02 5.994902518E-01
 9.185946928E-01 -2.633446947E-02 5.964401096E-01
 9.108737148E-01 -4.555868707E-02 6.110837647E-01
 6.506552499E-01 -4.836146206E-02 7.369003992E-01
 3.782632606E-01 -1.798303697E-01 9.605228577E-01
 3.902938863E-01 -1.030250804E-01 1.019227568E+00
 4.148158152E-01 -1.338903531E-01 9.788768801E-01
 4.467268202E-01 -1.080113208E-01 9.633855849E-01
 4.801290090E-01 -1.008570525E-01 9.183969869E-01
 4.729546716E-01 -8.201619051E-02 9.334687722E-01
 4.002459219E-01 -8.484561351E-02 1.027610319E+00
 4.181248090E-01 -9.856764208E-02 1.003574214E+00
 7.903621394E-01 -3.845012510E-02 6.521459884E-01
 9.721564689E-01 -5.028175365E-02 6.157936824E-01
 8.989456703E-01 -1.169106873E-02 5.872581143E-01
 1.343607372E-01 -8.628067112E-02 8.606740776E-01
 9.218005569E-01 -1.349592958E-02 5.840897851E-01
 9.361834765E-01 -2.131107849E-02 5.913547593E-01
 5.177888044E-01 -1.202620357E-01 8.695214744E-01
 5.082525882E-01 -9.232185397E-02 8.828875007E-01
 5.398793104E-01 -8.554618035E-02 8.438409260E-01
 5.715087384E-01 -8.725783294E-02 8.109706034E-01
 5.634920321E-01 -6.759531132E-02 8.177686787E-01
 5.991246587E-01 -7.920692825E-02 7.850931966E-01
 2.855974280E-01 4.045815547E-01 8.228801773E-01
 8.791683041E-02 -2.665593815E-01 7.597907905E-01
 1.080732796E+00 3.922704054E-03 6.657932088E-01
 9.274138139E-01 2.378188336E-02 7.336697287E-01
 3.935017852E-01 8.357625725E-02 9.529079253E-01
 7.319052110E-01 6.482375554E-02 8.671181497E-01
 5.858345006E-01 6.831632336E-02 9.523565155E-01
 8.526576183E-01 8.728336723E-02 8.023414842E-01
 8.048234047E-01 -3.315645485E-02 6.416796744E-01
 6.899757149E-01 -3.989645176E-02 7.084392694E-01
 5.086660696E-01 -5.963597612E-01 7.880193950E-01
 2.874432931E-01 7.036334704E-02 9.144921869E-01
 3.008602088E-01 6.695422476E-02 9.204718883E-01
 5.037436387E-01 -7.172464447E-02 8.880790402E-01
 5.113813299E-01 6.770382692E-02 9.729177972E-01
 5.071281232E-01 8.217752230E-02 9.707888270E-01
 2.887834455E-01 -7.666754574E-02 9.804608467E-01
 2.809258828E-01 -9.089085311E-02 9.703233780E-01
 2.638999295E-01 -8.712228795E-02 9.579624793E-01
 2.439918960E-01 -9.104649577E-02 9.413498064E-01
 2.186776064E-01 -9.529242652E-02 9.229854235E-01
 2.121035063E-01 -7.486038135E-02 9.236094529E-01
 1.939492587E-01 -9.068080864E-02 9.074681368E-01
 1.756424568E-01 -7.783979941E-02 8.956029947E-01
 7.505445743E-01 -4.661843307E-02 6.766629139E-01
 7.674042228E-01 -2.862629604E-02 6.587862754E-01
 9.584579847E-01 5.239051672E-01 7.749990986E-01
 6.640889736E-01 -4.865797443E-02 7.280022423E-01
 6.767049811E-01 -5.877626328E-02 7.246135819E-01
 3.133974596E+00 6.339745962E-01 7.328365353E-01