TITLE     = "Visualization of the solution"
VARIABLES = "x"
"y"
"Mach"
ZONE T="Zone"
 STRANDID=0, SOLUTIONTIME=0
 Nodes=701, Elements=1187, ZONETYPE=FEQuadrilateral
 DATAPACKING=POINT
 DT=(DOUBLE DOUBLE DOUBLE )
 9.997310638E-01 5.197419086E-04 5.679970804E-01
 9.856435657E-01 3.111283295E-03 6.479829155E-01
 9.729471207E-01 5.440077744E-03 6.780794726E-01
 9.585777521E-01 8.086440153E-03 6.979514803E-01
 9.448980689E-01 1.054524630E-02 7.167094674E-01
 9.324963093E-01 1.278754231E-02 7.304759832E-01
 9.215292335E-01 1.473316643E-02 7.459533423E-01
 9.093331695E-01 1.689275540E-02 7.628249963E-01
 8.979359269E-01 1.885736920E-02 7.773914463E-01
 8.853541017E-01 2.088696137E-02 7.855700317E-01
 8.730624318E-01 2.280997112E-02 7.913078170E-01
 8.609557152E-01 2.464233525E-02 8.001048048E-01
 8.488089442E-01 2.649779245E-02 8.089581796E-01
 8.367835879E-01 2.820038609E-02 8.127505801E-01
 8.248121738E-01 2.987011150E-02 8.172868682E-01
 8.122028112E-01 3.162759915E-02 8.238720144E-01
 7.990177274E-01 3.338089958E-02 8.298802449E-01
 7.873328328E-01 3.494919837E-02 8.355249046E-01
 7.747114301E-01 3.656053171E-02 8.421911233E-01
 7.626914978E-01 3.812389821E-02 8.502069019E-01
 7.495974898E-01 3.973640129E-02 8.572313608E-01
 7.357385159E-01 4.143374413E-02 8.640216139E-01
 7.246881127E-01 4.273458570E-02 8.700974689E-01
 7.134319544E-01 4.404696450E-02 8.782795211E-01
 7.017587423E-01 4.538194835E-02 8.871116513E-01
 6.880804896E-01 4.687776044E-02 8.957488850E-01
 6.750853658E-01 4.826185480E-02 9.056518236E-01
 6.648430824E-01 4.932936281E-02 9.141350265E-01
 6.530273557E-01 5.048424751E-02 9.225955070E-01
 6.422714591E-01 5.152521282E-02 9.323229421E-01
 6.304934621E-01 5.260616541E-02 9.400334852E-01
 6.193370223E-01 5.355967581E-02 9.459999283E-01
 6.086077690E-01 5.445361137E-02 9.539402612E-01
 5.964720845E-01 5.540864542E-02 9.633031079E-01
 5.846084356E-01 5.628253147E-02 9.722338869E-01
 5.711850524E-01 5.719054490E-02 9.797702738E-01
 5.582107902E-01 5.796872824E-02 9.873007215E-01
 5.456485748E-01 5.866928026E-02 9.938890048E-01
 5.344341397E-01 5.921148136E-02 9.962520056E-01
 5.224335194E-01 5.973011628E-02 9.954209485E-01
 5.093716383E-01 6.019451469E-02 9.965486795E-01
 4.985651076E-01 6.055371091E-02 9.975794977E-01
 4.853788316E-01 6.088786572E-02 9.947917797E-01
 4.723959267E-01 6.111905351E-02 9.903614804E-01
 4.579758346E-01 6.129788235E-02 9.864690419E-01
 4.440862238E-01 6.136729196E-02 9.830003367E-01
 4.308178425E-01 6.135504320E-02 9.789745097E-01
 4.175740182E-01 6.126587838E-02 9.744998642E-01
 4.051629007E-01 6.110360846E-02 9.697070648E-01
 3.924162090E-01 6.086743250E-02 9.647276243E-01
 3.801570535E-01 6.056413800E-02 9.598471500E-01
 3.691147566E-01 6.024820358E-02 9.539261754E-01
 3.560812771E-01 5.979267880E-02 9.473061924E-01
 3.439948857E-01 5.930987000E-02 9.421781607E-01
 3.318826556E-01 5.878245831E-02 9.385944965E-01
 3.216753006E-01 5.827189982E-02 9.324559127E-01
 3.095590472E-01 5.760841072E-02 9.263885070E-01
 2.966812253E-01 5.685261264E-02 9.205986639E-01
 2.827869356E-01 5.593603477E-02 9.145116352E-01
 2.699173987E-01 5.502841622E-02 9.091187209E-01
 2.578994036E-01 5.411511660E-02 9.028296766E-01
 2.450337708E-01 5.305679515E-02 8.956648789E-01
 2.318570167E-01 5.191075057E-02 8.894226980E-01
 2.194326669E-01 5.074986443E-02 8.832779019E-01
 2.074280232E-01 4.956689849E-02 8.775654405E-01
 1.958700418E-01 4.836615548E-02 8.716375531E-01
 1.832578927E-01 4.697499424E-02 8.640817011E-01
 1.713419110E-01 4.559246823E-02 8.569605658E-01
 1.593169570E-01 4.411609843E-02 8.491929219E-01
 1.473173201E-01 4.255541787E-02 8.431827730E-01
 1.362290829E-01 4.104137793E-02 8.366290784E-01
 1.249307767E-01 3.940545395E-02 8.289624064E-01
 1.133848652E-01 3.764406964E-02 8.224344938E-01
 1.027506515E-01 3.593429923E-02 8.158703537E-01
 9.283620119E-02 3.423808888E-02 8.081405074E-01
 8.185774088E-02 3.225419670E-02 8.007265278E-01
 7.021722198E-02 2.998315729E-02 7.934612833E-01
 6.061690301E-02 2.796979249E-02 7.823292718E-01
 5.106990412E-02 2.579361014E-02 7.710200849E-01
 4.221919551E-02 2.359689027E-02 7.603759494E-01
 3.468940780E-02 2.155506052E-02 7.529856408E-01
 2.821991034E-02 1.961428300E-02 7.385637142E-01
 2.276708186E-02 1.780309901E-02 7.295283813E-01
 1.886272058E-02 1.638496108E-02 7.200567991E-01
 1.517088432E-02 1.490160171E-02 6.973267755E-01
 1.254867204E-02 1.374409534E-02 6.754959468E-01
 1.028503478E-02 1.265138481E-02 6.472759475E-01
 8.605209179E-03 1.177222747E-02 6.318948249E-01
 7.039217744E-03 1.087486278E-02 6.425784930E-01
 5.601153243E-03 9.977664798E-03 6.245505833E-01
 3.699561348E-03 8.626550436E-03 6.057207414E-01
 2.081903629E-03 7.258723490E-03 5.299783117E-01
 6.634124438E-04 5.772904027E-03 4.304474122E-01
 -6.919642910E-04 3.786658170E-03 3.672642479E-01
 -1.356173656E-03 2.216963563E-03 2.492850374E-01
 -1.645286800E-03 9.621267673E-04 1.325106449E-01
 -1.713666948E-03 -6.154844887E-04 7.822961460E-02
 -1.392878476E-03 -2.537979512E-03 1.914630787E-01
 -5.398499197E-04 -4.697505385E-03 2.026790183E-01
 9.367760504E-04 -7.031465415E-03 2.939201395E-01
 3.088844242E-03 -9.503772482E-03 4.001028325E-01
 4.996160977E-03 -1.127690263E-02 4.367877686E-01
 7.268505171E-03 -1.309132855E-02 4.661698451E-01
 8.903812617E-03 -1.425851509E-02 4.963220720E-01
 1.095568668E-02 -1.560522523E-02 5.292149859E-01
 1.339264866E-02 -1.706036367E-02 5.609684778E-01
 1.662797667E-02 -1.881584339E-02 5.939562743E-01
 1.982186921E-02 -2.039466798E-02 6.203049023E-01
 2.389919572E-02 -2.223155461E-02 6.440111585E-01
 2.942485921E-02 -2.446692623E-02 6.743083937E-01
 3.522906825E-02 -2.659092657E-02 7.043093085E-01
 4.256423563E-02 -2.899621055E-02 7.304400995E-01
 5.020960048E-02 -3.125821427E-02 7.546846365E-01
 5.908652022E-02 -3.363329917E-02 7.776337059E-01
 6.790751219E-02 -3.579325229E-02 7.907076526E-01
 7.832440734E-02 -3.812206909E-02 8.058126215E-01
 8.831565082E-02 -4.016666859E-02 8.176703050E-01
 9.907737374E-02 -4.221892729E-02 8.275647101E-01
 1.101176366E-01 -4.415686056E-02 8.361838192E-01
 1.218854934E-01 -4.608609900E-02 8.443389485E-01
 1.332974136E-01 -4.782427475E-02 8.522926289E-01
 1.439053118E-01 -4.932793975E-02 8.605282837E-01
 1.550361216E-01 -5.081735924E-02 8.677839640E-01
 1.668091118E-01 -5.229629576E-02 8.762227592E-01
 1.785687208E-01 -5.367352813E-02 8.848584134E-01
 1.904180944E-01 -5.496152490E-02 8.930517824E-01
 2.008343637E-01 -5.602286011E-02 9.009873496E-01
 2.121493071E-01 -5.709311739E-02 9.080625150E-01
 2.244667411E-01 -5.818286911E-02 9.165783253E-01
 2.368205786E-01 -5.915297568E-02 9.249499337E-01
 2.488424033E-01 -6.001910567E-02 9.322482424E-01
 2.614420354E-01 -6.083840132E-02 9.411070702E-01
 2.724722624E-01 -6.145356223E-02 9.487866993E-01
 2.851834297E-01 -6.207518280E-02 9.572577744E-01
 2.974830270E-01 -6.257449836E-02 9.675549380E-01
 3.103736937E-01 -6.297492236E-02 9.781089872E-01
 3.219914138E-01 -6.324651837E-02 9.874725005E-01
 3.343662620E-01 -6.340661645E-02 9.951952103E-01
 3.448262513E-01 -6.345659494E-02 1.000935663E+00
 3.560674489E-01 -6.340555847E-02 1.004964959E+00
 3.670432568E-01 -6.325685233E-02 1.007453650E+00
 3.776700497E-01 -6.303312629E-02 1.010464769E+00
 3.891574144E-01 -6.267762184E-02 1.009980712E+00
 4.014674425E-01 -6.217449531E-02 1.006712254E+00
 4.135085344E-01 -6.152902916E-02 9.977155075E-01
 4.266232550E-01 -6.070600078E-02 9.835420943E-01
 4.391411543E-01 -5.980353430E-02 9.678280781E-01
 4.521363676E-01 -5.870145932E-02 9.485079277E-01
 4.646212161E-01 -5.755020678E-02 9.295967519E-01
 4.770213068E-01 -5.629289523E-02 9.117654985E-01
 4.887465537E-01 -5.497766659E-02 8.926197278E-01
 5.010983348E-01 -5.355173349E-02 8.737649716E-01
 5.144858360E-01 -5.188892037E-02 8.573108360E-01
 5.282142162E-01 -5.012909696E-02 8.401782339E-01
 5.413066745E-01 -4.834023863E-02 8.232450920E-01
 5.551913977E-01 -4.642331973E-02 8.077542291E-01
 5.680284500E-01 -4.459597543E-02 7.939972964E-01
 5.811559558E-01 -4.266298935E-02 7.797472071E-01
 5.938248634E-01 -4.082523659E-02 7.675003297E-01
 6.061255932E-01 -3.898384050E-02 7.566688407E-01
 6.193228364E-01 -3.702433780E-02 7.452409487E-01
 6.335946918E-01 -3.488692269E-02 7.341001090E-01
 6.471299529E-01 -3.284882754E-02 7.228440802E-01
 6.606702209E-01 -3.081966937E-02 7.134105889E-01
 6.743670106E-01 -2.878882922E-02 7.052909548E-01
 6.869810224E-01 -2.693174221E-02 6.967772453E-01
 6.993755102E-01 -2.508994937E-02 6.870355976E-01
 7.140190005E-01 -2.294211276E-02 6.771374454E-01
 7.269368172E-01 -2.107941732E-02 6.688646678E-01
 7.384033799E-01 -1.945008524E-02 6.619414987E-01
 7.509902716E-01 -1.771129109E-02 6.560489322E-01
 7.639163136E-01 -1.594650932E-02 6.491807649E-01
 7.764357924E-01 -1.422136556E-02 6.402731584E-01
 7.886516452E-01 -1.263124123E-02 6.325964901E-01
 8.010376692E-01 -1.103204861E-02 6.254906442E-01
 8.125071526E-01 -9.650718421E-03 6.204186556E-01
 8.235762715E-01 -8.291530423E-03 6.143909943E-01
 8.361392617E-01 -6.899506785E-03 6.092987545E-01
 8.481284976E-01 -5.569118541E-03 6.020853562E-01
 8.600982428E-01 -4.363983404E-03 5.946880311E-01
 8.717488050E-01 -3.286282066E-03 5.887167309E-01
 8.835964203E-01 -2.280692337E-03 5.836686397E-01
 8.967453837E-01 -1.319267089E-03 5.777739123E-01
 9.067664146E-01 -6.825095625E-04 5.739943969E-01
 9.173133373E-01 -1.400663168E-04 5.725054082E-01
 9.271875620E-01 2.789097198E-04 5.710802806E-01
 9.363223314E-01 5.898631644E-04 5.693849529E-01
 9.490035176E-01 8.785226382E-04 5.701364865E-01
 9.628113508E-01 1.019134768E-03 5.672733963E-01
 9.774431586E-01 9.803530993E-04 5.703228544E-01
 9.898799658E-01 7.875413867E-04 5.673816074E-01
 -5.000000000E-01 -1.000000000E+00 7.118411494E-01
 3.500000000E+00 -1.000000000E+00 7.310781398E-01
 3.500000000E+00 1.000000000E+00 7.289978716E-01
 -5.000000000E-01 1.000000000E+00 7.107396025E-01
 -5.000000000E-01 5.000000000E-01 6.993922025E-01
 -5.000000000E-01 2.752797990E-12 6.868146767E-01
 -5.000000000E-01 -5.000000000E-01 6.986114757E-01
 -9.421907698E-13 -1.000000000E+00 7.212720823E-01
 5.000000000E-01 -1.000000000E+00 7.436835998E-01
 1.000000000E+00 -1.000000000E+00 7.320966732E-01
 1.500000000E+00 -1.000000000E+00 7.230442851E-01
 2.000000000E+00 -1.000000000E+00 7.241045269E-01
 2.500000000E+00 -1.000000000E+00 7.275082965E-01
 3.000000000E+00 -1.000000000E+00 7.293337912E-01
 3.500000000E+00 -5.000000000E-01 7.332945508E-01
 3.500000000E+00 -2.752797990E-12 7.349474079E-01
 3.500000000E+00 5.000000000E-01 7.325879072E-01
 3.000000000E+00 1.000000000E+00 7.276527010E-01
 2.500000000E+00 1.000000000E+00 7.303909294E-01
 2.000000000E+00 1.000000000E+00 7.356791670E-01
 1.500000000E+00 1.000000000E+00 7.475478895E-01
 1.000000000E+00 1.000000000E+00 7.713502816E-01
 5.000000000E-01 1.000000000E+00 7.706141595E-01
 1.733724275E-12 1.000000000E+00 7.291121613E-01
 6.831561050E-01 -3.756001849E-02 7.045168539E-01
 7.832589217E-01 -2.614907906E-02 6.444491908E-01
 9.150838607E-01 -1.122002656E-02 5.826496363E-01
 6.950006203E-01 5.619055920E-02 8.925052416E-01
 2.770290872E-01 6.531468824E-02 9.128948262E-01
 2.788142656E-01 -7.178565521E-02 9.533674058E-01
 7.969176426E-01 4.835611061E-02 8.333316404E-01
 9.080889198E-01 3.167454688E-02 7.664360389E-01
 5.752723924E-01 -5.614884058E-02 7.910248604E-01
 5.922709956E-01 6.503674964E-02 9.647430523E-01
 4.083488406E-01 -7.249581761E-02 9.977386578E-01
 4.241211367E-01 7.241971397E-02 9.752030873E-01
 1.789323259E+00 -5.345467277E-01 7.278757658E-01
 1.777267810E+00 6.397939613E-01 7.439610393E-01
 3.031189658E+00 2.156774754E-01 7.377227123E-01
 7.530657054E-01 -5.469865899E-01 7.358757763E-01
 4.830388885E-01 -6.653612758E-02 9.027895700E-01
 3.507159770E-01 -7.002161510E-01 7.686828384E-01
 1.146304080E-01 -6.104800922E-02 8.430813660E-01
 1.840798096E-01 -6.627808013E-02 8.926848062E-01
 7.552565983E-01 5.125028975E-01 8.177255938E-01
 5.048474194E-01 7.278704060E-02 9.947297606E-01
 2.734813235E+00 -5.327263870E-01 7.332981475E-01
 1.167011294E+00 6.149008497E-01 7.632732366E-01
 9.760793779E-01 3.363567284E-01 7.624947065E-01
 9.678648592E-01 1.817911333E-02 6.959047764E-01
 1.295938764E+00 -5.935100557E-01 7.164075299E-01
 1.518547604E+00 -2.688542625E-01 7.260903035E-01
 2.980148487E-01 6.254149302E-01 7.836108777E-01
 1.048392027E-01 5.197456343E-02 8.231387649E-01
 1.597992526E-01 5.566822768E-02 8.539253036E-01
 3.481626077E-01 7.138405684E-02 9.451056003E-01
 2.241067928E+00 -5.778645023E-01 7.311145227E-01
 2.026589686E+00 -1.992831191E-01 7.347153400E-01
 2.420043864E+00 -1.844117154E-01 7.368401837E-01
 2.184503212E+00 1.579478621E-01 7.403873762E-01
 1.834572254E+00 6.686332349E-02 7.372972296E-01
 -2.739114740E-01 2.321220198E-01 6.801787046E-01
 -1.052003852E-01 6.220932413E-01 7.247359130E-01
 2.990383353E-02 3.286444098E-01 7.300828249E-01
 4.288429222E-02 3.463474264E-02 7.636299395E-01
 -2.711550883E-01 -2.368217062E-01 6.792764261E-01
 -1.460460817E-01 -6.015433019E-01 7.171524333E-01
 1.214430307E-01 -3.701114378E-01 7.685437437E-01
 2.238936630E+00 5.534907786E-01 7.399627586E-01
 2.745993800E+00 5.958975954E-01 7.360971247E-01
 -2.351555152E-01 -4.609162027E-03 6.588290948E-01
 -1.274976999E-01 1.262599481E-01 6.485830647E-01
 -1.095072262E-01 -1.272556463E-01 6.457628060E-01
 6.107506058E-02 -4.647976001E-02 7.813550079E-01
 -7.741954881E-02 -3.179317518E-01 7.022286357E-01
 -2.319994562E-03 -1.778740300E-01 6.960346574E-01
 1.636789828E-01 -2.222559755E-01 8.208898859E-01
 3.404235165E-01 -7.371178836E-02 9.959703014E-01
 3.695941797E-01 -7.442451619E-02 1.003691799E+00
 3.132384880E-01 -7.666105591E-02 9.785767787E-01
 2.299346981E-01 -7.252795541E-02 9.223525646E-01
 -2.686736100E-02 -1.033334371E-01 6.298490778E-01
 3.006503835E-02 -3.244930433E-02 6.880311289E-01
 -1.095335986E-01 -2.354881920E-02 6.050393590E-01
 -7.030823002E-02 5.508621767E-02 5.891354114E-01
 3.592475738E-02 -1.122798383E-01 7.143442851E-01
 3.109341074E+00 -2.613053849E-01 7.360399516E-01
 -5.075858083E-02 -3.896502379E-02 5.584887929E-01
 -5.084374250E-02 1.130976525E-02 5.289474059E-01
 -2.598907694E-02 5.091625316E-02 5.753124275E-01
 2.388005467E-02 2.539409554E-02 7.283318531E-01
 1.291903088E-02 1.645401529E-02 6.829213444E-01
 -3.601535383E-02 1.017486518E-01 6.384891152E-01
 3.474858209E-02 1.133677686E-01 7.181163212E-01
 7.371723812E-02 4.472665983E-02 7.987546062E-01
 -2.026077238E-02 1.841587539E-01 6.912878434E-01
 8.862190443E-02 1.731768819E-01 7.727599524E-01
 2.246508321E-01 6.415240289E-02 8.875828096E-01
 1.675988241E-01 2.920897383E-01 8.012918267E-01
 1.984869107E-01 6.308203333E-02 8.757502486E-01
 2.006506941E-01 1.743948116E-01 8.451941382E-01
 2.772587125E-01 2.565455533E-01 8.577556945E-01
 2.867653369E-01 1.686665142E-01 8.897307667E-01
 3.744608778E-01 2.094182137E-01 9.060635203E-01
 3.145494913E-01 6.842810246E-02 9.293527573E-01
 3.728777674E-01 3.051572058E-01 8.734128932E-01
 4.798332814E-01 2.572272301E-01 9.074261681E-01
 4.543174077E-01 1.715199335E-01 9.428268544E-01
 5.789082183E-01 2.155959940E-01 9.196182582E-01
 6.473526937E-01 5.960044186E-02 9.280572592E-01
 6.712761747E-01 5.726323537E-02 9.094205330E-01
 6.270946636E-01 6.401434636E-02 9.410976963E-01
 5.537277893E-01 6.772194919E-02 9.876167483E-01
 5.280815713E-01 7.253708491E-02 9.926811946E-01
 4.652376231E-01 7.549323112E-02 9.859927273E-01
 3.978712897E-01 1.437020250E-01 9.426174822E-01
 3.857536714E-01 7.318696022E-02 9.613569561E-01
 5.842265155E-01 3.254532397E-01 8.826034857E-01
 6.747336510E-01 2.445122965E-01 8.762482874E-01
 6.408174925E-01 1.627216488E-01 9.119186441E-01
 7.406767891E-01 1.753144170E-01 8.539015532E-01
 8.471423163E-01 4.140347597E-02 8.096874775E-01
 8.685959474E-01 3.421087735E-02 7.946912952E-01
 8.183352625E-01 4.022898861E-02 8.225399329E-01
 7.574842403E-01 4.980929242E-02 8.539812588E-01
 7.301528683E-01 5.367211861E-02 8.692594878E-01
 7.807141791E-01 2.639415592E-01 8.269858820E-01
 8.331738599E-01 1.751259449E-01 8.117074599E-01
 7.857925007E-01 1.196585045E-01 8.380410767E-01
 8.595588060E-01 1.146301521E-01 8.001382187E-01
 9.060277551E-01 1.584189039E-01 7.745831688E-01
 9.300952964E-01 9.494575518E-02 7.545320387E-01
 9.704182657E-01 1.354546988E-01 7.384713518E-01
 1.004614398E+00 8.319732042E-02 7.067039671E-01
 1.059596092E+00 1.406716249E-01 7.174198590E-01
 5.690504703E-01 1.398534569E-01 9.527152239E-01
 7.344507846E-01 1.066879543E-01 8.668548590E-01
 1.470623167E-01 1.256383368E-01 8.290312964E-01
 2.383997782E-01 1.259236824E-01 8.832825758E-01
 6.154331977E-01 1.096100055E-01 9.426789248E-01
 6.596448245E-01 1.130145373E-01 9.131933434E-01
 7.057921959E-01 3.594759623E-01 8.450318517E-01
 8.860594218E-01 7.648560428E-02 7.853888168E-01
 4.445917595E-01 1.213142475E-01 9.654886901E-01
 4.986102863E-01 1.245843744E-01 9.732180949E-01
 8.825908144E-02 1.046950594E-01 7.913446763E-01
 8.200690403E-01 9.320391814E-02 8.232400885E-01
 9.612411095E-01 6.242163585E-02 7.200114806E-01
 9.281622148E-01 2.703402792E-02 7.406435479E-01
 1.287814680E-01 8.612809292E-02 8.318197916E-01
 1.448043307E-01 5.380514593E-02 8.456337762E-01
 2.850539444E-01 1.151259807E-01 9.099203508E-01
 3.402358015E-01 1.257700218E-01 9.280350681E-01
 1.433844656E-01 4.481224229E-01 7.677084504E-01
 4.473644694E-01 4.204052879E-01 8.552341359E-01
 5.791321099E-01 9.797331629E-02 9.658697557E-01
 -5.959593353E-03 -6.124531503E-02 6.089018087E-01
 1.118245167E-02 -1.846535119E-02 5.482228742E-01
 3.303161811E-02 -6.941033202E-02 7.261933511E-01
 4.392923816E-02 -3.801932444E-02 7.420933750E-01
 7.628098951E-01 8.291185589E-02 8.538815738E-01
 7.908251057E-01 7.313515894E-02 8.390325638E-01
 1.629472721E-01 8.913300762E-02 8.542947574E-01
 3.758258998E-01 1.098724053E-01 9.494762659E-01
 6.397997055E-01 9.268271621E-02 9.309348100E-01
 8.829776122E-01 2.530259730E-01 7.853120619E-01
 8.400821071E-01 3.731618970E-01 8.006554743E-01
 9.525417474E-01 1.929941132E-02 7.106084964E-01
 1.348356302E-02 6.588212877E-02 6.826917013E-01
 5.499679288E-02 7.468191138E-02 7.660840684E-01
 3.628006517E-01 7.215996333E-02 9.510370254E-01
 3.558975375E-01 9.150857713E-02 9.460878280E-01
 3.355394290E-01 8.497812186E-02 9.395541752E-01
 3.749161563E-01 8.444914052E-02 9.552475894E-01
 3.958340812E-01 8.795900201E-02 9.619635336E-01
 2.878664375E-01 6.577275531E-02 9.172940398E-01
 9.814881726E-01 1.623085253E-02 6.679270679E-01
 9.760177573E-01 3.496294105E-02 6.935804082E-01
 9.981872961E-01 2.914284363E-02 6.688048081E-01
 9.946646505E-01 1.235987528E-02 6.525540063E-01
 3.374281804E-01 6.867241023E-02 9.406327883E-01
 3.120704449E-01 8.765364294E-02 9.281351942E-01
 3.255242503E-01 7.113110594E-02 9.354441837E-01
 3.001793873E-01 6.983800392E-02 9.233102877E-01
 8.077076437E-01 4.259174774E-02 8.272541706E-01
 7.444561868E-01 5.260847201E-02 8.613313375E-01
 7.408705276E-01 7.123152880E-02 8.648435486E-01
 7.179732032E-01 6.861063434E-02 8.781497589E-01
 6.033592105E-01 6.534182460E-02 9.564081411E-01
 5.975208935E-01 8.059595908E-02 9.595662073E-01
 6.177762039E-01 7.831171312E-02 9.455333763E-01
 7.820483180E-01 5.089020956E-02 8.412286117E-01
 7.710780252E-01 6.300418967E-02 8.492818847E-01
 5.784230677E-01 7.284115127E-02 9.718033094E-01
 8.154058317E-01 5.720204145E-02 8.258766482E-01
 8.437659366E-01 6.812539303E-02 8.104320308E-01
 3.980782695E-01 7.106270403E-02 9.656579000E-01
 2.803496773E-01 8.271249944E-02 9.156903807E-01
 2.485956721E-01 6.858715391E-02 8.991860351E-01
 2.522610603E-01 9.209288939E-02 9.005190736E-01
 2.162097728E-01 9.633277544E-02 8.837937404E-01
 9.618660566E-01 5.025277448E-01 7.804606134E-01
 1.283936644E+00 3.457712796E-01 7.397596515E-01
 6.383288726E-01 6.053833885E-02 9.351344354E-01
 5.650299294E-01 6.847816432E-02 9.815623210E-01
 5.584511298E-01 8.192637656E-02 9.804675563E-01
 7.700553790E-01 4.775178165E-02 8.474087855E-01
 3.745484579E-01 7.012168113E-02 9.569095233E-01
 2.643420498E-01 6.964179397E-02 9.073175385E-01
 5.430234410E-01 7.188359398E-02 9.906804011E-01
 5.395386808E-01 9.101525374E-02 9.855372568E-01
 5.170056234E-01 9.073721416E-02 9.887125198E-01
 4.957460801E-01 8.897678192E-02 9.890897701E-01
 1.457265407E+00 5.758534344E-01 7.478690587E-01
 1.569778652E+00 2.981995124E-01 7.401420464E-01
 1.364814435E+00 7.269510147E-02 7.237594683E-01
 1.219683584E+00 1.792671729E-01 7.213602026E-01
 1.209493659E+00 -2.213548248E-02 7.013409381E-01
 1.357917972E+00 -1.128741601E-01 7.180206384E-01
 1.209504600E+00 -1.731689007E-01 7.050143753E-01
 1.111692544E+00 -9.794611510E-02 6.829242028E-01
 9.700935946E-01 -1.823606395E-02 5.887975960E-01
 9.414068124E-01 -1.084876632E-02 5.802945486E-01
 1.076802772E+00 -2.179691044E-01 6.861769683E-01
 9.519225827E-01 -1.713283718E-01 6.634045190E-01
 8.432844746E-01 -1.660328103E-02 6.103514838E-01
 8.800056943E-01 -1.704100404E-02 5.955636260E-01
 1.102989251E+00 -4.969907196E-03 6.762715640E-01
 9.507312737E-01 -2.955578974E-01 6.877484934E-01
 8.389761272E-01 -2.034408305E-01 6.814302314E-01
 7.347786568E-01 -3.266488383E-02 6.716032279E-01
 8.755273588E-01 -1.130079323E-01 6.516946172E-01
 7.790804134E-01 -1.236462069E-01 6.834482133E-01
 7.387835920E-01 -2.139905632E-01 7.135477768E-01
 6.280167241E-01 -4.521483078E-02 7.430079868E-01
 6.866110363E-01 -1.451362549E-01 7.293724193E-01
 6.471447358E-01 -2.089986473E-01 7.526889064E-01
 5.940596800E-01 -1.469430047E-01 7.861004833E-01
 5.569235039E-01 -2.289811766E-01 8.040041420E-01
 5.226064410E-01 -6.680225674E-02 8.513576352E-01
 5.037479238E-01 -1.636246393E-01 8.613695531E-01
 4.692189690E-01 -2.251952779E-01 8.725464993E-01
 4.471136834E-01 -7.617055912E-02 9.523333389E-01
 5.116085771E-01 -3.309592986E-01 8.244749454E-01
 4.115906042E-01 -1.643826542E-01 9.301265510E-01
 3.705326464E-01 -2.508456967E-01 8.869527528E-01
 3.182684615E-01 -1.797161841E-01 9.148960822E-01
 8.170466849E-01 -3.485829299E-01 7.085061073E-01
 8.246012648E-01 -8.692747058E-02 6.563936677E-01
 7.262610834E-01 -9.143633897E-02 7.009000719E-01
 1.054415745E+00 -4.996547888E-02 6.558494942E-01
 6.396610827E-01 -1.111108005E-01 7.523749124E-01
 5.397869145E-01 -1.200077158E-01 8.317609468E-01
 5.509483244E-01 -6.064135180E-02 8.168183188E-01
 1.050960386E+00 4.936542066E-03 6.534719248E-01
 9.733971419E-01 -4.786244239E-01 7.086724703E-01
 3.599200811E-01 -1.354646573E-01 9.585785287E-01
 2.649595434E-01 -2.612990596E-01 8.532817627E-01
 9.505207321E-01 -8.919450922E-02 6.335755737E-01
 4.550201019E-01 -1.278130550E-01 9.204117239E-01
 1.565457191E+00 -2.103210167E-02 7.294160267E-01
 1.064707021E+00 5.747822282E-02 6.872843618E-01
 1.148868810E+00 7.164754921E-02 7.024519856E-01
 8.991237150E-01 -6.207876576E-02 6.238696620E-01
 8.540423344E-01 -5.471097276E-02 6.319975612E-01
 3.318366474E-01 -3.894580795E-01 8.167635488E-01
 6.550454226E-01 -3.400507987E-01 7.521382579E-01
 1.199260996E+00 -3.315920721E-01 7.063563726E-01
 1.024602029E+00 -2.316199178E-02 6.282007899E-01
 1.007241480E+00 -5.931782405E-02 6.327851529E-01
 8.170983696E-01 -4.802273997E-02 6.417091638E-01
 7.914078784E-01 -6.891836093E-02 6.621941447E-01
 7.581571127E-01 -2.920913657E-02 6.590225894E-01
 8.086262469E-01 -2.441874358E-02 6.319028784E-01
 8.593481683E-01 -2.582523648E-02 6.103364591E-01
 5.527897521E-01 -5.041718184E-01 7.840069203E-01
 9.343298210E-01 -4.690342566E-02 6.095860352E-01
 9.675083556E-01 -4.733284257E-02 6.106670727E-01
 9.960228994E-01 -3.031049022E-02 6.034332853E-01
 8.277079057E-01 -2.601609349E-02 6.220854616E-01
 1.103345587E+00 2.691088854E-01 7.349296980E-01
 9.849061184E-01 -1.058667758E-02 5.662665075E-01
 2.328692313E-01 7.802820170E-02 8.923085671E-01
 8.652658514E-01 -1.311281801E-02 5.979301028E-01
 4.112244854E-01 7.219651693E-02 9.697057338E-01
 4.203371602E-01 9.297704455E-02 9.692057110E-01
 4.400445705E-01 8.935159106E-02 9.768030642E-01
 4.668648488E-01 9.551430494E-02 9.818151863E-01
 8.580554739E-01 3.538777461E-02 8.036113785E-01
 8.647527861E-01 5.036131622E-02 7.996424259E-01
 8.841340548E-01 4.709386046E-02 7.862096163E-01
 9.081648669E-01 5.299843678E-02 7.665011112E-01
 7.699135521E-01 -2.555323252E-02 6.509822379E-01
 7.704277254E-01 -4.305145466E-02 6.603528991E-01
 7.497774539E-01 -4.286417206E-02 6.705978613E-01
 7.277656782E-01 -5.041499054E-02 6.847631906E-01
 7.105280813E-01 -3.762591616E-02 6.880341734E-01
 7.039535095E-01 -5.980899854E-02 7.030907515E-01
 7.574533721E-01 -7.005525401E-02 6.787153232E-01
 7.966456519E-01 -3.947146733E-02 6.463232679E-01
 -1.198943914E-01 2.647312115E-01 6.876571433E-01
 7.956440270E-01 -2.274051596E-02 6.357634632E-01
 6.972106776E-01 9.575259687E-02 8.915828072E-01
 2.366013046E-01 6.314706085E-02 8.930811631E-01
 4.811595756E-01 7.714463342E-02 9.895896123E-01
 1.026495812E+00 3.307879854E-03 6.315958649E-01
 1.024934157E+00 3.431310509E-02 6.678054069E-01
 1.008030073E+00 1.106458987E-02 6.300562245E-01
 2.562789353E+00 2.036321991E-01 7.399172553E-01
 8.310408515E-01 4.417173277E-02 8.169470564E-01
 8.860541323E-01 -3.612959840E-02 6.102500820E-01
 8.945846063E-01 -2.083219150E-02 5.954454175E-01
 6.152349739E-01 6.313623425E-02 9.486047256E-01
 9.370509745E-01 4.773012561E-02 7.390239624E-01
 8.552250469E-01 -1.309488749E-02 6.025355183E-01
 -2.006076757E-02 -3.113246244E-02 5.004668881E-01
 5.112582016E-03 -1.362377097E-02 4.491220806E-01
 -2.311576795E-02 -6.342549475E-03 4.079645174E-01
 -1.249171223E-02 1.664863477E-02 4.592083068E-01
 9.504124120E-02 7.206483623E-02 8.121247628E-01
 6.656017618E-01 8.428111667E-02 9.130281469E-01
 6.943285652E-01 1.374759835E-01 8.855177466E-01
 2.844165146E-01 3.912891897E-01 8.264109191E-01
 6.833324949E-01 -9.218865767E-02 7.238346248E-01
 6.552629880E-01 -4.506774494E-02 7.242722307E-01
 6.558055665E-01 -7.794622099E-02 7.359501412E-01
 6.796868564E-01 -6.549748371E-02 7.190967349E-01
 6.409168616E-01 -4.631390178E-02 7.346746637E-01
 1.971410319E-03 -3.903474896E-02 5.784818950E-01
 2.117148574E-02 -2.552759857E-02 6.349820220E-01
 2.032026368E-02 -4.737141016E-02 6.745513528E-01
 9.196617607E-01 3.837307332E-02 7.531486595E-01
 6.307390403E-01 -7.959329097E-02 7.531403357E-01
 6.026743414E-01 -4.938347609E-02 7.640436856E-01
 6.161426660E-01 -4.932120075E-02 7.537237803E-01
 5.913639537E-01 -5.402415548E-02 7.756580025E-01
 5.855074375E-01 -7.485065928E-02 7.869184371E-01
 6.051321051E-01 -9.644609212E-02 7.753195389E-01
 5.650191161E-01 -7.144879929E-02 8.054544415E-01
 5.436445999E-01 -8.124316019E-02 8.279371923E-01
 5.214294495E-01 -8.789674844E-02 8.537063108E-01
 5.047703790E-01 -7.715606498E-02 8.746195415E-01
 4.958197774E-01 -1.002370804E-01 8.808402934E-01
 4.649354267E-01 -9.340035139E-02 9.242260506E-01
 4.382486978E-01 -9.929162210E-02 9.551170531E-01
 4.302122891E-01 -8.220650686E-02 9.722384662E-01
 4.119034845E-01 -8.980878887E-02 9.840847894E-01
 3.908072646E-01 -8.859694230E-02 9.977984948E-01
 3.703582557E-01 -9.451156337E-02 9.925216805E-01
 3.925836664E-01 -1.126429993E-01 9.759990550E-01
 3.409736146E-01 -1.060410090E-01 9.803290290E-01
 2.874906841E-01 -1.253168012E-01 9.348938115E-01
 2.418433249E-01 -1.755406353E-01 8.846116049E-01
 1.764870144E-01 -1.418161173E-01 8.637667662E-01
 1.479299074E-01 -6.247028471E-02 8.667188613E-01
 2.338584244E-01 -1.203904229E-01 9.116019256E-01
 9.802305266E-02 -1.602051949E-01 7.855171134E-01
 1.319289743E-01 -1.122077261E-01 8.442861220E-01
 9.063293742E-02 -1.023869818E-01 8.049890988E-01
 8.089034549E-02 -5.256898128E-02 8.105536107E-01
 1.966436821E-01 -1.057243248E-01 8.972607473E-01
 2.059013913E-01 -6.963130090E-02 9.066518678E-01
 1.693370298E-01 -9.615865635E-02 8.800951812E-01
 3.555484141E-01 -8.196334285E-02 9.964817189E-01
 7.285780700E-02 -2.503067607E-01 7.505123655E-01
 2.604123155E-01 -9.485614143E-02 9.388272520E-01
 2.533947973E-01 -7.463893159E-02 9.362201578E-01
 2.676034803E-01 -7.581261881E-02 9.461781353E-01
 2.394988134E-01 -8.706114137E-02 9.279889009E-01
 6.501352509E-02 -7.508689841E-02 7.870630464E-01
 9.412110699E-02 -7.154074414E-02 8.264460750E-01
 1.188875314E-01 -8.313770970E-02 8.439397075E-01
 1.318586033E-01 -6.686452072E-02 8.565803040E-01
 3.095822736E-01 -1.008776988E-01 9.671111659E-01
 2.976648158E-01 -8.262550635E-02 9.675748580E-01
 3.297653486E-01 -8.711714098E-02 9.858082090E-01
 1.439073180E-01 -8.203712798E-02 8.650102422E-01
 1.620841745E-01 -7.301789905E-02 8.789567675E-01
 1.747112230E+00 -1.822221247E-01 7.316210590E-01
 5.164863898E-01 6.959206405E-02 9.940289448E-01
 9.083900181E-01 -2.944883486E-02 5.993029114E-01
 9.277749001E-01 -1.801608523E-02 5.887810527E-01
 9.487904855E-01 -2.688098222E-02 5.935152700E-01
 2.166433814E-01 -8.644831717E-02 9.143337131E-01
 1.926620894E-01 -8.248200700E-02 8.993252960E-01
 4.674957507E-01 -7.023340275E-02 9.238416501E-01
 7.228056468E-01 -3.294546412E-02 6.781358919E-01
 2.117241806E-01 7.356189630E-02 8.833163169E-01
 1.927884288E-01 8.204563484E-02 8.724846558E-01
 1.789313907E-01 6.338699690E-02 8.637248328E-01
 3.232470230E-01 -1.294832701E-01 9.563252725E-01
 5.839657214E-01 6.281167735E-01 8.221898188E-01
 6.956663928E-01 -3.999663634E-02 6.978491430E-01
 8.930907987E-01 3.384074593E-02 7.792222914E-01
 6.824570357E-01 5.870622100E-02 9.011644596E-01
 1.629280568E-03 3.922843369E-02 6.299347306E-01
 9.169375774E-01 2.508906751E-02 7.535264389E-01
 6.921653204E-01 7.314527931E-02 8.952188804E-01
 5.245791357E-01 1.720344708E-01 9.496987552E-01
 8.808474669E-01 3.176848325E-02 7.876235191E-01
 3.279570058E-01 -7.282862401E-02 9.894801084E-01
 9.408681596E-01 2.573884415E-02 7.255195712E-01
 5.338826956E-01 1.207161089E-01 9.742265935E-01
 6.690247645E-01 -4.146327071E-02 7.136573422E-01
 3.133974596E+00 6.339745962E-01 7.326081052E-01
 4.503275936E-01 7.617272469E-02 9.823967667E-01
 4.378794734E-01 7.213327298E-02 9.794265674E-01
 5.628919361E-01 -5.585165737E-02 8.033006690E-01
 5.370695614E-01 -6.132452025E-02 8.325592345E-01
 6.088938772E-01 -6.618541333E-02 7.655020953E-01