TITLE     = "Visualization of the solution"
VARIABLES = "x"
"y"
"Mach"
ZONE T="Zone"
 STRANDID=0, SOLUTIONTIME=0
 Nodes=693, Elements=1171, ZONETYPE=FEQuadrilateral
 DATAPACKING=POINT
 DT=(DOUBLE DOUBLE DOUBLE )
 9.997768998E-01 5.293363938E-04 5.780017819E-01
 9.871551394E-01 2.813186264E-03 6.393866304E-01
 9.756008983E-01 4.903968424E-03 6.603902324E-01
 9.628148675E-01 7.287772372E-03 6.893708871E-01
 9.500491619E-01 9.604102932E-03 7.067563555E-01
 9.375844598E-01 1.174441539E-02 7.198070550E-01
 9.269278049E-01 1.362062525E-02 7.379549088E-01
 9.148930311E-01 1.571185887E-02 7.561201570E-01
 9.034861326E-01 1.757368073E-02 7.679184979E-01
 8.911211491E-01 1.948395558E-02 7.765521930E-01
 8.787491918E-01 2.133525349E-02 7.863101142E-01
 8.669258952E-01 2.306520194E-02 7.933175824E-01
 8.537907004E-01 2.483626269E-02 7.999359491E-01
 8.421379924E-01 2.643348090E-02 8.071846362E-01
 8.299065828E-01 2.799375355E-02 8.105280097E-01
 8.165078163E-01 2.966058999E-02 8.136474572E-01
 8.030530810E-01 3.131702915E-02 8.192979305E-01
 7.908545136E-01 3.279007971E-02 8.256395540E-01
 7.778587341E-01 3.430238739E-02 8.325857655E-01
 7.655302286E-01 3.573995084E-02 8.374586414E-01
 7.518855333E-01 3.722080588E-02 8.417357301E-01
 7.375183702E-01 3.879429400E-02 8.488783084E-01
 7.264231443E-01 3.999291733E-02 8.569411022E-01
 7.151025534E-01 4.117181897E-02 8.621754671E-01
 7.028939128E-01 4.238215089E-02 8.669920328E-01
 6.890468597E-01 4.375084117E-02 8.753985333E-01
 6.755852699E-01 4.502206296E-02 8.843755665E-01
 6.652868390E-01 4.596793652E-02 8.916678530E-01
 6.534756422E-01 4.699421301E-02 8.973410322E-01
 6.423192024E-01 4.791979492E-02 9.035165203E-01
 6.302457452E-01 4.889537767E-02 9.118227792E-01
 6.190823317E-01 4.975211248E-02 9.182717345E-01
 6.079821587E-01 5.053538084E-02 9.239722005E-01
 5.952802300E-01 5.140084773E-02 9.307144237E-01
 5.831842422E-01 5.216033012E-02 9.361421435E-01
 5.692521334E-01 5.293066800E-02 9.400941414E-01
 5.564500093E-01 5.359490961E-02 9.449647495E-01
 5.437106490E-01 5.417808145E-02 9.473475832E-01
 5.325061679E-01 5.461481586E-02 9.495733973E-01
 5.207480192E-01 5.504916981E-02 9.510116381E-01
 5.077650547E-01 5.541667342E-02 9.501184713E-01
 4.968929887E-01 5.566890165E-02 9.484495508E-01
 4.837462306E-01 5.591838807E-02 9.475109109E-01
 4.708836079E-01 5.608099326E-02 9.455211815E-01
 4.565420449E-01 5.618150905E-02 9.418431967E-01
 4.425393939E-01 5.617717281E-02 9.378702530E-01
 4.295440614E-01 5.611801520E-02 9.340149464E-01
 4.163205624E-01 5.596921965E-02 9.297308401E-01
 4.041596055E-01 5.578471720E-02 9.257930341E-01
 3.918268681E-01 5.552966893E-02 9.219156317E-01
 3.798991740E-01 5.522590503E-02 9.174729116E-01
 3.691020012E-01 5.490660667E-02 9.123793725E-01
 3.562120199E-01 5.445957184E-02 9.077556660E-01
 3.445225358E-01 5.401152372E-02 9.035866174E-01
 3.323284686E-01 5.348214507E-02 8.997127493E-01
 3.219936788E-01 5.298751593E-02 8.946844718E-01
 3.100277483E-01 5.236511305E-02 8.889352667E-01
 2.972197235E-01 5.164353922E-02 8.828329334E-01
 2.834633887E-01 5.080249533E-02 8.773427311E-01
 2.708668709E-01 4.996960610E-02 8.721272387E-01
 2.589058280E-01 4.912665486E-02 8.663774186E-01
 2.462820560E-01 4.817845300E-02 8.608398151E-01
 2.334523797E-01 4.715302214E-02 8.550779998E-01
 2.213925570E-01 4.612918198E-02 8.502011615E-01
 2.096798271E-01 4.507983103E-02 8.449324535E-01
 1.986412853E-01 4.404082522E-02 8.399933455E-01
 1.862713397E-01 4.281441867E-02 8.351558742E-01
 1.743667275E-01 4.156962782E-02 8.296845979E-01
 1.627290845E-01 4.029528797E-02 8.240508925E-01
 1.507823169E-01 3.890734911E-02 8.184280417E-01
 1.400073469E-01 3.759642318E-02 8.139268734E-01
 1.287487745E-01 3.615756333E-02 8.095909360E-01
 1.170418561E-01 3.456535563E-02 8.036866850E-01
 1.063708887E-01 3.304325044E-02 7.985521821E-01
 9.657388180E-02 3.156702593E-02 7.888227917E-01
 8.524101973E-02 2.974756248E-02 7.805883035E-01
 7.306366414E-02 2.765026502E-02 7.705649905E-01
 6.297627091E-02 2.577263117E-02 7.589304344E-01
 5.305977538E-02 2.377039194E-02 7.454518998E-01
 4.388509691E-02 2.173658274E-02 7.290700603E-01
 3.613073751E-02 1.984755881E-02 7.206186392E-01
 2.943620645E-02 1.804127917E-02 7.059587293E-01
 2.373262122E-02 1.633467153E-02 6.845410908E-01
 1.964802295E-02 1.498484612E-02 6.780944438E-01
 1.592026651E-02 1.362562273E-02 6.637168575E-01
 1.330091897E-02 1.257716678E-02 6.464272248E-01
 1.099902671E-02 1.156370714E-02 6.219262130E-01
 9.296322241E-03 1.074951421E-02 6.105905039E-01
 7.714886684E-03 9.927378967E-03 6.111188083E-01
 6.237282418E-03 9.087910876E-03 6.110353401E-01
 4.277278669E-03 7.822315209E-03 6.006900565E-01
 2.618889092E-03 6.551854312E-03 5.895956079E-01
 1.140984823E-03 5.151296966E-03 4.830533392E-01
 -2.650493989E-04 3.332085907E-03 3.761012245E-01
 -9.956402937E-04 1.852924004E-03 3.262569191E-01
 -1.324826851E-03 6.815726520E-04 2.126408886E-01
 -1.445929753E-03 -7.608688320E-04 6.483465682E-02
 -1.199781080E-03 -2.479970921E-03 8.846846339E-02
 -4.448488762E-04 -4.428423475E-03 1.467020914E-01
 9.132848354E-04 -6.519088522E-03 2.933513690E-01
 2.928594593E-03 -8.727062494E-03 4.453264026E-01
 4.715844523E-03 -1.028857194E-02 4.577138882E-01
 6.865886040E-03 -1.189313270E-02 4.992013652E-01
 8.416283876E-03 -1.292248629E-02 5.291057173E-01
 1.037894469E-02 -1.411532611E-02 5.529136559E-01
 1.274104975E-02 -1.542346831E-02 5.659495661E-01
 1.589689218E-02 -1.699454710E-02 5.940405142E-01
 1.897600852E-02 -1.839276776E-02 6.299311949E-01
 2.297505923E-02 -2.003758959E-02 6.517614009E-01
 2.846603841E-02 -2.206966095E-02 6.726398065E-01
 3.420637175E-02 -2.398572862E-02 6.909936145E-01
 4.167827964E-02 -2.621479332E-02 7.150406244E-01
 4.922486842E-02 -2.825502120E-02 7.350097809E-01
 5.805101246E-02 -3.041441925E-02 7.512805927E-01
 6.666222215E-02 -3.235156089E-02 7.639691181E-01
 7.709417492E-02 -3.450809792E-02 7.743879834E-01
 8.715023845E-02 -3.641978651E-02 7.847899077E-01
 9.771683812E-02 -3.829841688E-02 7.931313767E-01
 1.086398885E-01 -4.009481892E-02 8.028869905E-01
 1.202232391E-01 -4.189256206E-02 8.121516494E-01
 1.316224188E-01 -4.353601858E-02 8.205128827E-01
 1.420931071E-01 -4.496853426E-02 8.309506926E-01
 1.532110423E-01 -4.640241712E-02 8.385976290E-01
 1.652412117E-01 -4.786099866E-02 8.451833133E-01
 1.769005805E-01 -4.918388277E-02 8.522274358E-01
 1.889156550E-01 -5.047868937E-02 8.604195904E-01
 1.994720101E-01 -5.153996497E-02 8.700208892E-01
 2.108777165E-01 -5.262195691E-02 8.773797779E-01
 2.232764661E-01 -5.369526893E-02 8.847139833E-01
 2.357556075E-01 -5.471264571E-02 8.926952209E-01
 2.482280284E-01 -5.563199520E-02 9.013779111E-01
 2.612544000E-01 -5.649908260E-02 9.104468777E-01
 2.725525796E-01 -5.718012527E-02 9.210516206E-01
 2.855815291E-01 -5.785240978E-02 9.300111411E-01
 2.983647883E-01 -5.841746181E-02 9.390492617E-01
 3.114256263E-01 -5.888530985E-02 9.485888521E-01
 3.231497407E-01 -5.920823291E-02 9.579809433E-01
 3.357337117E-01 -5.944702402E-02 9.662248503E-01
 3.462640345E-01 -5.954319611E-02 9.732757485E-01
 3.576028049E-01 -5.957012996E-02 9.776898037E-01
 3.686574697E-01 -5.948685482E-02 9.828492427E-01
 3.793255687E-01 -5.933379382E-02 9.880625950E-01
 3.906108141E-01 -5.903737992E-02 9.898584360E-01
 4.032082856E-01 -5.859337375E-02 9.856116164E-01
 4.150626361E-01 -5.802227184E-02 9.789994071E-01
 4.284225106E-01 -5.727861822E-02 9.708693132E-01
 4.411137104E-01 -5.639532208E-02 9.588361821E-01
 4.538912177E-01 -5.537251383E-02 9.401218052E-01
 4.662716091E-01 -5.426292494E-02 9.200125105E-01
 4.786715508E-01 -5.304456875E-02 9.033397217E-01
 4.901621640E-01 -5.182021111E-02 8.865106005E-01
 5.022733808E-01 -5.040329695E-02 8.672679311E-01
 5.159370899E-01 -4.876359552E-02 8.470258335E-01
 5.295733213E-01 -4.699807987E-02 8.301616840E-01
 5.428901315E-01 -4.523481429E-02 8.133137690E-01
 5.566062927E-01 -4.334344715E-02 7.988538358E-01
 5.691244006E-01 -4.155574366E-02 7.827605721E-01
 5.821871161E-01 -3.966591135E-02 7.689824257E-01
 5.943827033E-01 -3.789282590E-02 7.577424677E-01
 6.065816879E-01 -3.611839190E-02 7.473858686E-01
 6.195769906E-01 -3.417996690E-02 7.348526993E-01
 6.337516904E-01 -3.209448606E-02 7.236208034E-01
 6.472976208E-01 -3.009775281E-02 7.137413465E-01
 6.606153846E-01 -2.815329283E-02 7.051435642E-01
 6.739152074E-01 -2.620858885E-02 6.958587894E-01
 6.864204407E-01 -2.438166365E-02 6.861058117E-01
 6.988811493E-01 -2.262027934E-02 6.785126894E-01
 7.135939002E-01 -2.054113336E-02 6.701816423E-01
 7.262985706E-01 -1.874107495E-02 6.599159671E-01
 7.376734614E-01 -1.718293503E-02 6.524674823E-01
 7.499122024E-01 -1.554744784E-02 6.460128429E-01
 7.625282407E-01 -1.388650667E-02 6.392993135E-01
 7.754194736E-01 -1.225680858E-02 6.326989355E-01
 7.873677015E-01 -1.077434979E-02 6.261283243E-01
 7.998957038E-01 -9.270500392E-03 6.187129943E-01
 8.108410239E-01 -7.974471897E-03 6.118221804E-01
 8.225021362E-01 -6.700729486E-03 6.067011305E-01
 8.345531225E-01 -5.401166156E-03 5.998080470E-01
 8.470258713E-01 -4.185524303E-03 5.934177940E-01
 8.589019179E-01 -3.089021426E-03 5.883499737E-01
 8.707102537E-01 -2.094174968E-03 5.831246458E-01
 8.829416633E-01 -1.191865187E-03 5.792320031E-01
 8.960949779E-01 -3.622967051E-04 5.756344804E-01
 9.062466621E-01 1.677343244E-04 5.727802156E-01
 9.161130786E-01 5.980550195E-04 5.715817118E-01
 9.253600240E-01 9.123931522E-04 5.701433817E-01
 9.346901774E-01 1.137288054E-03 5.705506663E-01
 9.468262792E-01 1.320417738E-03 5.698388969E-01
 9.607459307E-01 1.360797090E-03 5.756009954E-01
 9.759272337E-01 1.210787450E-03 5.599593620E-01
 9.891934395E-01 9.027863271E-04 5.789159007E-01
 -5.000000000E-01 -1.000000000E+00 7.120135099E-01
 3.500000000E+00 -1.000000000E+00 7.311606109E-01
 3.500000000E+00 1.000000000E+00 7.292705028E-01
 -5.000000000E-01 1.000000000E+00 7.124614003E-01
 -5.000000000E-01 5.000000000E-01 7.024531981E-01
 -5.000000000E-01 2.752797990E-12 6.914229846E-01
 -5.000000000E-01 -5.000000000E-01 7.009336122E-01
 -9.421907698E-13 -1.000000000E+00 7.246345678E-01
 5.000000000E-01 -1.000000000E+00 7.446472859E-01
 1.000000000E+00 -1.000000000E+00 7.324973803E-01
 1.500000000E+00 -1.000000000E+00 7.226363541E-01
 2.000000000E+00 -1.000000000E+00 7.246847255E-01
 2.500000000E+00 -1.000000000E+00 7.282305938E-01
 3.000000000E+00 -1.000000000E+00 7.299095306E-01
 3.500000000E+00 -5.000000000E-01 7.328436238E-01
 3.500000000E+00 -2.752797990E-12 7.341859779E-01
 3.500000000E+00 5.000000000E-01 7.322656579E-01
 3.000000000E+00 1.000000000E+00 7.282974148E-01
 2.500000000E+00 1.000000000E+00 7.307896041E-01
 2.000000000E+00 1.000000000E+00 7.351419144E-01
 1.500000000E+00 1.000000000E+00 7.464669928E-01
 1.000000000E+00 1.000000000E+00 7.646126019E-01
 5.000000000E-01 1.000000000E+00 7.632292099E-01
 1.733724275E-12 1.000000000E+00 7.291013749E-01
 6.793682184E-01 -3.608581987E-02 6.992184345E-01
 7.837695491E-01 -2.044001137E-02 6.364303347E-01
 9.022554429E-01 -8.010719614E-03 5.820603754E-01
 7.092026591E-01 5.719425435E-02 8.700326637E-01
 2.767252708E-01 6.252777934E-02 8.816964399E-01
 2.777436415E-01 -6.969158805E-02 9.293540759E-01
 9.098603887E-01 3.105011161E-02 7.648022431E-01
 8.101534802E-01 4.301949075E-02 8.207850698E-01
 6.142753024E-01 6.347821516E-02 9.230357459E-01
 5.532933364E-01 -5.644232760E-02 8.101404754E-01
 3.826794854E-01 -6.956414906E-02 9.857403418E-01
 4.238953861E-01 6.935224722E-02 9.356561651E-01
 5.144350535E-01 6.761999973E-02 9.517069209E-01
 1.838906806E+00 -5.991107019E-01 7.278912175E-01
 1.756900174E+00 5.881199480E-01 7.434503625E-01
 3.031178624E+00 2.156825919E-01 7.367106430E-01
 7.653384576E-01 -5.376985796E-01 7.328333869E-01
 4.583160693E-01 -6.970421329E-02 9.344204669E-01
 3.027650931E-01 -6.437685368E-01 7.649883677E-01
 1.134502803E-01 -5.552852288E-02 8.228305642E-01
 1.802149369E-01 -6.148515095E-02 8.664719143E-01
 7.515174045E-01 5.652924833E-01 8.077738903E-01
 2.734840399E+00 -5.326991913E-01 7.328517844E-01
 1.146260744E+00 7.147736173E-01 7.625469343E-01
 9.966853494E-01 3.298779525E-01 7.583996910E-01
 1.239708865E+00 -6.330004121E-01 7.193936992E-01
 1.490066229E+00 -2.755523278E-01 7.245107098E-01
 3.327180818E-01 6.147446049E-01 7.840172727E-01
 9.891950337E-02 4.155328162E-02 8.068276520E-01
 1.644750735E-01 5.392123501E-02 8.367999824E-01
 2.249355664E+00 -5.885879684E-01 7.309682077E-01
 1.982741590E+00 -2.180546795E-01 7.328962870E-01
 2.413253276E+00 -1.876041292E-01 7.354561409E-01
 2.184594816E+00 1.581645835E-01 7.390491566E-01
 1.777431805E+00 1.256542226E-01 7.355339945E-01
 -2.735610680E-01 2.316999700E-01 6.852118366E-01
 -9.936385920E-02 6.203518749E-01 7.259937463E-01
 3.252546911E-02 3.278911052E-01 7.299970417E-01
 4.470723988E-02 3.303885239E-02 7.542246705E-01
 -2.710094628E-01 -2.367522185E-01 6.828554009E-01
 -6.903125021E-02 -6.056633707E-01 7.257451121E-01
 1.099726011E-01 -3.505468270E-01 7.599111064E-01
 2.203022901E+00 5.865841144E-01 7.395670165E-01
 2.740003206E+00 6.014153233E-01 7.359933650E-01
 -2.348051755E-01 -4.814258973E-03 6.658527874E-01
 -1.269534380E-01 1.259862258E-01 6.570766390E-01
 -1.186435508E-01 -1.418442594E-01 6.577822010E-01
 6.286328004E-02 -4.014562503E-02 7.649575011E-01
 -6.761702775E-02 -3.138930637E-01 7.032025522E-01
 -3.017933662E-03 -1.715386692E-01 6.931319478E-01
 3.048008819E-02 -3.034124240E-02 6.848205580E-01
 1.644140910E-01 -2.150973426E-01 8.124401355E-01
 2.294283086E-01 -6.705574638E-02 8.974446964E-01
 -3.648031308E-02 -9.794945418E-02 6.256638207E-01
 -1.088697927E-01 -2.415969623E-02 6.107393825E-01
 -6.972308804E-02 5.481076822E-02 5.981189847E-01
 2.878278940E-02 -1.060814424E-01 7.079680721E-01
 3.109356281E+00 -2.612815587E-01 7.349821125E-01
 -4.340269855E-02 -3.642433461E-02 5.565739709E-01
 -5.032149960E-02 1.110852158E-02 5.495279927E-01
 -2.052169374E-02 5.265604894E-02 6.077847897E-01
 2.333321653E-02 2.225307671E-02 6.976651057E-01
 -3.859741533E-02 1.020423805E-01 6.395416045E-01
 2.619533210E-02 1.026102601E-01 7.117678339E-01
 -2.177389120E-02 1.823682815E-01 6.941225528E-01
 7.468787015E-02 1.940213764E-01 7.580645655E-01
 2.145605181E-01 5.749297607E-02 8.556646187E-01
 1.679644765E-01 2.799522728E-01 7.960056848E-01
 3.497100418E-01 6.527546779E-02 9.094072891E-01
 3.846451294E-01 6.725494420E-02 9.223573894E-01
 3.165227787E-01 6.910430820E-02 8.989829662E-01
 1.911784036E-01 5.513123404E-02 8.460608899E-01
 2.211767137E-01 1.809132294E-01 8.396055223E-01
 2.865709437E-01 2.584790520E-01 8.428880298E-01
 3.030303441E-01 1.643948863E-01 8.769723822E-01
 3.707669208E-01 2.182957882E-01 8.782808749E-01
 3.760848624E-01 1.413139233E-01 9.096864062E-01
 4.403260146E-01 1.795358752E-01 9.103423689E-01
 5.641068310E-01 6.705623622E-02 9.442254584E-01
 5.382708701E-01 6.692450102E-02 9.498400752E-01
 4.786010710E-01 6.606837598E-02 9.483842212E-01
 4.484876157E-01 2.707776870E-01 8.775536667E-01
 5.328612897E-01 2.058698504E-01 9.045837673E-01
 5.442121665E-01 3.423401472E-01 8.652261511E-01
 6.347742357E-01 2.593667406E-01 8.719690870E-01
 6.597962293E-01 5.952326701E-02 8.972978782E-01
 6.194263197E-01 1.587862429E-01 9.039242860E-01
 7.141382750E-01 1.804142145E-01 8.595928420E-01
 7.599290053E-01 4.773189814E-02 8.444879489E-01
 7.396931188E-01 2.675069909E-01 8.367082226E-01
 8.207602311E-01 1.987565826E-01 8.152049445E-01
 8.617918207E-01 3.707944749E-02 7.987752266E-01
 8.360871488E-01 3.787119420E-02 8.106703917E-01
 7.778385016E-01 1.300207302E-01 8.383929302E-01
 8.622220036E-01 1.314035978E-01 7.990294952E-01
 9.594574039E-01 2.034387751E-02 7.046829436E-01
 6.747721700E-01 1.201900012E-01 8.895961680E-01
 5.488360503E-01 1.366571755E-01 9.338835479E-01
 2.472761584E-01 1.213923434E-01 8.699632823E-01
 1.826306195E-01 1.144352747E-01 8.440509825E-01
 1.357030949E-01 4.762142101E-02 8.216688814E-01
 5.916380897E-01 1.111278869E-01 9.329418946E-01
 5.903244265E-01 6.619026292E-02 9.353765582E-01
 9.080023050E-01 1.969599766E-01 7.732495854E-01
 9.547457769E-01 1.231786824E-01 7.457811694E-01
 9.016299684E-01 8.405663801E-02 7.758562016E-01
 8.857822497E-01 3.429531081E-02 7.838473015E-01
 1.002834382E+00 2.078502758E-01 7.410391277E-01
 1.046455559E+00 1.149081187E-01 7.108823840E-01
 1.110315699E+00 2.529601811E-01 7.344091755E-01
 1.204696809E+00 1.345178763E-01 7.193728582E-01
 1.298290074E+00 2.865856129E-01 7.367268688E-01
 1.401571867E+00 8.923515329E-02 7.251671658E-01
 1.266934153E+00 -6.273448394E-02 7.099810846E-01
 1.127458113E+00 2.270332471E-02 6.882749849E-01
 8.181405885E-01 9.470175143E-02 8.223100442E-01
 8.751617255E-02 1.150690196E-01 7.871712378E-01
 3.284388833E-01 1.179915723E-01 9.032572201E-01
 4.298976963E-01 1.167900323E-01 9.339441709E-01
 4.852184103E-01 1.279324216E-01 9.368906626E-01
 1.057217385E+00 4.659248773E-02 6.786495096E-01
 6.814586672E-01 3.827183502E-01 8.381121312E-01
 9.882541793E-01 7.701250422E-02 7.099345873E-01
 1.441427538E-01 4.491313547E-01 7.655277932E-01
 5.206131608E-01 1.061475352E-01 9.483374484E-01
 4.302898627E-01 3.985533414E-01 8.413321138E-01
 4.633928948E-01 9.394103968E-02 9.458900167E-01
 4.496500119E-01 7.155999298E-02 9.430139932E-01
 6.330429291E-02 7.580463182E-02 7.862113412E-01
 7.494067952E-02 3.980636498E-02 7.917089533E-01
 3.648131210E-01 9.760467022E-02 9.188520780E-01
 3.954136822E-01 1.038175225E-01 9.284773700E-01
 1.584236523E+00 3.128976871E-01 7.413176349E-01
 5.529412760E-01 1.009731254E-01 9.458992105E-01
 2.207573921E-03 -6.094868381E-02 6.326719806E-01
 1.088431509E-02 -2.140369758E-02 5.760178140E-01
 2.146363276E-01 9.073266928E-02 8.653975059E-01
 2.377966863E-01 5.971496410E-02 8.660079810E-01
 3.803063619E-02 -6.851746806E-02 7.403754625E-01
 4.591237499E-02 -3.572104940E-02 7.312468903E-01
 7.537766796E-02 -8.725980979E-02 7.899866168E-01
 7.770691486E-02 -4.567948243E-02 7.868399625E-01
 9.255135239E-02 -1.489928598E-01 7.763887479E-01
 1.488732137E-01 -5.956560080E-02 8.478700755E-01
 1.263913542E-01 -1.009671479E-01 8.329683842E-01
 5.617124841E-01 5.150124629E-01 8.296174454E-01
 3.630011937E-01 6.671055331E-02 9.138446864E-01
 1.416663443E+00 5.239995224E-01 7.478544279E-01
 4.905341214E-01 6.709740174E-02 9.498686710E-01
 4.826719692E-01 8.034268694E-02 9.500305992E-01
 5.038929729E-01 8.186288793E-02 9.516759037E-01
 8.537214663E-01 3.344991589E-01 7.979823262E-01
 1.015150110E+00 4.060111877E-02 6.736790214E-01
 9.852073758E-01 1.333471570E-02 6.543903409E-01
 1.052787612E+00 2.292727579E-04 6.500039633E-01
 1.091360516E+00 -4.814780410E-02 6.741479014E-01
 9.718359638E-01 -1.353256596E-02 5.862386337E-01
 4.115894268E-01 6.592210933E-02 9.309729818E-01
 9.106580957E-01 -7.027379263E-03 5.804755491E-01
 9.070401893E-01 -1.932551599E-02 5.934646364E-01
 8.417995856E-01 -1.515707377E-02 6.081024177E-01
 8.656704123E-01 -1.230568116E-02 5.959401591E-01
 9.296669449E-01 -7.363541303E-03 5.801351379E-01
 4.669569333E-01 7.069576631E-02 9.464143472E-01
 4.364706857E-01 8.347217283E-02 9.410294852E-01
 4.122170226E-01 8.379913000E-02 9.346796790E-01
 2.523459772E-01 6.129654157E-02 8.723714256E-01
 2.447012288E-01 8.242473463E-02 8.768970266E-01
 2.723793952E-01 9.691317972E-02 8.874495590E-01
 3.046269654E-01 9.053941121E-02 8.983952735E-01
 2.644910248E-01 7.492565570E-02 8.835112677E-01
 8.767695295E-01 -1.377829715E-02 5.941252225E-01
 3.011546243E-01 6.706138020E-02 8.924425123E-01
 2.646669943E-01 5.956924752E-02 8.758785158E-01
 9.417242056E-01 -1.149559517E-02 5.839479755E-01
 9.562387377E-01 -1.037192132E-02 5.839006116E-01
 8.550171166E-01 -1.566061323E-02 6.024580098E-01
 8.494463178E-01 -2.853738012E-02 6.163048598E-01
 8.170731958E-01 -1.924786293E-02 6.205652993E-01
 8.281283031E-01 -1.543059980E-02 6.127866118E-01
 8.063972725E-01 -1.839734846E-02 6.239515476E-01
 7.961167133E-01 -2.161314255E-02 6.316477522E-01
 7.871243147E-01 -3.659799627E-02 6.474671451E-01
 7.320532601E-01 -2.706913166E-02 6.641448891E-01
 7.587016278E-01 -2.388513480E-02 6.496454772E-01
 7.203912071E-01 -3.089762095E-02 6.735463245E-01
 2.251395535E-01 7.115147669E-02 8.663140743E-01
 7.460449994E-01 -3.082594412E-02 6.608383884E-01
 9.702877685E-02 7.401947260E-02 8.163186960E-01
 1.303073856E-01 9.245825117E-02 8.240111592E-01
 5.669615088E-02 4.943254735E-02 7.857817521E-01
 2.633509613E-02 5.996661664E-02 7.223735091E-01
 2.976742830E-02 4.146475596E-02 7.366455540E-01
 2.569066305E-03 3.783145562E-02 6.376425574E-01
 9.593544893E-03 1.257010158E-02 6.169473541E-01
 -1.291594438E-02 1.515187255E-02 4.642857046E-01
 1.236339218E-02 2.744873332E-02 6.769177775E-01
 1.375188633E-02 1.524669282E-02 6.493817639E-01
 -6.054115751E-04 2.019669237E-02 5.616526361E-01
 6.772891802E-03 1.476428329E-02 6.046092172E-01
 2.361784507E-03 8.605080044E-03 5.472483722E-01
 2.859694655E-01 7.611478410E-02 8.905437088E-01
 3.991524614E-01 6.822463244E-02 9.276191576E-01
 1.416570952E+00 -1.122684644E-01 7.213570198E-01
 2.554699482E+00 2.095907213E-01 7.387493176E-01
 8.910423247E-01 -1.129220588E-02 5.883762664E-01
 3.333376545E-01 8.563158427E-02 9.087345790E-01
 -1.190593240E-01 2.638769394E-01 6.927006850E-01
 2.264683389E-01 5.632832420E-02 8.591229936E-01
 4.857008622E-02 -4.838954042E-02 7.522296307E-01
 3.004973519E-02 -4.694778748E-02 7.002615796E-01
 1.393933473E-02 -3.631793170E-02 6.285365630E-01
 -4.402581971E-03 -2.413503052E-02 4.940879473E-01
 5.683898120E-03 -1.478361538E-02 4.869035464E-01
 6.422105289E-02 -5.821262960E-02 7.832520163E-01
 2.095347403E-02 -2.476048166E-02 6.459240406E-01
 -1.272720292E-02 -5.311750010E-03 3.316684298E-01
 1.867921891E-01 8.425482030E-02 8.547166741E-01
 1.579708687E-01 7.803119944E-02 8.435983942E-01
 1.482998468E-01 5.628965463E-02 8.350605087E-01
 8.939961432E-02 -4.563871955E-02 7.965549687E-01
 9.770906700E-02 -6.964884953E-02 8.224041335E-01
 1.230406964E-01 -7.350077397E-02 8.411627397E-01
 9.828223671E-02 -5.141552994E-02 8.096996310E-01
 8.303934882E-02 -5.937721182E-02 8.051459542E-01
 3.304971475E-01 6.732549286E-02 9.034854515E-01
 9.190200841E-01 -9.497648878E-03 5.823841738E-01
 9.252821720E-01 -2.477990488E-02 5.977867287E-01
 9.087193547E-01 -4.348242558E-02 6.162124832E-01
 9.564590191E-01 -2.868182699E-02 6.046776387E-01
 9.866399862E-01 -3.309693977E-02 6.129879513E-01
 9.731984516E-01 -6.110548353E-02 6.321865326E-01
 8.892382397E-01 -2.891732790E-02 6.053479686E-01
 8.816552278E-01 -5.492595648E-02 6.271429503E-01
 1.038536062E+00 -4.619235843E-02 6.539502066E-01
 1.019782273E+00 -9.963761242E-02 6.640559182E-01
 9.350675153E-01 -5.701848591E-02 6.240824129E-01
 9.497857307E-01 -1.047111975E-01 6.488348106E-01
 9.710230795E-01 -1.578339572E-01 6.662465472E-01
 8.919388232E-01 -1.604365530E-01 6.661358509E-01
 1.052130202E+00 -1.994061039E-01 6.829660506E-01
 9.384092439E-01 -2.446275519E-01 6.791173913E-01
 8.265092796E-01 -2.339841233E-01 6.895810553E-01
 6.140667932E-01 -4.828773219E-02 7.499838351E-01
 7.817333338E-01 -1.524475231E-01 6.909543172E-01
 7.213961367E-01 -2.118235189E-01 7.195480713E-01
 7.297687869E-01 -4.317706123E-02 6.767225117E-01
 6.836097223E-01 -1.336448990E-01 7.306497662E-01
 6.261683653E-01 -1.991287448E-01 7.644687135E-01
 7.099943549E-01 -4.621376651E-02 6.896974748E-01
 7.254409275E-01 -6.284155385E-02 6.909381472E-01
 6.954339753E-01 -7.638819894E-02 7.126932133E-01
 7.510137018E-01 -6.161869066E-02 6.769624910E-01
 6.205809313E-01 -1.266832760E-01 7.676908888E-01
 6.364488180E-01 -2.806965509E-01 7.550116369E-01
 5.318865690E-01 -2.683018028E-01 8.125201351E-01
 1.043207059E+00 -3.305823353E-01 6.937854738E-01
 6.046766273E-01 -3.970254756E-01 7.715582801E-01
 4.050735497E-01 -3.599428985E-01 8.213115829E-01
 3.714705223E-01 -2.289705891E-01 8.829679992E-01
 3.314005492E-01 -6.912362898E-02 9.647952346E-01
 3.037065220E-01 -7.329985523E-02 9.461296187E-01
 3.523958939E-01 -6.964607738E-02 9.754161022E-01
 4.932973084E-01 -1.680272149E-01 8.637684901E-01
 4.246393783E-01 -6.899990972E-02 9.711465440E-01
 5.096889115E-01 -6.218082791E-02 8.628349591E-01
 4.852529068E-01 -6.587204768E-02 8.965665054E-01
 1.220249882E+00 -2.458559566E-01 7.088641136E-01
 2.631260557E-01 -2.862143692E-01 8.327124572E-01
 2.879400036E-01 -1.812991945E-01 8.876734317E-01
 2.176958748E-01 -1.584048526E-01 8.652547721E-01
 3.542815475E-01 -1.538457070E-01 9.298592016E-01
 3.041482407E-01 -1.264533832E-01 9.293446477E-01
 7.387088601E-01 -9.800289833E-02 6.987335860E-01
 8.885078019E-01 -3.626231107E-01 6.991447463E-01
 1.008805931E+00 -5.047860084E-01 7.111435789E-01
 7.812498531E-01 -8.838097724E-02 6.749970400E-01
 3.436571634E-01 -1.119041274E-01 9.565920283E-01
 3.860921959E-01 -1.147255063E-01 9.626465627E-01
 6.536889433E-01 -9.678106191E-02 7.427556262E-01
 6.544838562E-01 -4.194950767E-02 7.181898204E-01
 6.138705346E-01 -8.419409762E-02 7.654776850E-01
 5.905111778E-01 -5.208081812E-02 7.700113034E-01
 5.733304156E-01 -1.008791944E-01 8.015261335E-01
 5.638539692E-01 -1.588917333E-01 8.074020793E-01
 2.551715715E-01 -4.558415378E-01 7.828052256E-01
 5.233840545E-01 -1.170516201E-01 8.495028475E-01
 4.698014840E-01 -1.200496508E-01 9.067591370E-01
 5.417813422E-01 -8.706120437E-02 8.308391774E-01
 6.285600230E-01 -4.795751570E-02 7.386970367E-01
 4.966852999E-01 -9.581202070E-02 8.833973667E-01
 8.298138522E-01 -1.214415249E-01 6.694651601E-01
 8.234390780E-01 -6.715989617E-02 6.508044416E-01
 8.299129772E-01 -3.237782684E-02 6.263186069E-01
 5.223497617E-01 -5.850107825E-02 8.450537097E-01
 5.187907265E-01 -7.691374503E-02 8.565030893E-01
 6.652372116E-01 -6.908365263E-02 7.260135108E-01
 6.389778186E-01 -6.796211133E-02 7.413618240E-01
 6.044731416E-01 -6.219611225E-02 7.652452524E-01
 5.840726931E-01 -6.943022155E-02 7.858932874E-01
 5.384501235E-01 -6.395560659E-02 8.291741491E-01
 6.423995654E-01 -4.626043988E-02 7.277696668E-01
 6.020186789E-01 -4.756871565E-02 7.585869395E-01
 1.013932242E+00 -2.013003035E-02 6.185808453E-01
 8.676616966E-01 -2.922557952E-02 6.113257110E-01
 8.528303627E-01 -4.987560055E-02 6.311433250E-01
 1.633049103E+00 -1.207412292E-01 7.290664158E-01
 3.643367060E-01 -9.463339863E-02 9.739001687E-01
 3.112574260E-01 -9.379296833E-02 9.499330065E-01
 2.818889323E-01 -1.005101214E-01 9.315486000E-01
 2.529182014E-01 -6.787900217E-02 9.128142229E-01
 2.648640109E-01 -6.663641263E-02 9.203648943E-01
 2.638133740E-01 -8.271728623E-02 9.233139537E-01
 2.491356390E-01 -1.111817248E-01 9.059608690E-01
 2.028333509E-01 -1.101060851E-01 8.820272733E-01
 2.050151285E-01 -6.571337532E-02 8.840654608E-01
 2.426236955E-01 -7.997276833E-02 9.110798082E-01
 3.408078997E-01 -8.452758417E-02 9.680614306E-01
 3.672639900E-01 -7.660752154E-02 9.792526819E-01
 2.883144878E-01 -8.158362884E-02 9.380615727E-01
 1.623436765E-01 -1.379332876E-01 8.428959266E-01
 1.652644502E-01 -9.674517882E-02 8.655225787E-01
 1.439189240E-01 -7.790532936E-02 8.552150625E-01
 1.629884025E-01 -6.868320830E-02 8.644166968E-01
 1.897832174E-01 -7.833702318E-02 8.813769565E-01
 3.830427783E-01 -8.686082451E-02 9.810581173E-01
 4.030244978E-01 -8.722439305E-02 9.773247971E-01
 4.277862379E-01 -1.118575447E-01 9.542592326E-01
 4.234802742E-01 -1.605635817E-01 9.160539594E-01
 4.488869678E-01 -9.254508896E-02 9.441195573E-01
 4.403991043E-01 -7.612831555E-02 9.580901686E-01
 4.758860570E-01 -8.355279004E-02 9.104671030E-01
 5.599445275E-01 -7.286913190E-02 8.109472505E-01
 5.687392540E-01 -5.944623692E-02 7.958823511E-01
 9.918398062E-01 -1.313749623E-02 5.916388534E-01
 1.182992100E-01 6.994410001E-02 8.298352895E-01
 1.135310833E-01 5.039219552E-02 8.177498312E-01
 8.709976537E-02 5.365824643E-02 8.117578656E-01
 2.909521472E-01 -6.854640732E-02 9.371782217E-01
 1.318888399E-01 -5.669962027E-02 8.360819585E-01
 1.780402146E-01 6.666909109E-02 8.489047361E-01
 2.019102279E-01 6.860896173E-02 8.574234495E-01
 5.450753015E-01 -6.240869325E-01 7.708230164E-01
 3.550906468E-01 8.008740821E-02 9.150352831E-01
 3.719964847E-01 7.637154608E-02 9.200820137E-01
 2.891591371E-01 6.147477292E-02 8.855270664E-01
 2.868696010E-01 4.027169158E-01 8.158789407E-01
 4.497819243E-01 -2.341062579E-01 8.697909972E-01
 7.075490452E-01 -3.108861390E-02 6.807499504E-01
 6.948846145E-01 -3.517026936E-02 6.897702569E-01
 5.758029975E-01 8.153345291E-02 9.414482841E-01
 6.041949941E-01 8.187710356E-02 9.300360640E-01
 6.282691513E-01 7.333413506E-02 9.185445934E-01
 6.373222864E-01 6.052136498E-02 9.105990904E-01
 6.494221502E-01 7.470359049E-02 9.062663437E-01
 6.699211477E-01 6.901394920E-02 8.940374112E-01
 6.828332417E-01 5.704860613E-02 8.842348850E-01
 6.939436656E-01 7.520413519E-02 8.828132713E-01
 6.347146904E-01 1.019427520E-01 9.146957709E-01
 7.229245862E-01 1.119174356E-01 8.662016855E-01
 7.590052165E-01 9.102629755E-02 8.533611965E-01
 7.889218013E-01 7.382774951E-02 8.379047063E-01
 7.864310142E-01 5.061389459E-02 8.329844499E-01
 7.245306050E-01 7.613636649E-02 8.670536531E-01
 7.342993528E-01 4.825082131E-02 8.552820186E-01
 7.447107776E-01 4.711893779E-02 8.488376041E-01
 7.985871420E-01 4.314550342E-02 8.251260494E-01
 7.729394478E-01 4.569796808E-02 8.389615466E-01
 7.686687499E-01 6.420235830E-02 8.442047169E-01
 7.411661290E-01 6.283748573E-02 8.554521359E-01
 7.251207406E-01 5.426394403E-02 8.619739843E-01
 8.075837120E-01 5.918371248E-02 8.267102100E-01
 8.333136650E-01 6.828169179E-02 8.178828775E-01
 5.510124357E-01 7.913298441E-02 9.482428244E-01
 6.955840678E-01 5.511599755E-02 8.758797793E-01
 8.082279313E-01 -3.550682306E-02 6.377919149E-01
 7.963234091E-01 -5.757644418E-02 6.572052757E-01
 5.283814630E-01 8.164556556E-02 9.514687151E-01
 1.542752502E-02 2.008259774E-02 6.683694137E-01
 3.880396502E-01 8.284540757E-02 9.271783527E-01
 7.707221349E-01 -2.407958286E-02 6.441430269E-01
 7.657323657E-01 -3.961199264E-02 6.583631701E-01
 5.765341261E-01 6.397419003E-02 9.393490289E-01
 6.485334463E-01 5.785442374E-02 9.029387434E-01
 3.202912940E-01 -7.313959658E-02 9.570971779E-01
 8.261590940E-01 5.131819919E-02 8.173126646E-01