TITLE     = "Visualization of the solution"
VARIABLES = "x"
"y"
"Mach"
ZONE T="Zone"
 STRANDID=0, SOLUTIONTIME=0
 Nodes=691, Elements=1167, ZONETYPE=FEQuadrilateral
 DATAPACKING=POINT
 DT=(DOUBLE DOUBLE DOUBLE )
 1.000230670E+00 5.034719943E-04 5.414783626E-01
 9.881865978E-01 2.882411238E-03 6.315423602E-01
 9.747113585E-01 5.415856838E-03 6.440180494E-01
 9.577265978E-01 8.767265826E-03 6.742657719E-01
 9.420698881E-01 1.177688688E-02 6.975551744E-01
 9.269570708E-01 1.471620705E-02 7.121794222E-01
 9.145790935E-01 1.708643511E-02 7.252467711E-01
 9.023513198E-01 1.941009425E-02 7.374920139E-01
 8.900582790E-01 2.176654711E-02 7.541114172E-01
 8.782259822E-01 2.402645350E-02 7.690327541E-01
 8.658226132E-01 2.630373277E-02 7.785608832E-01
 8.531922102E-01 2.853747644E-02 7.867383225E-01
 8.409400582E-01 3.070567921E-02 7.971548072E-01
 8.300382495E-01 3.260583058E-02 8.070660039E-01
 8.183582425E-01 3.457632661E-02 8.165190265E-01
 8.061471581E-01 3.663315624E-02 8.246834179E-01
 7.936716676E-01 3.862141445E-02 8.333424751E-01
 7.815873623E-01 4.058713093E-02 8.428117779E-01
 7.693983316E-01 4.245943576E-02 8.518622264E-01
 7.582182288E-01 4.418863729E-02 8.605759661E-01
 7.453480363E-01 4.609341174E-02 8.691412287E-01
 7.321664691E-01 4.800031334E-02 8.793527012E-01
 7.216497064E-01 4.950572923E-02 8.903680692E-01
 7.108485103E-01 5.099568516E-02 8.979906633E-01
 6.992344856E-01 5.252955481E-02 9.054018018E-01
 6.864171028E-01 5.418955535E-02 9.176910325E-01
 6.739027500E-01 5.577586219E-02 9.318007975E-01
 6.636071205E-01 5.701790750E-02 9.415407733E-01
 6.518927217E-01 5.834420025E-02 9.529045882E-01
 6.401492953E-01 5.966132879E-02 9.681971500E-01
 6.286442280E-01 6.087828055E-02 9.810797765E-01
 6.170129776E-01 6.201244518E-02 9.925000493E-01
 6.064348817E-01 6.301688403E-02 1.004867000E+00
 5.943386555E-01 6.406807899E-02 1.016861314E+00
 5.831313133E-01 6.500820071E-02 1.028250241E+00
 5.702387691E-01 6.598672271E-02 1.037373756E+00
 5.581302047E-01 6.682490557E-02 1.044763799E+00
 5.462630391E-01 6.757422537E-02 1.050098474E+00
 5.354478955E-01 6.819219887E-02 1.051271000E+00
 5.239624381E-01 6.876856834E-02 1.050295225E+00
 5.117683411E-01 6.932023168E-02 1.046720963E+00
 5.005381703E-01 6.972375512E-02 1.042897145E+00
 4.876864851E-01 7.014805079E-02 1.040909508E+00
 4.745637476E-01 7.048463076E-02 1.037564801E+00
 4.612130523E-01 7.074137032E-02 1.031594839E+00
 4.483572841E-01 7.089194655E-02 1.026680336E+00
 4.360637665E-01 7.099097222E-02 1.020003105E+00
 4.235106111E-01 7.097394764E-02 1.012119010E+00
 4.112174213E-01 7.091821730E-02 1.006854908E+00
 3.989263475E-01 7.079464942E-02 1.001991160E+00
 3.867039680E-01 7.059878856E-02 9.960935568E-01
 3.745815158E-01 7.033003122E-02 9.897990982E-01
 3.616527617E-01 6.997649372E-02 9.840646179E-01
 3.489957154E-01 6.955476850E-02 9.785341868E-01
 3.358807266E-01 6.904781610E-02 9.740038090E-01
 3.246843517E-01 6.855068356E-02 9.696533214E-01
 3.120193779E-01 6.793174148E-02 9.629326446E-01
 2.987476289E-01 6.716755778E-02 9.554176369E-01
 2.848515809E-01 6.629874557E-02 9.500828338E-01
 2.726228535E-01 6.545961648E-02 9.453883144E-01
 2.605149746E-01 6.455407292E-02 9.385259138E-01
 2.479240745E-01 6.351128966E-02 9.324033273E-01
 2.353410274E-01 6.240406260E-02 9.259013771E-01
 2.230281979E-01 6.122511998E-02 9.195076733E-01
 2.107495964E-01 5.996541679E-02 9.115744449E-01
 1.986326128E-01 5.863087624E-02 9.038332987E-01
 1.860002577E-01 5.714577436E-02 8.954146952E-01
 1.738554090E-01 5.560310930E-02 8.872428810E-01
 1.621482521E-01 5.402532965E-02 8.796576342E-01
 1.501821131E-01 5.230505019E-02 8.716671783E-01
 1.391838789E-01 5.061296746E-02 8.619510653E-01
 1.273761839E-01 4.866568372E-02 8.518025618E-01
 1.160345301E-01 4.668985307E-02 8.392245346E-01
 1.052811071E-01 4.467289895E-02 8.260132548E-01
 9.512089938E-02 4.264092818E-02 8.150834894E-01
 8.413672447E-02 4.028769955E-02 8.006320566E-01
 7.295025140E-02 3.769921884E-02 7.814955586E-01
 6.307262182E-02 3.520691022E-02 7.657333334E-01
 5.348183215E-02 3.260005265E-02 7.428767191E-01
 4.497370496E-02 3.005871922E-02 7.200149289E-01
 3.759774566E-02 2.766793966E-02 6.851163771E-01
 3.108104691E-02 2.536260337E-02 6.447567038E-01
 2.551871724E-02 2.321508899E-02 6.171894678E-01
 2.148028836E-02 2.151192352E-02 5.972107360E-01
 1.763347164E-02 1.975916140E-02 5.724008839E-01
 1.445498317E-02 1.817989908E-02 5.393491129E-01
 1.156319585E-02 1.661591418E-02 5.124513963E-01
 9.473135695E-03 1.537954155E-02 4.932547815E-01
 7.610665169E-03 1.418339927E-02 4.837954971E-01
 5.910335574E-03 1.298867259E-02 4.468840692E-01
 3.667287994E-03 1.119813975E-02 3.936695653E-01
 1.773877768E-03 9.380737320E-03 3.989927207E-01
 2.456823713E-04 7.534259465E-03 2.659987593E-01
 -1.235052012E-03 4.884930328E-03 6.565325684E-02
 -1.802370418E-03 2.912050812E-03 2.792188583E-02
 -1.926776837E-03 1.304926700E-03 7.797381456E-02
 -1.739011379E-03 -3.874675022E-04 8.377646318E-02
 -1.241709339E-03 -2.064366359E-03 2.149908475E-01
 -2.383792598E-04 -4.096610006E-03 3.101155327E-01
 1.231899951E-03 -6.170107983E-03 3.527168144E-01
 3.237651661E-03 -8.338761516E-03 4.295442953E-01
 5.052103195E-03 -9.956485592E-03 4.902766256E-01
 7.157558110E-03 -1.159291435E-02 5.108692313E-01
 8.866943419E-03 -1.277944911E-02 5.200504534E-01
 1.099977363E-02 -1.413661614E-02 5.437929295E-01
 1.334014814E-02 -1.549131423E-02 5.645788922E-01
 1.662914641E-02 -1.722386293E-02 5.905023856E-01
 1.959086210E-02 -1.864177361E-02 6.108727819E-01
 2.343064360E-02 -2.032423764E-02 6.323525493E-01
 2.870365977E-02 -2.242127620E-02 6.512329854E-01
 3.434963152E-02 -2.443927526E-02 6.726934296E-01
 4.114457220E-02 -2.663580887E-02 6.933156220E-01
 4.883193225E-02 -2.887857333E-02 7.109627767E-01
 5.786063150E-02 -3.127076849E-02 7.292380073E-01
 6.680079550E-02 -3.341801092E-02 7.436805810E-01
 7.686848193E-02 -3.563753515E-02 7.524935089E-01
 8.697066456E-02 -3.768964484E-02 7.622465064E-01
 9.739438444E-02 -3.965357691E-02 7.736254504E-01
 1.086110100E-01 -4.160966724E-02 7.868339101E-01
 1.200189292E-01 -4.346495494E-02 7.969437076E-01
 1.319320053E-01 -4.527089745E-02 8.064951340E-01
 1.428933889E-01 -4.681738466E-02 8.149244540E-01
 1.543492824E-01 -4.834609479E-02 8.241035494E-01
 1.665247381E-01 -4.986089468E-02 8.360108546E-01
 1.781089902E-01 -5.120519921E-02 8.453097089E-01
 1.901793182E-01 -5.251157284E-02 8.536465067E-01
 2.009755969E-01 -5.360658839E-02 8.616884017E-01
 2.123938799E-01 -5.467594415E-02 8.700432296E-01
 2.248373032E-01 -5.575211346E-02 8.779634888E-01
 2.375598401E-01 -5.675397441E-02 8.882389968E-01
 2.497956008E-01 -5.762659386E-02 8.984759140E-01
 2.620102465E-01 -5.839538574E-02 9.076101691E-01
 2.731249928E-01 -5.900337547E-02 9.139361021E-01
 2.856601179E-01 -5.960554630E-02 9.234002200E-01
 2.980110943E-01 -6.008986011E-02 9.324937817E-01
 3.106345832E-01 -6.045778468E-02 9.411682862E-01
 3.224563897E-01 -6.071947515E-02 9.482337024E-01
 3.351750076E-01 -6.086809188E-02 9.537594906E-01
 3.461079299E-01 -6.089886650E-02 9.579309116E-01
 3.577214777E-01 -6.083649397E-02 9.604250682E-01
 3.687441349E-01 -6.067334488E-02 9.637034888E-01
 3.798396289E-01 -6.040512398E-02 9.626726284E-01
 3.915900886E-01 -5.999944359E-02 9.557590210E-01
 4.046451747E-01 -5.941297114E-02 9.469106155E-01
 4.172403812E-01 -5.873873457E-02 9.378377908E-01
 4.299322367E-01 -5.790966749E-02 9.264519729E-01
 4.424590170E-01 -5.698870867E-02 9.131726978E-01
 4.542099535E-01 -5.599005148E-02 8.962809054E-01
 4.658967853E-01 -5.491704121E-02 8.789345375E-01
 4.781850576E-01 -5.371358246E-02 8.631381195E-01
 4.900723696E-01 -5.243778601E-02 8.470806432E-01
 5.026946664E-01 -5.100809410E-02 8.300509692E-01
 5.162107944E-01 -4.938244447E-02 8.138065924E-01
 5.294828415E-01 -4.773113877E-02 7.980164796E-01
 5.425460935E-01 -4.603031650E-02 7.816813402E-01
 5.551829338E-01 -4.434091970E-02 7.665303591E-01
 5.688724518E-01 -4.248489812E-02 7.536272771E-01
 5.819128156E-01 -4.066313803E-02 7.418003777E-01
 5.943412781E-01 -3.891445324E-02 7.303824998E-01
 6.071293354E-01 -3.709619865E-02 7.185628635E-01
 6.215746403E-01 -3.502978012E-02 7.096631572E-01
 6.357383132E-01 -3.299511224E-02 6.994279490E-01
 6.503123045E-01 -3.088345192E-02 6.890047770E-01
 6.630957127E-01 -2.902946621E-02 6.789502778E-01
 6.764802933E-01 -2.711170167E-02 6.706900628E-01
 6.887935996E-01 -2.535566874E-02 6.626802375E-01
 7.012764812E-01 -2.359136194E-02 6.544424642E-01
 7.156003714E-01 -2.157850564E-02 6.455240657E-01
 7.286135554E-01 -1.978112012E-02 6.363737309E-01
 7.405904531E-01 -1.811481267E-02 6.281591570E-01
 7.546666265E-01 -1.626535691E-02 6.213758488E-01
 7.667596340E-01 -1.465250738E-02 6.141773516E-01
 7.801632881E-01 -1.291501615E-02 6.062831463E-01
 7.921006083E-01 -1.143827662E-02 6.007648869E-01
 8.049459457E-01 -9.868638590E-03 5.939832011E-01
 8.157216311E-01 -8.579798974E-03 5.864894926E-01
 8.272281289E-01 -7.262665778E-03 5.795475835E-01
 8.400356174E-01 -5.881972145E-03 5.724762181E-01
 8.525040746E-01 -4.616735503E-03 5.664896653E-01
 8.646914959E-01 -3.474293975E-03 5.613002098E-01
 8.760576248E-01 -2.515097614E-03 5.561355646E-01
 8.872602582E-01 -1.642902149E-03 5.516888791E-01
 9.005606174E-01 -7.833103300E-04 5.488459129E-01
 9.107030034E-01 -2.118992561E-04 5.445755356E-01
 9.214937091E-01 2.824905387E-04 5.403339121E-01
 9.315039515E-01 6.312805926E-04 5.398574241E-01
 9.406727552E-01 8.685842040E-04 5.395299004E-01
 9.526386261E-01 1.056061359E-03 5.395738803E-01
 9.651249647E-01 1.111906720E-03 5.366499178E-01
 9.779711366E-01 1.023871126E-03 5.425458857E-01
 9.891176820E-01 8.210926899E-04 5.312560874E-01
 -5.000000000E-01 -1.000000000E+00 7.095957964E-01
 3.500000000E+00 -1.000000000E+00 7.311490412E-01
 3.500000000E+00 1.000000000E+00 7.276198580E-01
 -5.000000000E-01 1.000000000E+00 7.119018301E-01
 -5.000000000E-01 5.000000000E-01 6.972253312E-01
 -5.000000000E-01 2.752797990E-12 6.824465950E-01
 -5.000000000E-01 -5.000000000E-01 6.957126358E-01
 -9.421907698E-13 -1.000000000E+00 7.231588869E-01
 5.000000000E-01 -1.000000000E+00 7.452363261E-01
 1.000000000E+00 -1.000000000E+00 7.323910696E-01
 1.500000000E+00 -1.000000000E+00 7.200126644E-01
 2.000000000E+00 -1.000000000E+00 7.224748478E-01
 2.500000000E+00 -1.000000000E+00 7.266889351E-01
 3.000000000E+00 -1.000000000E+00 7.288461112E-01
 3.500000000E+00 -5.000000000E-01 7.338778889E-01
 3.500000000E+00 -2.752797990E-12 7.357686354E-01
 3.500000000E+00 5.000000000E-01 7.326423576E-01
 3.000000000E+00 1.000000000E+00 7.247775901E-01
 2.500000000E+00 1.000000000E+00 7.275024745E-01
 2.000000000E+00 1.000000000E+00 7.332863205E-01
 1.500000000E+00 1.000000000E+00 7.484481155E-01
 1.000000000E+00 1.000000000E+00 7.747267659E-01
 5.000000000E-01 1.000000000E+00 7.707183817E-01
 1.733724275E-12 1.000000000E+00 7.281747734E-01
 6.832442636E-01 -3.868153875E-02 6.806078187E-01
 7.873087746E-01 -2.554281821E-02 6.195166500E-01
 9.047258430E-01 -8.490996310E-03 5.571591419E-01
 5.904734742E-01 -5.338784780E-02 7.522477782E-01
 7.057328158E-01 6.557119699E-02 9.032151919E-01
 2.775534065E-01 8.030602242E-02 9.480959592E-01
 3.666252911E-01 8.233831642E-02 9.853597509E-01
 2.924039065E-01 -7.400854953E-02 9.403753222E-01
 9.108391019E-01 3.364812692E-02 7.385850775E-01
 8.018361054E-01 5.102004491E-02 8.312553897E-01
 6.127061874E-01 7.391681293E-02 9.971889813E-01
 4.503377601E-01 -7.132186843E-02 9.123324394E-01
 5.189723095E-01 7.874809588E-02 1.046433890E+00
 1.832851783E+00 -6.048656971E-01 7.269169669E-01
 1.742579744E+00 5.462252348E-01 7.453761898E-01
 3.031173772E+00 2.156848782E-01 7.389363461E-01
 8.110310754E-01 -6.104520242E-01 7.287442363E-01
 2.862209359E-01 -6.994872589E-01 7.599024119E-01
 1.132094289E-01 -5.316357525E-02 8.129340791E-01
 1.789940670E-01 -6.184971951E-02 8.604016363E-01
 3.776189230E-01 -7.204890551E-02 9.669202181E-01
 7.567818002E-01 5.683350569E-01 8.300667346E-01
 3.516471544E-01 6.033781249E-01 8.222452594E-01
 1.206970396E-01 6.362396850E-02 8.527081334E-01
 1.757385957E-01 6.908329459E-02 8.911701068E-01
 4.457827899E-01 8.595400506E-02 1.021854051E+00
 2.734852146E+00 -5.326873800E-01 7.339006989E-01
 1.190472299E+00 6.161410089E-01 7.591355247E-01
 1.033889409E+00 3.931466639E-01 7.624383925E-01
 1.274010386E+00 -6.056789252E-01 7.139621667E-01
 1.511217222E+00 -2.293858436E-01 7.278192513E-01
 2.248356789E+00 -5.895311141E-01 7.310802102E-01
 1.983478693E+00 -2.204615343E-01 7.349089795E-01
 2.413222118E+00 -1.881362241E-01 7.381204939E-01
 2.184634013E+00 1.582584192E-01 7.420606674E-01
 1.802911823E+00 1.352157345E-01 7.396514975E-01
 -2.709283876E-01 -2.371515861E-01 6.746216284E-01
 -6.886612423E-02 -6.056918659E-01 7.220562513E-01
 8.274597793E-02 -3.817416684E-01 7.501465837E-01
 -2.855375750E-01 2.379226394E-01 6.796506106E-01
 -8.141473601E-02 6.195982234E-01 7.227916235E-01
 4.309656897E-02 3.247859835E-01 7.438425976E-01
 4.582985384E-02 4.015403783E-02 7.473778307E-01
 2.191346272E+00 6.008510435E-01 7.401995124E-01
 2.738054856E+00 6.037941218E-01 7.360705360E-01
 -2.461040846E-01 -3.347724361E-03 6.545603961E-01
 -1.200029572E-01 -1.422558740E-01 6.508909702E-01
 6.244667198E-02 -4.155367309E-02 7.505525772E-01
 -7.240740552E-02 -3.068522605E-01 6.986249734E-01
 -3.343588354E-03 -1.711492005E-01 6.976759796E-01
 1.727865097E-01 -2.065616248E-01 8.369884893E-01
 2.401401220E-01 -7.395866711E-02 9.098375518E-01
 2.140246346E-01 -6.800541132E-02 8.875945724E-01
 2.668848572E-01 -7.200661523E-02 9.245792876E-01
 -3.519632211E-02 -9.860618544E-02 6.354898782E-01
 2.905807336E-02 -2.896213860E-02 6.604057920E-01
 -1.023257602E-01 -1.670193439E-02 5.812329907E-01
 2.957966267E-02 -1.071608664E-01 7.223814201E-01
 3.109362847E+00 -2.612711745E-01 7.373325569E-01
 -4.096978507E-02 -4.125886067E-02 5.653477620E-01
 -4.286816993E-04 -5.868858828E-02 6.356186371E-01
 1.103497091E-02 -1.677477226E-02 5.429966991E-01
 4.178533460E-02 -6.829122685E-02 7.515527207E-01
 4.499622601E-02 -3.684399623E-02 7.152173788E-01
 7.508782026E-02 -9.234724610E-02 8.019724525E-01
 1.448242137E-01 -5.912494446E-02 8.386054696E-01
 7.666997590E-02 -4.380954062E-02 7.683139312E-01
 9.300688055E-02 -1.490892498E-01 7.922695005E-01
 1.220975646E-01 -1.042898030E-01 8.441031321E-01
 6.655841066E-02 -5.659510131E-02 7.875052828E-01
 2.552434600E+00 2.123003816E-01 7.414030879E-01
 -1.228419056E-02 -2.007462697E-02 4.383830121E-01
 4.905937616E-03 -1.231721456E-02 4.879463139E-01
 -1.974523611E-02 -1.106995798E-03 3.058612855E-01
 8.768924465E-02 -4.972960447E-02 7.918854957E-01
 1.008897367E-01 -6.904511952E-02 8.247516123E-01
 1.285423633E-01 -7.835641559E-02 8.528725035E-01
 1.598173315E-01 -9.536581416E-02 8.757394042E-01
 1.725788443E-01 -1.378731783E-01 8.671733349E-01
 2.342415778E-01 -1.686916699E-01 8.910576957E-01
 1.992830536E-01 -1.033468946E-01 8.988552675E-01
 2.554639835E-01 -1.218029900E-01 9.267774791E-01
 3.035146287E-01 -1.611435137E-01 9.244394387E-01
 3.404479243E-01 -7.455347466E-02 9.626320614E-01
 2.698233133E-01 -2.311470506E-01 8.728584662E-01
 3.635821320E-01 -2.268669777E-01 8.932022396E-01
 5.231185344E-01 -6.122015533E-02 8.191189376E-01
 4.967967709E-01 -6.399147822E-02 8.512263216E-01
 5.495079394E-01 -5.784042952E-02 7.904685735E-01
 3.735395902E-01 -1.470277467E-01 9.442883668E-01
 4.088887368E-01 -7.054456955E-02 9.512001413E-01
 3.394184972E-01 -3.319902737E-01 8.425893036E-01
 4.582459722E-01 -3.059229944E-01 8.396317057E-01
 4.422089233E-01 -2.002246516E-01 8.895032637E-01
 5.316942750E-01 -2.255961639E-01 8.174698330E-01
 5.290487097E-01 -1.462896706E-01 8.333179900E-01
 6.081915737E-01 -1.621801587E-01 7.768983373E-01
 6.447158355E-01 -4.360674577E-02 7.071816088E-01
 6.468169656E-01 -2.681331517E-01 7.543821574E-01
 6.975328256E-01 -1.810645665E-01 7.306073462E-01
 8.465016574E-01 -1.791401461E-02 5.861726186E-01
 8.239415232E-01 -2.049638543E-02 5.970798010E-01
 8.721038088E-01 -1.686576342E-02 5.763927354E-01
 7.359149730E-01 -2.758644009E-02 6.430137502E-01
 7.525158501E-01 -2.528333150E-01 7.173748850E-01
 8.384972800E-01 -2.111332301E-01 6.910054262E-01
 9.745485656E-01 -1.055338885E-02 5.600368944E-01
 9.465006009E-01 -9.987194476E-03 5.576219627E-01
 8.546517167E-01 -3.118903077E-01 7.013778704E-01
 9.370545992E-01 -1.996556451E-01 6.761912541E-01
 8.987231204E-01 -1.126684377E-01 6.497360260E-01
 1.008724381E+00 -1.287002145E-01 6.656286235E-01
 1.048207702E+00 -2.157608072E-01 6.867978893E-01
 1.096472597E+00 -1.263492773E-01 6.848932029E-01
 1.147886834E+00 -2.205211466E-01 7.042753250E-01
 1.207863177E+00 -1.108905591E-01 6.998265584E-01
 1.151627355E+00 1.338177473E-02 6.840311249E-01
 1.294413570E+00 2.165234815E-02 7.097861195E-01
 8.130042439E-01 -1.082695587E-01 6.715564851E-01
 1.181535348E+00 1.480740428E-01 7.183393049E-01
 1.373499373E+00 1.852215139E-01 7.328997381E-01
 1.035765811E+00 -6.692983783E-02 6.463028193E-01
 9.409242201E-01 -8.239872730E-02 6.345761536E-01
 6.636910480E-01 -1.141408801E-01 7.398974385E-01
 1.095151798E+00 -3.746286751E-01 7.020313573E-01
 4.329809410E-01 -1.295507791E-01 9.312713008E-01
 1.079765113E+00 5.268599550E-03 6.546785813E-01
 1.046004430E+00 1.588969985E-01 7.181377291E-01
 9.720497686E-01 2.309541524E-02 6.754479610E-01
 1.517547862E+00 1.465494569E-02 7.268383835E-01
 6.084233076E-01 -1.031174825E-01 7.714287427E-01
 4.834568880E-01 -1.077978158E-01 8.829931311E-01
 4.739561490E-01 -6.664074546E-02 8.799160444E-01
 7.250592121E-01 -1.165354467E-01 7.081464837E-01
 6.962984738E-01 -7.590544068E-02 7.063942108E-01
 7.093442880E-01 -3.526134646E-02 6.642417454E-01
 3.275340111E-01 -1.213755790E-01 9.597361805E-01
 3.174264828E-01 -7.302642457E-02 9.527510218E-01
 7.400079151E-01 -6.905462626E-02 6.805739248E-01
 7.632252682E-01 -2.716338470E-02 6.320986709E-01
 2.948243462E-01 -1.177442103E-01 9.485481609E-01
 1.304263591E+00 -3.070486680E-01 7.172982754E-01
 1.022336487E+00 -5.922890257E-01 7.113859186E-01
 3.923100531E-01 -1.067094258E-01 9.680907386E-01
 3.605438044E-01 -1.075786663E-01 9.712354164E-01
 5.756376537E-01 -3.458867862E-01 7.859637592E-01
 6.586346222E-01 -7.623107167E-02 7.295651490E-01
 6.255396359E-01 -7.450135303E-02 7.454329727E-01
 6.153786431E-01 -5.156835880E-02 7.341342591E-01
 6.667735938E-01 -5.398920394E-02 7.046047507E-01
 1.239635475E+00 3.397223468E-01 7.417080983E-01
 1.429632857E+00 4.305938406E-01 7.466946337E-01
 7.482784623E-01 -2.865851532E-02 6.394403377E-01
 7.560671782E-01 -4.435908481E-02 6.533223939E-01
 7.747986681E-01 -3.714883151E-02 6.383044595E-01
 7.971033164E-01 -4.051908014E-02 6.345815062E-01
 7.715544430E-01 -6.077706408E-02 6.593466397E-01
 6.592171064E-01 -3.923717758E-02 6.940101166E-01
 1.633652366E-01 -7.021287778E-02 8.603213601E-01
 6.306362379E-01 -5.005330509E-02 7.227373283E-01
 6.047212050E-01 -6.682769731E-02 7.569372299E-01
 5.815018384E-01 -7.307182417E-02 7.780851841E-01
 5.695109651E-01 -1.091703455E-01 8.027700738E-01
 7.244397574E-01 -3.222290929E-02 6.540065169E-01
 7.178244792E-01 -5.074802844E-02 6.761363558E-01
 6.980365716E-01 -5.032351034E-02 6.852571840E-01
 5.650809329E-01 -5.691619861E-02 7.762575880E-01
 5.559957300E-01 -7.797612076E-02 8.023156329E-01
 5.309757138E-01 -9.853908175E-02 8.334687354E-01
 5.088357247E-01 -6.081779302E-02 8.335462460E-01
 5.098796418E-01 -7.746592065E-02 8.474700792E-01
 2.323850735E-01 -9.946151684E-02 9.188250912E-01
 1.993526647E-01 -8.107272662E-02 8.956051484E-01
 4.725065956E-01 -4.564311653E-01 7.965048946E-01
 8.030431111E-01 -2.571033447E-02 6.125905514E-01
 8.175502674E-01 -3.653153650E-02 6.195609730E-01
 8.371198409E-01 -3.003771104E-02 6.049630947E-01
 8.562599751E-01 -3.430735137E-02 6.011478663E-01
 8.806105062E-01 -3.313784422E-02 5.950539907E-01
 8.435321739E-01 -5.472190752E-02 6.274207474E-01
 8.885548002E-01 -2.157480371E-02 5.777052385E-01
 9.004493436E-01 -3.642044587E-02 5.952922860E-01
 9.170513825E-01 -2.475573255E-02 5.791727447E-01
 9.265701879E-01 -1.007262920E-02 5.576056771E-01
 8.802955904E-01 -5.903490713E-02 6.225783211E-01
 9.369260815E-01 -2.537946417E-02 5.782540750E-01
 9.547903584E-01 -2.475754081E-02 5.761344622E-01
 9.165012208E-01 -8.757751096E-03 5.570560635E-01
 8.095301199E-01 -6.690757930E-02 6.508468709E-01
 9.364347154E-01 -8.787884610E-03 5.547986050E-01
 5.368933511E-01 -7.207429043E-02 8.166236031E-01
 4.860032937E-01 -7.727091064E-02 8.750519272E-01
 4.664415502E-01 -7.971916084E-02 8.998876662E-01
 4.476426599E-01 -9.216456724E-02 9.271445004E-01
 4.338097927E-01 -7.497293200E-02 9.333474737E-01
 4.187161218E-01 -8.869034828E-02 9.541119977E-01
 5.363097520E-01 -5.697926611E-02 8.009656730E-01
 7.370887942E-01 -4.210493403E-02 6.584099628E-01
 9.590974487E-01 -9.716190061E-03 5.576070105E-01
 9.725948384E-01 -2.754041849E-02 5.807306974E-01
 9.890623193E-01 -1.966707549E-02 5.722149090E-01
 9.921142794E-01 -4.340474218E-02 6.075629983E-01
 1.014395575E+00 -2.147221432E-02 5.912301768E-01
 1.014646455E-01 -5.033319822E-02 8.025361080E-01
 9.193707639E-01 -5.473041795E-02 6.124022055E-01
 8.491185003E-01 -9.047708785E-02 6.507884559E-01
 8.522863611E-01 -1.459740953E-01 6.722381525E-01
 1.704735945E+00 -1.226559732E-01 7.320208206E-01
 1.261545217E-01 -6.150054619E-02 8.336292327E-01
 4.913468455E-02 -4.988068405E-02 7.509480089E-01
 2.991030179E-02 -4.664526871E-02 6.972735252E-01
 1.444446453E-02 -3.627107390E-02 6.225455669E-01
 1.733774232E-02 -2.309122834E-02 6.041336109E-01
 1.543422212E-03 -2.714873540E-02 5.329920638E-01
 9.088372596E-03 -2.321207190E-02 5.546154297E-01
 5.492763933E-01 -6.672698667E-01 7.589320347E-01
 1.803569348E-01 -8.004201604E-02 8.837183526E-01
 8.941286691E-01 -1.087737980E-02 5.623624519E-01
 1.103960353E+00 -5.186016898E-02 6.628677009E-01
 7.745797902E-01 -2.367749490E-02 6.223522027E-01
 7.773204229E-01 -1.536406125E-01 6.960308590E-01
 8.130404957E-01 -2.023733880E-02 6.022486105E-01
 1.465671225E+00 6.482400211E-01 7.510075105E-01
 6.961390408E-01 -3.464268525E-02 6.696953318E-01
 8.349653536E-01 -1.631854980E-02 5.880263159E-01
 6.697621940E-01 -3.760981763E-02 6.861639988E-01
 1.367061084E+00 -1.222035554E-01 7.172291639E-01
 6.431099644E-01 -6.111738636E-02 7.265302877E-01
 9.622667343E-01 5.557383988E-01 7.883607315E-01
 7.241206078E-01 3.643551227E-01 8.576762601E-01
 8.630601543E-01 4.081174808E-01 8.060052069E-01
 8.807396387E-01 2.073482723E-01 7.873950821E-01
 7.525535595E-01 5.384408408E-02 8.664702837E-01
 7.781883923E-01 5.354458280E-02 8.485853586E-01
 8.489282419E-01 4.382052356E-02 7.956198582E-01
 8.784161992E-01 3.513176023E-02 7.706896271E-01
 5.777524975E-01 4.452602931E-01 8.735659932E-01
 5.525509740E-01 2.653028866E-01 9.411140751E-01
 5.649029963E-01 7.678555145E-02 1.038022777E+00
 5.519603441E-01 6.783276387E-01 8.296009187E-01
 2.986288867E-01 3.694457522E-01 8.547368226E-01
 1.568227637E-01 4.921051148E-01 7.778027957E-01
 4.523374060E-01 3.564229416E-01 8.986146188E-01
 4.158062640E-01 2.282268127E-01 9.461786550E-01
 2.791954934E-01 2.317568407E-01 8.942533316E-01
 2.277698082E-01 7.501782689E-02 9.234675725E-01
 2.014682595E-01 7.243264093E-02 9.083648441E-01
 5.047722164E-01 1.880737487E-01 9.912697075E-01
 4.820735369E-01 8.624223311E-02 1.035903254E+00
 9.873640510E-01 2.457251903E-01 7.490385242E-01
 1.097685743E+00 2.571130485E-01 7.316899350E-01
 9.477779024E-01 1.494955226E-01 7.473974681E-01
 8.658791668E-01 1.232028080E-01 7.938055569E-01
 8.017174266E-01 1.730346247E-01 8.314906066E-01
 8.032571686E-01 1.099405176E-01 8.361523406E-01
 7.519970221E-01 1.365791683E-01 8.669070606E-01
 6.576123824E-01 6.653692283E-02 9.475464616E-01
 6.829409881E-01 6.861502950E-02 9.246997736E-01
 9.203561021E-01 8.823846464E-02 7.501074549E-01
 9.865552716E-01 8.609829928E-02 7.056450793E-01
 8.443589613E-01 8.546365222E-02 8.084212883E-01
 8.261002097E-01 4.755384351E-02 8.145345466E-01
 7.610309267E-01 9.172550053E-02 8.647106778E-01
 7.197436670E-01 1.022762354E-01 8.944148495E-01
 7.001161331E-01 1.458561196E-01 9.015605119E-01
 7.293001005E-01 5.705743502E-02 8.851270264E-01
 7.292725279E-01 2.218614648E-01 8.704923265E-01
 6.775549964E-01 1.069344521E-01 9.280106490E-01
 6.519422177E-01 1.461867214E-01 9.418614758E-01
 6.361814974E-01 1.109334921E-01 9.670771524E-01
 6.077756035E-01 1.399834803E-01 9.862417720E-01
 6.367316767E-01 7.183775036E-02 9.717239567E-01
 6.172008975E-01 1.984911336E-01 9.509954561E-01
 6.028189920E-01 1.064271031E-01 1.002143661E+00
 5.674120040E-01 1.196456503E-01 1.022446026E+00
 5.895197261E-01 7.575281694E-02 1.020785250E+00
 5.636501058E-01 1.718233397E-01 9.947745944E-01
 5.188140696E-01 1.288708873E-01 1.025365610E+00
 4.711912846E-01 1.434071725E-01 1.010512899E+00
 4.061977500E-01 8.060846976E-02 1.004805021E+00
 5.423847311E-01 1.023752383E-01 1.039014590E+00
 5.416289980E-01 8.275847745E-02 1.045495889E+00
 9.510037559E-01 5.379110329E-02 7.167963119E-01
 9.371375331E-01 2.991824324E-02 7.148173654E-01
 7.408188416E-01 5.725108529E-02 8.752226637E-01
 7.343722226E-01 7.303793334E-02 8.839741135E-01
 4.847088067E-01 1.138213446E-01 1.028517155E+00
 4.535715618E-01 1.118018766E-01 1.017914363E+00
 4.288983011E-01 1.360017861E-01 9.991178528E-01
 5.013760208E-01 9.689416319E-02 1.037554446E+00
 4.629897355E-01 9.168804573E-02 1.029115128E+00
 4.276960777E-01 1.047534753E-01 1.009982062E+00
 3.961104388E-01 1.156288557E-01 9.927095319E-01
 3.310109925E-01 7.785234127E-02 9.722741809E-01
 3.036147220E-01 8.029348596E-02 9.583750895E-01
 3.958363066E-01 1.634941688E-01 9.732981738E-01
 3.518939717E-01 1.348140502E-01 9.677582607E-01
 3.478331043E-01 1.968664985E-01 9.393630451E-01
 2.949653543E-01 1.567018071E-01 9.329900976E-01
 2.191070491E-01 1.774961823E-01 8.831890955E-01
 1.898511217E-01 2.876239152E-01 8.260833155E-01
 1.238211448E-01 1.966030651E-01 8.069269854E-01
 -2.861033166E-02 1.874287814E-01 6.838998895E-01
 7.461297475E-03 2.374937800E-02 5.272641702E-01
 5.349836134E-02 1.481550002E-01 7.537162171E-01
 9.334823401E-02 5.422519972E-02 8.248849166E-01
 2.471718387E-01 1.277069291E-01 9.229939617E-01
 2.522117078E-01 7.911638747E-02 9.357099337E-01
 1.748420612E-01 1.342062342E-01 8.728544899E-01
 2.876220264E-01 1.151827876E-01 9.479117809E-01
 3.207313054E-01 1.168280176E-01 9.619271665E-01
 2.113667167E-01 1.119887101E-01 9.084205007E-01
 -1.529388121E-01 1.212196173E-01 6.445362054E-01
 3.420391657E-01 7.962495423E-02 9.764732646E-01
 7.905622439E-01 8.135854315E-02 8.454454125E-01
 8.139289566E-01 6.790111086E-02 8.268927941E-01
 9.571729794E-01 2.962140647E-02 6.936709140E-01
 9.254015225E-01 4.835837220E-02 7.352521263E-01
 9.019800876E-01 5.648164564E-02 7.574584442E-01
 8.788751009E-01 7.907617363E-02 7.817305666E-01
 3.587602309E-01 2.765437692E-01 9.103035435E-01
 1.190054543E-01 1.297161806E-01 8.253054918E-01
 1.476242446E-01 1.009358737E-01 8.666409349E-01
 1.411103302E-01 6.266904354E-02 8.678714297E-01
 8.150373429E-02 1.004043205E-01 7.900666697E-01
 3.077475357E-02 8.145018562E-02 7.238314497E-01
 2.761910473E-02 3.110963275E-02 6.675518967E-01
 1.178857642E-01 9.201350281E-02 8.404727878E-01
 -6.490745240E-02 9.462389610E-02 6.034151739E-01
 1.585355752E-01 7.856931743E-02 8.800573562E-01
 3.196189297E-01 8.076973075E-02 9.666203176E-01
 8.132741345E-01 4.753689643E-02 8.230066140E-01
 5.534145751E-01 7.703750588E-02 1.044587700E+00
 5.590427368E-01 9.172955721E-02 1.039382868E+00
 5.792453299E-01 9.068947457E-02 1.026109719E+00
 5.298938227E-01 7.823777754E-02 1.047782465E+00
 6.483445865E-01 6.780673603E-02 9.585246569E-01
 6.553368563E-01 8.265347794E-02 9.523844720E-01
 6.248265123E-01 8.742457301E-02 9.833198829E-01
 1.557150289E-01 6.255858493E-02 8.778995895E-01
 1.843444263E-01 9.032615040E-02 8.956405101E-01
 3.933216073E-01 8.762868016E-02 9.977827809E-01
 1.655986585E-01 6.432685764E-02 8.837761579E-01
 3.790503649E-01 8.145444049E-02 9.909384493E-01
 3.691327084E-01 1.015584118E-01 9.863515409E-01
 3.523913096E-01 9.294064658E-02 9.801568679E-01
 4.182129614E-01 8.457134662E-02 1.009398382E+00
 4.302532413E-01 8.344874937E-02 1.014836240E+00
 6.387628884E-02 7.242017471E-02 7.825540404E-01
 6.587935364E-02 4.490303164E-02 7.862619536E-01
 6.960362570E-01 8.163829169E-02 9.135497518E-01
 7.146193018E-01 7.636981092E-02 8.985805032E-01
 6.762738817E-01 8.337834436E-02 9.310482189E-01
 3.323652838E-01 9.390350593E-02 9.717282407E-01
 1.064616262E+00 7.103695230E-02 6.903251121E-01
 1.016762098E+00 4.703454721E-02 6.709821150E-01
 1.036925134E+00 1.366892430E-02 6.349785181E-01
 9.793086487E-01 4.449918957E-02 6.830319682E-01
 9.923080194E-01 2.735436592E-02 6.483759978E-01
 2.653629200E-01 9.547128144E-02 9.409052966E-01
 2.896417367E-01 9.197065950E-02 9.523592434E-01
 2.369735478E-01 9.276106649E-02 9.274977830E-01
 6.940170381E-01 6.426385656E-02 9.124757644E-01
 6.470287681E-01 2.788289543E-01 9.051438656E-01
 2.908818150E-01 7.720729425E-02 9.526410943E-01
 8.961925028E-01 3.707049466E-02 7.558158859E-01
 2.141552967E-01 8.673406469E-02 9.161359089E-01
 3.543408487E-01 7.888703589E-02 9.809511082E-01
 8.590157995E-01 6.030104653E-02 7.927409878E-01
 4.090436374E-01 9.572178969E-02 1.004523899E+00
 6.025542215E-01 8.626342088E-02 1.007863135E+00
 8.642761190E-01 4.173560264E-02 7.833503301E-01
 8.396701906E-01 5.858115458E-02 8.079100811E-01
 8.797926348E-01 5.163278722E-02 7.743420393E-01
 5.774076269E-01 7.484455328E-02 1.030931251E+00
 3.089323340E-01 9.649136454E-02 9.611276364E-01
 6.011107344E-01 7.260360275E-02 1.009666335E+00
 4.443897637E-02 6.331160565E-02 7.612859840E-01
 5.225816409E-01 9.296728990E-02 1.041680941E+00
 8.012209889E-02 -2.532394670E-01 7.605507904E-01
 8.584122024E-01 -1.543563178E-02 5.790364837E-01
 3.355430387E-01 -9.545274745E-02 9.671191831E-01
 3.547418054E-01 -8.513651215E-02 9.698529543E-01
 3.752218903E-01 -8.915284179E-02 9.726553694E-01
 3.911507025E-01 -7.871246800E-02 9.632446371E-01
 3.097068297E-01 -9.044332583E-02 9.561645085E-01