TITLE     = "Visualization of the solution"
VARIABLES = "x"
"y"
"Mach"
ZONE T="Zone"
 STRANDID=0, SOLUTIONTIME=0
 Nodes=706, Elements=1197, ZONETYPE=FEQuadrilateral
 DATAPACKING=POINT
 DT=(DOUBLE DOUBLE DOUBLE )
 9.996356368E-01 5.155969993E-04 5.803337035E-01
 9.893082380E-01 2.539345296E-03 6.445619172E-01
 9.780883789E-01 4.873023834E-03 6.561791634E-01
 9.622674584E-01 7.969485596E-03 6.685372058E-01
 9.474275708E-01 1.091573667E-02 6.952764397E-01
 9.320059419E-01 1.398528460E-02 7.173391412E-01
 9.205381870E-01 1.625896245E-02 7.365557409E-01
 9.085911512E-01 1.856345683E-02 7.495764791E-01
 8.968401551E-01 2.077344805E-02 7.641068502E-01
 8.853584528E-01 2.296572365E-02 7.791640247E-01
 8.729794025E-01 2.516084351E-02 7.899388413E-01
 8.605229855E-01 2.733588032E-02 8.005074195E-01
 8.477806449E-01 2.950607240E-02 8.108470990E-01
 8.370791674E-01 3.124980815E-02 8.180439845E-01
 8.251901865E-01 3.314694390E-02 8.248281567E-01
 8.121166229E-01 3.518553078E-02 8.313307313E-01
 7.993243337E-01 3.710338846E-02 8.396385537E-01
 7.866963148E-01 3.901199251E-02 8.499423007E-01
 7.741385102E-01 4.081124812E-02 8.587264560E-01
 7.620296478E-01 4.251984134E-02 8.662422584E-01
 7.484024167E-01 4.436105490E-02 8.745659366E-01
 7.342840433E-01 4.623737559E-02 8.833095691E-01
 7.237325311E-01 4.759288207E-02 8.916239073E-01
 7.127210498E-01 4.897632822E-02 9.000929394E-01
 7.011954188E-01 5.038494244E-02 9.093381708E-01
 6.873776913E-01 5.201106891E-02 9.190585122E-01
 6.743344069E-01 5.346811563E-02 9.285186958E-01
 6.649727225E-01 5.448843539E-02 9.382789810E-01
 6.536836624E-01 5.566965416E-02 9.452193895E-01
 6.416673660E-01 5.684697255E-02 9.531247397E-01
 6.297954321E-01 5.797893927E-02 9.648852137E-01
 6.185904145E-01 5.901014805E-02 9.744485973E-01
 6.075706482E-01 5.993010849E-02 9.806983461E-01
 5.945273042E-01 6.096709147E-02 9.885252665E-01
 5.833083391E-01 6.181258708E-02 9.960180431E-01
 5.698406100E-01 6.273312122E-02 1.000312944E+00
 5.577628016E-01 6.346707046E-02 1.003842849E+00
 5.462104678E-01 6.412354857E-02 1.006430386E+00
 5.357422233E-01 6.465272605E-02 1.005274856E+00
 5.245452523E-01 6.514236331E-02 1.004150419E+00
 5.124530792E-01 6.563808769E-02 1.005132231E+00
 5.012388229E-01 6.603175402E-02 1.002862579E+00
 4.880949259E-01 6.639636308E-02 9.987741558E-01
 4.745284021E-01 6.670006365E-02 9.956561436E-01
 4.607257247E-01 6.692663580E-02 9.927414949E-01
 4.474663138E-01 6.706237048E-02 9.893411250E-01
 4.346210361E-01 6.711737067E-02 9.854484440E-01
 4.220617414E-01 6.710653752E-02 9.801532795E-01
 4.097280204E-01 6.700937450E-02 9.740196434E-01
 3.980754912E-01 6.687184423E-02 9.689372517E-01
 3.856186271E-01 6.665525585E-02 9.644378147E-01
 3.743339181E-01 6.640744954E-02 9.601592045E-01
 3.614189923E-01 6.606780738E-02 9.545817831E-01
 3.486791551E-01 6.563871354E-02 9.500685033E-01
 3.357101977E-01 6.516165286E-02 9.474140413E-01
 3.242551088E-01 6.467492133E-02 9.423642017E-01
 3.112539947E-01 6.402818114E-02 9.358693180E-01
 2.978009582E-01 6.329845637E-02 9.312924547E-01
 2.837429941E-01 6.245527789E-02 9.267443796E-01
 2.707888186E-01 6.158531457E-02 9.223360285E-01
 2.587336004E-01 6.072274968E-02 9.173617770E-01
 2.460857481E-01 5.972108245E-02 9.108203679E-01
 2.334728837E-01 5.865036324E-02 9.046317890E-01
 2.208078206E-01 5.750292540E-02 8.993976807E-01
 2.091962993E-01 5.636010319E-02 8.935369956E-01
 1.973269135E-01 5.511968955E-02 8.870462624E-01
 1.847932637E-01 5.371061713E-02 8.810066329E-01
 1.729094982E-01 5.228203908E-02 8.757300267E-01
 1.618898809E-01 5.087677762E-02 8.695099325E-01
 1.497395486E-01 4.922473431E-02 8.631420678E-01
 1.390159577E-01 4.767630249E-02 8.543941870E-01
 1.271598190E-01 4.585110396E-02 8.456118503E-01
 1.158228964E-01 4.398332164E-02 8.369480275E-01
 1.051842049E-01 4.210942611E-02 8.296087749E-01
 9.496318549E-02 4.019541293E-02 8.203985423E-01
 8.364148438E-02 3.790875897E-02 8.078622098E-01
 7.159367204E-02 3.526505828E-02 7.955547047E-01
 6.177600846E-02 3.292402625E-02 7.816771488E-01
 5.160220340E-02 3.026690334E-02 7.677527241E-01
 4.328341410E-02 2.787733637E-02 7.545234973E-01
 3.633181751E-02 2.570266463E-02 7.384324312E-01
 3.011375666E-02 2.357037365E-02 7.221693289E-01
 2.469550073E-02 2.153279632E-02 7.156290437E-01
 2.083587088E-02 1.995912194E-02 7.062107438E-01
 1.709554717E-02 1.828643493E-02 6.902964658E-01
 1.413396280E-02 1.685385779E-02 6.783095622E-01
 1.139395032E-02 1.539215632E-02 6.562258941E-01
 9.372508153E-03 1.422224287E-02 6.396114608E-01
 7.676585112E-03 1.315142028E-02 6.092681584E-01
 6.127324887E-03 1.208331250E-02 5.969124428E-01
 4.064234439E-03 1.048471592E-02 4.483722905E-01
 2.204460790E-03 8.762726560E-03 3.072112930E-01
 6.956105935E-04 7.000732236E-03 2.484490794E-01
 -7.522203377E-04 4.465164151E-03 1.552857600E-01
 -1.246592612E-03 2.599218162E-03 5.704488114E-02
 -1.281687990E-03 1.172789838E-03 1.549968626E-01
 -1.017101575E-03 -2.346350957E-04 3.902818938E-01
 -4.923021770E-04 -1.535237301E-03 4.333437491E-01
 5.059430841E-04 -3.086051904E-03 5.947520353E-01
 1.903757802E-03 -4.613454454E-03 6.645859643E-01
 3.799128812E-03 -6.180895958E-03 7.028318463E-01
 5.530526862E-03 -7.346388884E-03 7.214068944E-01
 7.468308322E-03 -8.460741490E-03 7.301915466E-01
 9.050319903E-03 -9.272872470E-03 7.377708072E-01
 1.116316672E-02 -1.024422050E-02 7.371009763E-01
 1.351923868E-02 -1.122102141E-02 7.390895544E-01
 1.687081531E-02 -1.246064808E-02 7.417969579E-01
 1.978834532E-02 -1.343336329E-02 7.424104540E-01
 2.357204445E-02 -1.457620040E-02 7.465878698E-01
 2.899191156E-02 -1.604177430E-02 7.544391387E-01
 3.481020033E-02 -1.745373011E-02 7.598487641E-01
 4.218868166E-02 -1.905850135E-02 7.618535541E-01
 4.988935962E-02 -2.056938969E-02 7.614962320E-01
 5.936226249E-02 -2.225354314E-02 7.630530720E-01
 6.830817461E-02 -2.372047864E-02 7.664669904E-01
 7.861533761E-02 -2.527836710E-02 7.699635149E-01
 8.892253786E-02 -2.672726102E-02 7.741985851E-01
 9.890785068E-02 -2.804183587E-02 7.769502338E-01
 1.100867316E-01 -2.943154797E-02 7.801511739E-01
 1.213981733E-01 -3.075050190E-02 7.838130641E-01
 1.333644390E-01 -3.207409009E-02 7.898814822E-01
 1.443681866E-01 -3.321881592E-02 7.953300198E-01
 1.556825787E-01 -3.433802351E-02 7.993300476E-01
 1.681615859E-01 -3.550739959E-02 8.047694289E-01
 1.801244766E-01 -3.655917197E-02 8.099269265E-01
 1.921570748E-01 -3.755856678E-02 8.163950826E-01
 2.031558603E-01 -3.841580823E-02 8.209965530E-01
 2.145059705E-01 -3.924507275E-02 8.261174878E-01
 2.268571109E-01 -4.008632898E-02 8.308366885E-01
 2.402878404E-01 -4.093503207E-02 8.381785497E-01
 2.530617118E-01 -4.166380316E-02 8.452993630E-01
 2.654724419E-01 -4.228979349E-02 8.517141947E-01
 2.767312825E-01 -4.280678555E-02 8.577981385E-01
 2.893790901E-01 -4.330491275E-02 8.643023706E-01
 3.020925820E-01 -4.371654987E-02 8.695159581E-01
 3.147609234E-01 -4.404166713E-02 8.751596225E-01
 3.265586495E-01 -4.425659776E-02 8.797861908E-01
 3.387348950E-01 -4.437595978E-02 8.831800329E-01
 3.496667743E-01 -4.441168532E-02 8.857278716E-01
 3.606411219E-01 -4.436204210E-02 8.877880067E-01
 3.711307049E-01 -4.424591735E-02 8.890810345E-01
 3.814738691E-01 -4.404946417E-02 8.890671675E-01
 3.924671113E-01 -4.373982176E-02 8.862180610E-01
 4.052370489E-01 -4.326180369E-02 8.801739300E-01
 4.173987210E-01 -4.270541295E-02 8.734755336E-01
 4.295495152E-01 -4.203991592E-02 8.662986515E-01
 4.415102303E-01 -4.126735032E-02 8.572463824E-01
 4.525843561E-01 -4.045642912E-02 8.454155117E-01
 4.637339115E-01 -3.956936300E-02 8.335176915E-01
 4.758048952E-01 -3.852999955E-02 8.228914288E-01
 4.864109755E-01 -3.754259646E-02 8.104610709E-01
 4.989426434E-01 -3.628027439E-02 7.957905541E-01
 5.125547647E-01 -3.487417847E-02 7.821969252E-01
 5.256935954E-01 -3.342252970E-02 7.687095308E-01
 5.394901037E-01 -3.187115118E-02 7.559340633E-01
 5.517032146E-01 -3.045691550E-02 7.442352569E-01
 5.647192597E-01 -2.892476320E-02 7.326068373E-01
 5.771780610E-01 -2.740321308E-02 7.210298607E-01
 5.885734558E-01 -2.605924383E-02 7.122207893E-01
 6.008414626E-01 -2.457910776E-02 7.044074168E-01
 6.158578396E-01 -2.276975289E-02 6.939389559E-01
 6.303305030E-01 -2.099065669E-02 6.835954214E-01
 6.463066339E-01 -1.910130680E-02 6.743111359E-01
 6.593195796E-01 -1.755983569E-02 6.666892590E-01
 6.727411747E-01 -1.598783210E-02 6.589169949E-01
 6.848625541E-01 -1.457660086E-02 6.510641460E-01
 6.972553730E-01 -1.316383854E-02 6.438267501E-01
 7.115148306E-01 -1.159599423E-02 6.375800034E-01
 7.246206403E-01 -1.016401034E-02 6.303260443E-01
 7.372058630E-01 -8.853158914E-03 6.230435097E-01
 7.500502467E-01 -7.490422111E-03 6.169581265E-01
 7.620171309E-01 -6.330440287E-03 6.120510520E-01
 7.748796940E-01 -5.092901643E-03 6.064720255E-01
 7.860413790E-01 -4.035679623E-03 5.995768887E-01
 7.987719178E-01 -2.928648842E-03 5.941545656E-01
 8.097339869E-01 -2.000853885E-03 5.893425042E-01
 8.217067122E-01 -1.070474507E-03 5.833157953E-01
 8.350677490E-01 -1.130294841E-04 5.777972119E-01
 8.476399183E-01 6.933389232E-04 5.732842412E-01
 8.596997857E-01 1.385915210E-03 5.688924367E-01
 8.724090457E-01 1.986871008E-03 5.660769785E-01
 8.849521875E-01 2.461251570E-03 5.639848082E-01
 8.986021280E-01 2.825180069E-03 5.619241524E-01
 9.091847539E-01 2.991573419E-03 5.609339701E-01
 9.197314382E-01 3.058777191E-03 5.613014317E-01
 9.289253354E-01 3.037038492E-03 5.617467200E-01
 9.369576573E-01 2.958825789E-03 5.630574947E-01
 9.485716224E-01 2.753453329E-03 5.648961113E-01
 9.602823853E-01 2.428277396E-03 5.674763185E-01
 9.750285745E-01 1.869310974E-03 5.707976599E-01
 9.874913096E-01 1.255154726E-03 5.795895053E-01
 -5.000000000E-01 -1.000000000E+00 7.130798387E-01
 3.500000000E+00 -1.000000000E+00 7.307157999E-01
 3.500000000E+00 1.000000000E+00 7.276149814E-01
 -5.000000000E-01 1.000000000E+00 7.127382109E-01
 -5.000000000E-01 5.000000000E-01 7.018091237E-01
 -5.000000000E-01 2.752797990E-12 6.916423600E-01
 -5.000000000E-01 -5.000000000E-01 7.008333326E-01
 -9.421907698E-13 -1.000000000E+00 7.205759798E-01
 5.000000000E-01 -1.000000000E+00 7.309748572E-01
 1.000000000E+00 -1.000000000E+00 7.203993599E-01
 1.500000000E+00 -1.000000000E+00 7.144891940E-01
 2.000000000E+00 -1.000000000E+00 7.197597412E-01
 2.500000000E+00 -1.000000000E+00 7.252128253E-01
 3.000000000E+00 -1.000000000E+00 7.281289285E-01
 3.500000000E+00 -5.000000000E-01 7.330677314E-01
 3.500000000E+00 -2.752797990E-12 7.345060003E-01
 3.500000000E+00 5.000000000E-01 7.318192764E-01
 3.000000000E+00 1.000000000E+00 7.257193833E-01
 2.500000000E+00 1.000000000E+00 7.288393496E-01
 2.000000000E+00 1.000000000E+00 7.346886910E-01
 1.500000000E+00 1.000000000E+00 7.491948954E-01
 1.000000000E+00 1.000000000E+00 7.767679693E-01
 5.000000000E-01 1.000000000E+00 7.713713623E-01
 1.733724275E-12 1.000000000E+00 7.305467403E-01
 6.915691926E-01 -2.597433025E-02 6.599125264E-01
 7.938077319E-01 -1.567521711E-02 6.102681102E-01
 9.031264977E-01 -5.193119176E-03 5.719918476E-01
 5.976964517E-01 -3.763526899E-02 7.195109988E-01
 5.076294103E-01 -5.175839619E-02 8.004094405E-01
 2.696784119E-01 -5.175233546E-02 8.615161334E-01
 7.091549192E-01 6.080611086E-02 9.044728794E-01
 2.778052819E-01 7.478993947E-02 9.224248909E-01
 3.689564857E-01 7.808793724E-02 9.558657012E-01
 9.060971469E-01 3.157446951E-02 7.559886210E-01
 8.084352107E-01 5.275173098E-02 8.355446814E-01
 3.653146557E-01 -5.521882306E-02 8.923960720E-01
 6.136788211E-01 7.251110896E-02 9.751395027E-01
 5.178500104E-01 7.717163160E-02 1.002215921E+00
 1.838708104E+00 -5.972789724E-01 7.251239252E-01
 1.738384582E+00 6.417839685E-01 7.456171917E-01
 3.031179141E+00 2.156822279E-01 7.370911463E-01
 7.500000000E-01 -5.669872981E-01 7.220489003E-01
 7.597278550E-01 5.677531086E-01 8.277950421E-01
 2.633235437E-01 6.928302231E-01 7.786046911E-01
 1.176361982E-01 5.986137819E-02 8.286137010E-01
 1.776586662E-01 6.291804152E-02 8.741494858E-01
 4.423970639E-01 8.001485438E-02 9.846740556E-01
 2.734840045E+00 -5.326997640E-01 7.321920731E-01
 1.187035626E+00 6.257986261E-01 7.632946616E-01
 9.868197002E-01 3.442635893E-01 7.698788855E-01
 1.259915629E+00 -6.349267801E-01 7.108577112E-01
 1.504721478E+00 -2.679030287E-01 7.250679513E-01
 2.500000000E-01 -5.669872981E-01 7.523749181E-01
 7.121588962E-02 -3.454212600E-02 7.754159373E-01
 1.264832718E-01 -4.133899627E-02 8.001635935E-01
 1.852238808E-01 -4.718835698E-02 8.249856579E-01
 2.249322246E+00 -5.882828701E-01 7.292852734E-01
 1.991362058E+00 -2.110283653E-01 7.324739098E-01
 2.414684744E+00 -1.863835080E-01 7.355799618E-01
 2.184595539E+00 1.581611841E-01 7.392107384E-01
 1.815363139E+00 1.321639047E-01 7.362594585E-01
 -2.134650922E-01 -2.665092804E-01 6.871422668E-01
 -1.552237868E-01 -6.175279414E-01 7.144003281E-01
 -2.659130999E-01 2.140180125E-01 6.815122292E-01
 -9.147379200E-02 6.230739077E-01 7.281934769E-01
 1.736863610E-02 3.533980078E-01 7.331065576E-01
 5.259074204E-02 4.172111007E-02 7.488212326E-01
 2.206706533E+00 5.836846645E-01 7.398893660E-01
 2.740617634E+00 6.009318971E-01 7.355347489E-01
 -2.419251976E-01 -3.636684598E-03 6.647199881E-01
 -1.263038737E-01 -1.256625033E-01 6.537537937E-01
 2.410338287E-02 -3.868394068E-01 7.267362308E-01
 2.793963562E-01 -2.959583521E-01 8.052698443E-01
 4.372914448E-01 -5.075451970E-02 8.646491327E-01
 4.696499345E-01 -5.077667587E-02 8.350711172E-01
 -1.425772059E-01 1.043248686E-01 6.488690421E-01
 -1.204524812E-01 -5.563719096E-03 6.228616766E-01
 -5.329153286E-02 -6.563344570E-02 6.134326967E-01
 3.047031829E-02 -2.388994189E-02 7.423794060E-01
 -2.574637468E-02 -1.422769835E-01 6.746994780E-01
 5.392616498E-03 -9.200052670E-02 6.979288000E-01
 5.050128031E-02 -1.655262149E-01 7.387208863E-01
 7.304657304E-02 -1.010943498E-01 7.825874141E-01
 1.269128869E-01 -1.570775809E-01 7.953004318E-01
 -1.371669136E-02 -5.111036084E-02 6.310089450E-01
 1.461912476E-02 -1.483484549E-02 7.129541432E-01
 -6.091314919E-02 -2.444797148E-03 5.604562214E-01
 1.358073133E-01 -9.959166759E-02 8.225571061E-01
 1.924829662E-01 -1.328275774E-01 8.323608139E-01
 2.317273731E-01 -5.273808766E-02 8.474590087E-01
 1.882376127E-01 -2.272631125E-01 8.029319191E-01
 2.524383308E-01 -1.798665511E-01 8.372064369E-01
 3.196739079E-01 -5.665865926E-02 8.838754790E-01
 2.953808918E-01 -5.447325276E-02 8.750070783E-01
 3.718911649E-01 -2.433968670E-01 8.254423561E-01
 4.040745334E-01 -3.474999622E-01 7.929661496E-01
 5.137826889E-01 -2.532165572E-01 7.874580103E-01
 3.405598151E-01 -1.381816940E-01 8.729545341E-01
 3.982931769E-01 -5.317186798E-02 8.867608127E-01
 4.600663018E-01 -1.468492220E-01 8.340199355E-01
 5.687937024E-01 -1.713137259E-01 7.690528856E-01
 5.478600153E-01 -4.056399045E-02 7.570341392E-01
 6.073448925E-01 -2.609187780E-01 7.498393723E-01
 6.641926736E-01 -1.702872291E-01 7.259939141E-01
 7.433782459E-01 -1.777521689E-02 6.319119328E-01
 7.711779072E-01 -1.859047510E-02 6.221867672E-01
 7.189661623E-01 -2.180039933E-02 6.448627030E-01
 6.418538045E-01 -3.466076465E-02 6.913787085E-01
 7.148015643E-01 -2.590370367E-01 7.153278321E-01
 7.668008624E-01 -1.669384795E-01 6.900194045E-01
 9.672586660E-01 -8.319622645E-03 5.816339628E-01
 8.534321896E-01 -1.136050407E-02 5.874088715E-01
 9.384033702E-01 -7.258542955E-03 5.753986478E-01
 8.291488143E-01 -1.121956638E-02 5.944020366E-01
 8.771514555E-01 -1.192687753E-02 5.836772772E-01
 9.264923866E-01 -3.296012674E-03 5.700550929E-01
 8.299363570E-01 -2.717428994E-01 6.928538556E-01
 9.127228971E-01 -1.808894308E-01 6.717151019E-01
 9.503097668E-01 -2.792749453E-01 6.884029726E-01
 1.014340556E+00 -1.727459638E-01 6.771902160E-01
 8.298314691E-01 -1.010486780E-01 6.570857050E-01
 7.115545027E-01 -1.118266804E-01 6.975113617E-01
 6.570254775E-01 -1.046756807E-01 7.201961380E-01
 9.573627498E-01 -1.025629166E-01 6.501874166E-01
 1.051710988E+00 -8.718704173E-02 6.722882066E-01
 1.109026987E+00 -1.679962511E-01 6.967844801E-01
 1.143219666E+00 -6.419416818E-02 6.858154935E-01
 1.200726395E+00 -1.531158156E-01 7.063948619E-01
 1.249881431E+00 -2.844100916E-02 7.028943894E-01
 1.143434791E+00 4.018547343E-02 6.907606583E-01
 1.278711520E+00 1.094587899E-01 7.181987420E-01
 1.074261543E+00 -1.967645345E-02 6.567650130E-01
 1.068178708E+00 9.189577565E-02 6.999576574E-01
 9.606471968E-01 2.486164911E-02 6.902879167E-01
 1.139766881E+00 1.529286376E-01 7.197189818E-01
 1.409807339E+00 -4.872163112E-02 7.186464626E-01
 1.266627634E+00 2.707834777E-01 7.378144025E-01
 5.177593497E-01 -1.213719154E-01 8.026010668E-01
 1.171121562E+00 -2.796443065E-01 7.072049888E-01
 9.977806431E-01 -6.504244757E-02 6.451267352E-01
 2.410714163E-01 -1.119482360E-01 8.596699516E-01
 6.899661009E-01 -6.431700358E-02 6.911974028E-01
 6.685758712E-01 -2.922618420E-02 6.736182687E-01
 7.303628841E-01 -6.737524298E-02 6.746441618E-01
 7.680524052E-01 -8.841064273E-02 6.697534975E-01
 8.034935387E-01 -6.147794351E-02 6.450780577E-01
 8.571363859E-01 -5.597363059E-02 6.276012119E-01
 8.846181789E-01 -9.528616931E-02 6.477519107E-01
 8.929708398E-01 -5.338942831E-02 6.217499511E-01
 5.392058758E-01 -3.615258481E-01 7.680591098E-01
 1.475440248E+00 1.939859142E-01 7.343729184E-01
 9.530459656E-02 -2.558866489E-01 7.595788128E-01
 1.413739586E+00 4.603955783E-01 7.488687709E-01
 2.090891698E-01 -8.924418551E-02 8.539078863E-01
 2.091134811E-01 -5.085679996E-02 8.368834433E-01
 1.055273470E+00 3.566703543E-02 6.709711419E-01
 1.001073228E+00 7.914522235E-02 6.997837097E-01
 9.848374276E-01 1.433001270E-02 6.557173771E-01
 1.023154931E+00 1.522185705E-01 7.255926755E-01
 9.431095307E-01 1.267525357E-01 7.521565565E-01
 8.564912403E-01 4.051993397E-02 8.050299388E-01
 8.328268089E-01 4.465283253E-02 8.209451341E-01
 4.404494575E-02 -6.396352674E-02 7.607854451E-01
 5.713539600E-02 -3.184403374E-02 7.659235535E-01
 1.464155442E-02 -5.077244859E-02 7.030248714E-01
 3.109356138E+00 -2.612822099E-01 7.354460382E-01
 8.159307391E-01 -1.354335907E-02 6.001531177E-01
 8.242850632E-01 -2.580637209E-02 6.114452895E-01
 8.067744585E-01 -2.924887280E-02 6.198004743E-01
 7.860583628E-01 -3.130728965E-02 6.294432098E-01
 7.646348674E-01 -3.521343061E-02 6.404577681E-01
 8.423868704E-01 -2.651698706E-02 6.078730461E-01
 8.636700525E-01 -2.434827666E-02 6.012804408E-01
 5.335319128E-01 -5.017333678E-01 7.557744028E-01
 9.423719102E-01 7.465404550E-02 7.360181064E-01
 9.275429579E-01 2.488679129E-02 7.295854626E-01
 8.983383515E-01 9.522833989E-02 7.769987886E-01
 8.757601362E-01 1.447022495E-01 7.971862630E-01
 7.550837103E-01 5.771035915E-02 8.716552110E-01
 7.814871727E-01 5.566592617E-02 8.550313715E-01
 9.918829703E-02 -7.073786973E-02 8.110339467E-01
 9.360053343E-02 -3.782456781E-02 7.853869580E-01
 7.242402436E-02 -6.443852578E-02 7.960338389E-01
 6.510589828E-01 -7.053798117E-02 7.129518286E-01
 6.123629441E-01 -7.930455896E-02 7.366124324E-01
 6.136977350E-01 -1.258743932E-01 7.453473938E-01
 5.705046911E-01 -1.061854715E-01 7.674886567E-01
 5.742963477E-01 -6.871872943E-02 7.580324759E-01
 5.724397626E-01 -4.486528789E-02 7.414444150E-01
 5.429676032E-01 -7.968168186E-02 7.840751213E-01
 5.071800244E-01 -7.986572947E-02 8.135172191E-01
 4.709875202E-01 -1.021880196E-01 8.432968569E-01
 4.139656463E-01 -1.167287227E-01 8.710139293E-01
 4.366482836E-01 -8.730772185E-02 8.707462066E-01
 6.237474222E-01 -3.600303298E-02 7.031824152E-01
 7.823930150E-01 -1.494031262E-02 6.135026636E-01
 -2.427774790E-02 -1.898019999E-02 5.092188128E-01
 7.067457212E-01 -2.580573570E-02 6.535387839E-01
 6.981656552E-01 -3.980575678E-02 6.699390466E-01
 4.094352575E-01 -8.645890302E-02 8.849562155E-01
 3.860989582E-01 -5.589526865E-02 8.917395763E-01
 -3.260101348E-02 -2.237835063E-01 7.005348525E-01
 1.027898551E-01 -4.933610627E-02 8.005517192E-01
 6.816431207E-01 -3.941688925E-02 6.766250941E-01
 1.149540975E-01 -4.171932908E-02 7.962019338E-01
 1.255975178E-01 -6.164641096E-02 8.184192984E-01
 1.481785732E-01 -4.270967679E-02 8.079456668E-01
 1.552106755E-01 -7.391886271E-02 8.333497047E-01
 1.630291273E-01 -5.831178631E-02 8.296570149E-01
 8.853620341E-01 -3.148805869E-02 6.024195823E-01
 9.105872469E-01 -3.391470221E-02 6.035920046E-01
 9.239408890E-01 -5.990643941E-02 6.255838648E-01
 9.614652947E-01 -4.990886733E-02 6.230665087E-01
 9.372519595E-01 -3.428860271E-02 6.054577077E-01
 8.819848032E-01 -4.442327929E-01 7.019269604E-01
 1.065530742E+00 -4.231763063E-01 7.013910223E-01
 -3.071762183E-03 -3.080493853E-02 6.123164951E-01
 7.121113088E-03 -1.044901462E-02 6.775794006E-01
 5.213835131E-01 -4.502041068E-02 7.826261441E-01
 5.338378330E-01 -4.372745094E-02 7.699992032E-01
 4.117996268E-01 -5.351359488E-02 8.808997232E-01
 4.491076260E-01 -5.279954369E-02 8.553395461E-01
 1.735395946E-01 -4.835410325E-02 8.222688055E-01
 1.828242273E-01 -6.603458975E-02 8.389349821E-01
 1.759671192E-01 -9.423869144E-02 8.429219226E-01
 5.852294737E-01 -3.790634793E-02 7.262566292E-01
 9.893725248E-01 -2.929707557E-02 6.138915412E-01
 1.024923970E+00 -3.461130860E-02 6.347296544E-01
 7.320676650E-01 -2.059187662E-02 6.402716216E-01
 7.428941182E-01 -3.650414939E-02 6.493079603E-01
 7.189853414E-01 -4.130361030E-02 6.626645656E-01
 4.240518391E-01 -5.292082300E-02 8.726792247E-01
 8.916340091E-01 -8.163934054E-03 5.786674111E-01
 6.559434154E-01 -2.938276795E-02 6.799170488E-01
 6.601353665E-01 -4.627509076E-02 6.925247628E-01
 7.556920860E-01 -2.031735573E-02 6.291703947E-01
 9.145110173E-01 -5.280079197E-03 5.727890949E-01
 2.477947028E-01 -5.383533523E-02 8.547526035E-01
 2.398635043E-01 -7.497034950E-02 8.638020380E-01
 2.699714148E-01 -8.881049765E-02 8.757042795E-01
 2.902965091E-01 -1.235452466E-01 8.691401303E-01
 3.292080936E-01 -1.006110109E-01 8.880579712E-01
 3.432761950E-01 -5.603847897E-02 8.896090213E-01
 2.186627672E-01 -6.495095584E-02 8.516015528E-01
 3.693891488E-01 -1.114827411E-01 8.852531392E-01
 2.597118920E-01 -5.162460408E-02 8.574851480E-01
 1.609775958E-01 -4.500180799E-02 8.145192376E-01
 5.594689844E-01 -4.037573949E-02 7.483339618E-01
 5.924006502E-01 -5.450100064E-02 7.370997979E-01
 6.112994578E-01 -4.976137868E-02 7.224998830E-01
 8.050037669E-01 -1.267939034E-02 6.030210269E-01
 9.745903774E-01 4.504609023E-02 6.885353710E-01
 8.652725058E-01 -8.852574407E-03 5.816188326E-01
 6.798783826E-01 -2.503636733E-02 6.642250373E-01
 8.416758572E-01 -9.849998601E-03 5.883393473E-01
 1.034054270E+00 1.107736836E-03 6.290352356E-01
 1.008244068E+00 2.930194909E-02 6.511928684E-01
 9.079364209E-01 6.526747697E-02 7.632669959E-01
 8.810153731E-01 3.558333874E-02 7.837532136E-01
 2.201733406E-01 -4.957544904E-02 8.389094848E-01
 4.808352702E-01 -7.525306676E-02 8.347104118E-01
 4.913302688E-01 -6.044703444E-02 8.218172604E-01
 4.607548937E-01 -6.783392435E-02 8.504970124E-01
 9.536014782E-01 -9.350991140E-03 5.805122632E-01
 9.480529518E-01 4.360638380E-02 7.160954683E-01
 9.249088887E-01 -1.744691919E-02 5.856925481E-01
 2.555654439E+00 2.092292231E-01 7.392540370E-01
 1.040678137E-01 -3.727067740E-02 7.875816568E-01
 4.394206996E-01 -6.438202860E-02 8.669908829E-01
 4.591661444E-01 -5.028718720E-02 8.441652197E-01
 1.366676220E-01 -4.492820427E-02 8.070960681E-01
 3.564482663E-01 -8.516328725E-02 8.960391045E-01
 1.956506538E-01 -5.075325759E-02 8.316589548E-01
 1.494756975E-02 -2.675946341E-02 6.892265423E-01
 2.206488569E-02 -1.825593146E-02 7.294752959E-01
 3.184797182E-02 -4.003673643E-02 7.445266578E-01
 4.193411636E-01 -6.922830541E-02 8.800207437E-01
 1.313562295E+00 -2.209899182E-01 7.167369965E-01
 2.030680599E-01 -6.436795773E-02 8.467105617E-01
 9.841336081E-01 -6.888271989E-01 7.111228547E-01
 1.648555076E+00 -7.565944405E-02 7.282157904E-01
 5.530854554E-01 -5.518741985E-02 7.649170583E-01
 6.334096630E-01 -5.275713453E-02 7.117643357E-01
 4.328743284E-02 -2.990957851E-02 7.559343796E-01
 4.816892345E-02 -4.366565660E-02 7.636967981E-01
 9.818775915E-01 -1.324107308E-02 5.887874700E-01
 -5.064335385E-03 -1.020294788E-02 4.326680587E-01
 -4.567867686E-05 -4.994184952E-03 5.061495733E-01
 5.288091572E-01 -6.002024352E-02 7.878545752E-01
 7.766430843E-01 -5.446020834E-02 6.499635397E-01
 2.829681824E-01 -5.394693452E-02 8.689003697E-01
 2.874914963E-01 -7.006094905E-02 8.796012728E-01
 3.061797978E-01 -6.672517611E-02 8.846474019E-01
 3.300784671E-01 -7.212521668E-02 8.915054564E-01
 1.482768519E-01 -5.441945817E-02 8.216563322E-01
 1.700397782E+00 -3.316949753E-01 7.296740196E-01
 9.943380964E-01 5.596371123E-01 7.827200623E-01
 7.674699730E-01 3.482971688E-01 8.431114934E-01
 5.920346268E-01 3.991617141E-01 8.773549884E-01
 6.060134101E-01 2.655931780E-01 9.167298020E-01
 6.596885862E-01 6.699922413E-02 9.412397189E-01
 5.637947496E-01 7.476071479E-02 9.997680879E-01
 4.308570484E-01 3.181308131E-01 8.948338774E-01
 4.936719856E-01 1.945009042E-01 9.551691571E-01
 4.815253640E-01 8.110604953E-02 9.943022231E-01
 7.380105580E-01 2.064913123E-01 8.700023670E-01
 8.786356503E-01 3.044158423E-01 7.992448713E-01
 9.338421383E-01 2.060283791E-01 7.704097158E-01
 5.501533740E-01 6.636943360E-01 8.269745369E-01
 3.076176206E-01 -5.312306103E-02 8.781309657E-01
 3.133974596E+00 6.339745962E-01 7.315406874E-01
 8.209510168E-02 -4.803793104E-02 7.916324650E-01
 9.616771649E-01 -2.595735349E-02 5.976571176E-01
 3.316644229E-01 -5.469098249E-02 8.864728515E-01
 8.288988004E-02 -3.448205059E-02 7.798019407E-01
 9.050216156E-01 -1.691446875E-02 5.861965727E-01
 3.553771675E-01 -6.578192527E-02 8.951406243E-01
 3.739717643E-01 -6.795850942E-02 8.957758071E-01
 3.133974596E+00 -6.339745962E-01 7.317854739E-01
 1.068649439E+00 2.552975893E-01 7.401222356E-01
 1.154132214E+00 4.101912374E-01 7.532026479E-01
 6.098885268E-01 -3.414970826E-02 7.095906401E-01
 3.548551829E-01 -5.316259094E-02 8.905936650E-01
 8.773114738E-01 6.716495509E-02 7.900527958E-01
 8.453623068E-01 9.358815955E-02 8.145364146E-01
 8.063652444E-01 1.474105348E-01 8.371792538E-01
 7.979444883E-01 9.977976447E-02 8.441285293E-01
 7.527517091E-01 1.293222444E-01 8.715257943E-01
 6.894258048E-01 1.525271741E-01 9.079127298E-01
 7.080869780E-01 1.024288245E-01 9.028207251E-01
 6.640309152E-01 1.093422076E-01 9.331097428E-01
 6.310602004E-01 1.513569182E-01 9.450914740E-01
 6.197992012E-01 1.097683817E-01 9.628688962E-01
 5.835360096E-01 1.388420047E-01 9.711630955E-01
 5.887235073E-01 7.386430789E-02 9.903507015E-01
 6.364159724E-01 7.066637966E-02 9.583135567E-01
 6.841931630E-01 8.708006020E-02 9.203120835E-01
 6.807049661E-01 6.561076118E-02 9.251568093E-01
 7.394340737E-01 9.110292238E-02 8.836540873E-01
 7.297032063E-01 5.789678627E-02 8.886978951E-01
 5.849251954E-01 1.084100280E-01 9.813851052E-01
 5.477060052E-01 1.148536095E-01 9.875572451E-01
 5.416297944E-01 7.627504728E-02 1.003016986E+00
 5.431422616E-01 1.550221172E-01 9.723890953E-01
 4.993078820E-01 1.346685716E-01 9.777469142E-01
 4.451139621E-01 1.558368867E-01 9.584493362E-01
 4.033281057E-01 7.860408911E-02 9.695264197E-01
 4.585674067E-01 1.183483040E-01 9.782813275E-01
 4.186727867E-01 1.206739345E-01 9.647606119E-01
 3.854624084E-01 1.612061475E-01 9.384392702E-01
 3.181220419E-01 7.653922470E-02 9.367717944E-01
 3.404640991E-01 7.731920961E-02 9.463367303E-01
 4.303086073E-01 2.176524124E-01 9.309134157E-01
 3.579027413E-01 2.317196230E-01 9.043126792E-01
 3.126122525E-01 3.263126933E-01 8.588888719E-01
 3.183975332E-01 1.492247717E-01 9.183514196E-01
 2.273800597E-01 6.906919580E-02 8.997918129E-01
 2.737746964E-01 2.194075406E-01 8.780208326E-01
 2.466460525E-01 1.375906444E-01 8.927172256E-01
 1.938469161E-01 1.937529096E-01 8.476120810E-01
 1.829631007E-01 1.278254805E-01 8.617351650E-01
 1.270586053E-01 1.736625580E-01 8.087686538E-01
 1.271194754E-01 1.117518569E-01 8.239971292E-01
 8.974420051E-02 5.405231739E-02 8.027950502E-01
 6.802468827E-02 1.321842939E-01 7.567442052E-01
 3.725731008E-01 1.190909552E-01 9.489258497E-01
 2.855243227E-01 1.162712261E-01 9.190281571E-01
 3.348835825E-01 1.133650213E-01 9.368723979E-01
 2.226346368E-01 2.831557911E-01 8.336635399E-01
 1.797708355E-01 4.280332198E-01 7.871973476E-01
 5.755253752E-01 7.215619063E-02 9.964056911E-01
 2.551532120E-01 1.008931972E-01 9.081084192E-01
 2.516873179E-01 7.767020748E-02 9.104994466E-01
 8.437678716E-02 9.439865150E-02 7.898828025E-01
 1.833411440E-02 9.879805497E-02 6.794161860E-01
 1.569600877E-02 2.198969499E-02 6.475918375E-01
 2.851361491E-02 3.219361613E-02 6.828630287E-01
 5.427398316E-04 1.621849150E-01 6.919399359E-01
 7.409087836E-01 5.535080410E-02 8.803835751E-01
 5.152165585E-01 1.068917357E-01 9.926357283E-01
 1.640422185E-01 9.524127695E-02 8.595650687E-01
 1.450462114E-01 5.810294400E-02 8.527915728E-01
 1.964724538E-01 9.002695586E-02 8.791389675E-01
 1.979757726E-01 6.942870012E-02 8.838841501E-01
 5.721837544E-02 2.191401440E-01 7.418262917E-01
 3.543937255E-01 7.850549531E-02 9.501643091E-01
 3.596490859E-01 9.534049495E-02 9.500773181E-01
 3.788737018E-01 9.149214553E-02 9.582842217E-01
 1.877439100E-01 6.486604442E-02 8.792041182E-01
 3.028419922E-01 7.659352140E-02 9.303295827E-01
 3.098628337E-01 9.381542928E-02 9.306801786E-01
 2.888062678E-01 9.108917535E-02 9.238305094E-01
 7.657691175E-01 7.851814655E-02 8.646643815E-01
 1.808827099E-01 7.505680345E-02 8.726111315E-01
 5.447542060E-02 7.505989282E-02 7.435606174E-01
 1.000458304E-01 6.959513611E-02 8.064792269E-01
 1.206841633E-01 7.972653630E-02 8.235218008E-01
 2.656483375E-01 7.262136928E-02 9.180656167E-01
 2.707707900E-01 8.888918582E-02 9.170186112E-01
 2.388520459E-01 7.010878381E-02 9.045984626E-01
 2.281781797E-01 9.221787408E-02 8.956115039E-01
 6.946593831E-01 6.518945341E-02 9.145084598E-01
 7.034258836E-01 7.707977987E-02 9.085843725E-01
 7.208958866E-01 7.392151324E-02 8.957932970E-01
 7.192415186E-01 5.783872413E-02 8.963239410E-01
 2.133350976E-01 7.243429241E-02 8.925642641E-01
 3.291751708E-01 8.876671722E-02 9.405165610E-01
 5.738779622E-01 8.889223612E-02 9.922045024E-01
 6.011706824E-01 8.741876203E-02 9.795444133E-01