TITLE     = "Visualization of the solution"
VARIABLES = "x"
"y"
"Mach"
ZONE T="Zone"
 STRANDID=0, SOLUTIONTIME=0
 Nodes=693, Elements=1171, ZONETYPE=FEQuadrilateral
 DATAPACKING=POINT
 DT=(DOUBLE DOUBLE DOUBLE )
 1.000056624E+00 5.104389857E-04 5.564279561E-01
 9.869568944E-01 3.042018507E-03 5.843634285E-01
 9.736699462E-01 5.564400926E-03 6.135450174E-01
 9.572332501E-01 8.668715134E-03 6.403023170E-01
 9.429503679E-01 1.146877557E-02 6.635429076E-01
 9.289513230E-01 1.417483576E-02 6.771746053E-01
 9.167303443E-01 1.639305986E-02 6.879345436E-01
 9.047361612E-01 1.868210360E-02 7.000925321E-01
 8.926164508E-01 2.089301869E-02 7.114823435E-01
 8.806070685E-01 2.309333906E-02 7.259880048E-01
 8.684904575E-01 2.524811961E-02 7.357780666E-01
 8.559803963E-01 2.733862028E-02 7.441162181E-01
 8.438830376E-01 2.940181829E-02 7.554014369E-01
 8.327291012E-01 3.123253025E-02 7.639698142E-01
 8.212124705E-01 3.306299075E-02 7.713629172E-01
 8.088800311E-01 3.500036150E-02 7.791607021E-01
 7.963063717E-01 3.692165017E-02 7.873369023E-01
 7.842420936E-01 3.872458637E-02 7.952968888E-01
 7.720705867E-01 4.051694646E-02 8.026175164E-01
 7.603482604E-01 4.219071940E-02 8.103617204E-01
 7.474943399E-01 4.401300848E-02 8.202834145E-01
 7.341536880E-01 4.584373906E-02 8.300260256E-01
 7.235612273E-01 4.725880176E-02 8.390176927E-01
 7.125560045E-01 4.870048165E-02 8.477152880E-01
 7.009609938E-01 5.015750974E-02 8.573873586E-01
 6.878542304E-01 5.178039894E-02 8.672993689E-01
 6.749637723E-01 5.328969285E-02 8.760684497E-01
 6.646092534E-01 5.446465686E-02 8.865493040E-01
 6.532843709E-01 5.574779958E-02 8.971535592E-01
 6.418104172E-01 5.693538487E-02 9.060532314E-01
 6.300550699E-01 5.813314021E-02 9.159572070E-01
 6.186421514E-01 5.922177434E-02 9.257030465E-01
 6.079620123E-01 6.019096076E-02 9.349963913E-01
 5.957334042E-01 6.125206500E-02 9.446742654E-01
 5.841621757E-01 6.217791140E-02 9.539440972E-01
 5.709413290E-01 6.318175793E-02 9.616217973E-01
 5.584327579E-01 6.401834637E-02 9.674931833E-01
 5.460678339E-01 6.478431821E-02 9.745837186E-01
 5.350464582E-01 6.541302055E-02 9.786151479E-01
 5.231922269E-01 6.599639356E-02 9.795120582E-01
 5.106092095E-01 6.655734032E-02 9.800132168E-01
 4.994562566E-01 6.698457897E-02 9.803384155E-01
 4.862797558E-01 6.740745902E-02 9.788095086E-01
 4.730370343E-01 6.773467362E-02 9.746097142E-01
 4.590053260E-01 6.798752397E-02 9.704172424E-01
 4.456026554E-01 6.815518439E-02 9.689961217E-01
 4.328200221E-01 6.824284792E-02 9.638379320E-01
 4.197935462E-01 6.823967397E-02 9.577399912E-01
 4.074270129E-01 6.817026436E-02 9.512095292E-01
 3.948056102E-01 6.803233176E-02 9.452226071E-01
 3.824319839E-01 6.782137603E-02 9.391465386E-01
 3.706561923E-01 6.755515933E-02 9.327373671E-01
 3.574124575E-01 6.717956811E-02 9.285795148E-01
 3.448678851E-01 6.677704304E-02 9.242829856E-01
 3.320070207E-01 6.625469029E-02 9.192096767E-01
 3.211706579E-01 6.577681005E-02 9.138661433E-01
 3.085841537E-01 6.513176113E-02 9.077512070E-01
 2.954026461E-01 6.438309699E-02 9.030518192E-01
 2.817046642E-01 6.352625787E-02 8.962773084E-01
 2.692335248E-01 6.266231835E-02 8.918777339E-01
 2.574147284E-01 6.178110838E-02 8.862086105E-01
 2.449099422E-01 6.075402349E-02 8.796188350E-01
 2.324588597E-01 5.965477601E-02 8.733569920E-01
 2.201685309E-01 5.849881098E-02 8.670564848E-01
 2.083916664E-01 5.728863925E-02 8.597404611E-01
 1.966726035E-01 5.602870136E-02 8.524784159E-01
 1.843333989E-01 5.458461866E-02 8.440520952E-01
 1.725207120E-01 5.311306939E-02 8.363627950E-01
 1.610817909E-01 5.160722882E-02 8.289766317E-01
 1.492957473E-01 4.993580654E-02 8.205792725E-01
 1.385422498E-01 4.833458737E-02 8.123498125E-01
 1.270330697E-01 4.648892954E-02 8.032820192E-01
 1.158654466E-01 4.459447041E-02 7.938276626E-01
 1.051578447E-01 4.264415801E-02 7.851259835E-01
 9.529677778E-02 4.074721038E-02 7.762817842E-01
 8.433713019E-02 3.848601133E-02 7.669769350E-01
 7.277724147E-02 3.589947149E-02 7.566322729E-01
 6.300560385E-02 3.353687003E-02 7.445379185E-01
 5.338309705E-02 3.100707568E-02 7.316585019E-01
 4.472284764E-02 2.852187678E-02 7.182479876E-01
 3.723827377E-02 2.618022822E-02 7.107666990E-01
 3.065586276E-02 2.392243966E-02 7.040660647E-01
 2.505160123E-02 2.182180993E-02 7.051418709E-01
 2.099693008E-02 2.015950531E-02 6.984730213E-01
 1.708592661E-02 1.842225343E-02 6.812533005E-01
 1.408804860E-02 1.696608588E-02 6.710783581E-01
 1.136110723E-02 1.552339550E-02 6.572598509E-01
 9.340740740E-03 1.435771212E-02 6.286344896E-01
 7.552443538E-03 1.323919091E-02 5.878803275E-01
 5.893150344E-03 1.210442558E-02 5.250248392E-01
 3.705254756E-03 1.040694118E-02 4.358161043E-01
 1.854106551E-03 8.684581146E-03 2.662251063E-01
 3.529191890E-04 6.943545304E-03 2.656698180E-01
 -1.106079668E-03 4.514422268E-03 1.956048475E-01
 -1.735115075E-03 2.644331893E-03 2.037940941E-01
 -1.936923829E-03 1.132589532E-03 1.240647241E-01
 -1.847343869E-03 -5.582781159E-04 1.685270431E-01
 -1.403148053E-03 -2.357131802E-03 1.738762649E-01
 -4.317139101E-04 -4.471155349E-03 2.663341481E-01
 1.059896778E-03 -6.649107207E-03 4.163524767E-01
 3.118274501E-03 -8.907436393E-03 4.534613133E-01
 4.987177439E-03 -1.059065107E-02 5.159221536E-01
 7.153063547E-03 -1.227322500E-02 5.283924667E-01
 8.854394779E-03 -1.345799118E-02 5.523878332E-01
 1.097671967E-02 -1.481410954E-02 5.735692322E-01
 1.337025035E-02 -1.620043255E-02 6.040761392E-01
 1.669632271E-02 -1.795266382E-02 6.332439224E-01
 1.975511387E-02 -1.941473968E-02 6.561028113E-01
 2.364321984E-02 -2.111867443E-02 6.756975492E-01
 2.891888097E-02 -2.320818976E-02 6.911456747E-01
 3.457921743E-02 -2.523419447E-02 7.133557494E-01
 4.151298106E-02 -2.746832184E-02 7.332810337E-01
 4.906182364E-02 -2.966557443E-02 7.532330356E-01
 5.788895115E-02 -3.199875355E-02 7.709473467E-01
 6.670503318E-02 -3.412425518E-02 7.874569119E-01
 7.685875893E-02 -3.636783734E-02 8.019886736E-01
 8.675055951E-02 -3.836954013E-02 8.138590739E-01
 9.712941200E-02 -4.032303020E-02 8.229565883E-01
 1.081975177E-01 -4.226570949E-02 8.346285337E-01
 1.195359230E-01 -4.411012679E-02 8.444629768E-01
 1.311795712E-01 -4.587464407E-02 8.541237523E-01
 1.419696808E-01 -4.741759598E-02 8.625895485E-01
 1.532855183E-01 -4.892589524E-02 8.702096003E-01
 1.653077006E-01 -5.042304844E-02 8.784291319E-01
 1.770902723E-01 -5.179708824E-02 8.851775576E-01
 1.890109330E-01 -5.309027061E-02 8.939549372E-01
 1.997629106E-01 -5.418054014E-02 9.030735622E-01
 2.112448514E-01 -5.526921526E-02 9.113434361E-01
 2.235781550E-01 -5.634137988E-02 9.199614516E-01
 2.360232323E-01 -5.732606351E-02 9.284181871E-01
 2.481932342E-01 -5.818773061E-02 9.361099354E-01
 2.604995370E-01 -5.897740647E-02 9.449926389E-01
 2.716193497E-01 -5.959917232E-02 9.543515387E-01
 2.841205299E-01 -6.020168215E-02 9.636022312E-01
 2.964934707E-01 -6.068995968E-02 9.723869723E-01
 3.091053069E-01 -6.108719856E-02 9.821654062E-01
 3.206903040E-01 -6.134825572E-02 9.919430894E-01
 3.331651688E-01 -6.151439622E-02 1.001069487E+00
 3.438574672E-01 -6.156732515E-02 1.010351934E+00
 3.553718030E-01 -6.150935963E-02 1.017072046E+00
 3.662780523E-01 -6.135080755E-02 1.018217391E+00
 3.771534860E-01 -6.110617146E-02 1.016491371E+00
 3.887819052E-01 -6.073976681E-02 1.012502615E+00
 4.017172456E-01 -6.019367650E-02 1.004774724E+00
 4.140354395E-01 -5.953072757E-02 9.919155225E-01
 4.269424379E-01 -5.872251466E-02 9.766550698E-01
 4.393455982E-01 -5.779739097E-02 9.585994502E-01
 4.515329301E-01 -5.676589161E-02 9.398488459E-01
 4.635387957E-01 -5.568229407E-02 9.218756643E-01
 4.759249389E-01 -5.443125963E-02 9.050442577E-01
 4.877609909E-01 -5.317398906E-02 8.876738982E-01
 5.001782775E-01 -5.172365904E-02 8.681698074E-01
 5.139902234E-01 -5.007459968E-02 8.496193011E-01
 5.274389982E-01 -4.836726189E-02 8.345540059E-01
 5.405589342E-01 -4.663596302E-02 8.181740292E-01
 5.536786914E-01 -4.485635087E-02 8.031435612E-01
 5.670853853E-01 -4.299892485E-02 7.890023046E-01
 5.802974105E-01 -4.112395644E-02 7.761144430E-01
 5.928698778E-01 -3.933791071E-02 7.648820379E-01
 6.056375504E-01 -3.749745712E-02 7.541426232E-01
 6.195902228E-01 -3.546759486E-02 7.431099420E-01
 6.339780092E-01 -3.336062282E-02 7.318984269E-01
 6.483095288E-01 -3.125138208E-02 7.208526892E-01
 6.616590023E-01 -2.931989729E-02 7.111784280E-01
 6.752403975E-01 -2.733625658E-02 7.020980180E-01
 6.879208088E-01 -2.551896498E-02 6.933800328E-01
 7.003168464E-01 -2.373271622E-02 6.857258768E-01
 7.150034904E-01 -2.167965844E-02 6.785344166E-01
 7.282896638E-01 -1.983327046E-02 6.710334583E-01
 7.398301363E-01 -1.819689386E-02 6.613754795E-01
 7.533390522E-01 -1.639632508E-02 6.546176766E-01
 7.657306194E-01 -1.475558896E-02 6.489092458E-01
 7.787202001E-01 -1.304340269E-02 6.408381167E-01
 7.910422087E-01 -1.152148377E-02 6.342830351E-01
 8.036272526E-01 -9.970739484E-03 6.281195719E-01
 8.148031235E-01 -8.663414977E-03 6.218092160E-01
 8.263942599E-01 -7.359172683E-03 6.162081711E-01
 8.386626244E-01 -5.989826750E-03 6.078381199E-01
 8.510753512E-01 -4.730748944E-03 6.005854501E-01
 8.631357551E-01 -3.575193230E-03 5.945995785E-01
 8.745670915E-01 -2.588124946E-03 5.892710596E-01
 8.862608075E-01 -1.690055942E-03 5.851632229E-01
 8.990986943E-01 -8.157930570E-04 5.810135958E-01
 9.095042348E-01 -2.333958691E-04 5.779545703E-01
 9.200965762E-01 2.643404005E-04 5.762378168E-01
 9.299750924E-01 6.262703100E-04 5.750368795E-01
 9.392793179E-01 8.775270544E-04 5.739769429E-01
 9.515699148E-01 1.081207418E-03 5.765319194E-01
 9.645559192E-01 1.148010720E-03 5.715642284E-01
 9.777987003E-01 1.058119116E-03 5.764374159E-01
 9.899399877E-01 8.370156283E-04 5.893496093E-01
 -5.000000000E-01 -1.000000000E+00 7.108295855E-01
 3.500000000E+00 -1.000000000E+00 7.313179191E-01
 3.500000000E+00 1.000000000E+00 7.288486859E-01
 -5.000000000E-01 1.000000000E+00 7.097538925E-01
 -5.000000000E-01 5.000000000E-01 6.968504984E-01
 -5.000000000E-01 2.752797990E-12 6.840212554E-01
 -5.000000000E-01 -5.000000000E-01 6.967098183E-01
 -9.421907698E-13 -1.000000000E+00 7.207050505E-01
 5.000000000E-01 -1.000000000E+00 7.427360692E-01
 1.000000000E+00 -1.000000000E+00 7.300249563E-01
 1.500000000E+00 -1.000000000E+00 7.197940485E-01
 2.000000000E+00 -1.000000000E+00 7.229448569E-01
 2.500000000E+00 -1.000000000E+00 7.274421164E-01
 3.000000000E+00 -1.000000000E+00 7.294742445E-01
 3.500000000E+00 -5.000000000E-01 7.336442673E-01
 3.500000000E+00 -2.752797990E-12 7.353166735E-01
 3.500000000E+00 5.000000000E-01 7.327740328E-01
 3.000000000E+00 1.000000000E+00 7.272226898E-01
 2.500000000E+00 1.000000000E+00 7.297739458E-01
 2.000000000E+00 1.000000000E+00 7.345887505E-01
 1.500000000E+00 1.000000000E+00 7.483341578E-01
 1.000000000E+00 1.000000000E+00 7.736253362E-01
 5.000000000E-01 1.000000000E+00 7.717775795E-01
 1.733724275E-12 1.000000000E+00 7.276661699E-01
 6.816894161E-01 -3.609458376E-02 7.052458978E-01
 7.849109572E-01 -2.258082305E-02 6.450101649E-01
 9.042862628E-01 -1.199217166E-02 5.908793681E-01
 5.877631020E-01 -5.365540802E-02 7.778798623E-01
 7.089294106E-01 6.061166124E-02 8.569107143E-01
 2.784589792E-01 -7.269051109E-02 9.627822299E-01
 2.740170488E-01 7.589803771E-02 8.999931083E-01
 9.127156228E-01 2.792484896E-02 6.963726897E-01
 8.056902899E-01 4.852206641E-02 7.896470916E-01
 6.013028737E-01 6.997613416E-02 9.430180770E-01
 4.052947756E-01 -7.515171107E-02 1.000287220E+00
 4.363194629E-01 7.976611700E-02 9.699002380E-01
 1.838579335E+00 -5.960240685E-01 7.288083747E-01
 1.770753160E+00 6.120029078E-01 7.448297285E-01
 3.031188051E+00 2.156782053E-01 7.380614215E-01
 7.525502695E-01 -5.636772914E-01 7.385614441E-01
 4.838779998E-01 -6.653654598E-02 8.975390315E-01
 3.218968904E-01 -6.734655402E-01 7.695508800E-01
 1.127387816E-01 -5.386592039E-02 8.498121949E-01
 1.792753903E-01 -6.330040917E-02 8.956045863E-01
 7.322069811E-01 6.206178024E-01 8.214260191E-01
 5.156713263E-01 7.629311119E-02 9.830818648E-01
 2.548054137E-01 6.825546735E-01 7.753430662E-01
 1.237485593E-01 5.705786169E-02 8.025616838E-01
 1.776788806E-01 6.514112222E-02 8.450481992E-01
 3.644261877E-01 8.078595640E-02 9.369672480E-01
 2.734817288E+00 -5.327223530E-01 7.338398654E-01
 1.202349395E+00 6.778327833E-01 7.604789925E-01
 9.731248671E-01 3.094442163E-01 7.635245926E-01
 1.266456914E+00 -6.297342155E-01 7.191351310E-01
 1.515652244E+00 -2.686912138E-01 7.283102876E-01
 2.249280828E+00 -5.881051440E-01 7.319086399E-01
 1.990866140E+00 -2.101593053E-01 7.340512025E-01
 2.414570141E+00 -1.862592152E-01 7.369700294E-01
 2.184517085E+00 1.579801399E-01 7.402858615E-01
 1.796263162E+00 1.328005564E-01 7.370060751E-01
 -2.709711443E-01 -2.366423412E-01 6.780769691E-01
 -1.459723921E-01 -6.011479929E-01 7.155856533E-01
 1.048670344E-01 -3.669869648E-01 7.656065162E-01
 -2.706979762E-01 2.308437336E-01 6.759374046E-01
 -1.105052924E-01 6.327240174E-01 7.238771520E-01
 2.589720288E-02 3.298134193E-01 7.393256800E-01
 4.510707522E-02 3.998327006E-02 7.114271328E-01
 2.215242794E+00 5.746125790E-01 7.404565651E-01
 2.742044131E+00 5.994182021E-01 7.365981886E-01
 -2.316580773E-01 -4.766969962E-03 6.486140907E-01
 -1.185261275E-01 -1.416797030E-01 6.431903840E-01
 6.237782538E-02 -4.270488248E-02 7.840967281E-01
 -7.762988377E-02 -3.177139263E-01 7.017457662E-01
 5.770022547E-03 -1.809469634E-01 6.963015330E-01
 3.142287527E-02 -3.045423730E-02 6.935453424E-01
 1.554089956E-01 -2.237840474E-01 8.180100511E-01
 3.403437797E-01 -7.274824296E-02 1.007182288E+00
 3.709021809E-01 -7.344230670E-02 1.015171412E+00
 3.145440082E-01 -7.148615033E-02 9.877979635E-01
 2.297853959E-01 -7.010287804E-02 9.313063278E-01
 -3.703147719E-02 -9.765119561E-02 6.363277732E-01
 -1.094137254E-01 -2.381229110E-02 6.151970102E-01
 2.573262163E-02 -1.062824596E-01 7.238438600E-01
 3.109343349E+00 -2.613018674E-01 7.364138647E-01
 -5.059147957E-02 -3.854707686E-02 5.948396430E-01
 -4.778476662E-03 -6.119596964E-02 6.176328020E-01
 1.020375405E-02 -1.760471691E-02 5.552831523E-01
 3.863978492E-02 -6.999929292E-02 7.474723159E-01
 4.577976993E-02 -3.710995716E-02 7.427230467E-01
 7.295168225E-02 -9.340745021E-02 8.144629706E-01
 7.639427241E-02 -4.519725195E-02 8.082034858E-01
 9.002300873E-02 -1.603168279E-01 7.930512206E-01
 1.455363857E-01 -5.829596116E-02 8.735875171E-01
 1.209735192E-01 -1.068640753E-01 8.587118747E-01
 -1.482626776E-02 -2.430443599E-02 4.565473760E-01
 -2.890957425E-02 1.297499255E-02 4.043864587E-01
 5.014843198E-03 -1.308638546E-02 4.773195134E-01
 2.557273727E+00 2.074395751E-01 7.402593702E-01
 1.720484165E-03 -3.854756025E-02 5.823592274E-01
 2.034884286E-02 -2.493250662E-02 6.394982069E-01
 2.211206892E-02 -5.068121736E-02 6.826558966E-01
 4.447229746E-02 -5.052455219E-02 7.560044850E-01
 6.883741174E-02 -6.021076528E-02 8.079343524E-01
 8.781393149E-02 -5.103310042E-02 8.260878564E-01
 1.005603930E-01 -7.029609874E-02 8.495265010E-01
 1.284248713E-01 -7.915097127E-02 8.749360636E-01
 1.526880969E-01 -9.659434581E-02 8.917928084E-01
 1.723499124E-01 -1.372744843E-01 8.759448406E-01
 2.311642950E-01 -1.741584433E-01 8.867246834E-01
 2.055062466E-01 -1.117763824E-01 9.171469866E-01
 2.038739203E-01 -6.928811748E-02 9.153615381E-01
 2.671303552E-01 -1.297037106E-01 9.385717211E-01
 2.991277442E-01 -1.792885416E-01 9.190471006E-01
 2.505182568E-01 -2.547778323E-01 8.514271499E-01
 3.542670298E-01 -2.357771232E-01 8.953672882E-01
 3.914035062E-01 -1.618772488E-01 9.445211525E-01
 4.476800048E-01 -2.227136936E-01 8.779639377E-01
 5.370656732E-01 -6.578140206E-02 8.326069665E-01
 5.632429399E-01 -5.653919458E-02 8.007500812E-01
 4.463261329E-01 -6.776013860E-02 9.510448826E-01
 4.780182423E-01 -1.510518156E-01 8.847320848E-01
 5.380417839E-01 -2.109448703E-01 8.147834032E-01
 5.141831686E-01 -3.206493762E-01 8.126542402E-01
 6.248833312E-01 -2.676540367E-01 7.621276247E-01
 6.489608081E-01 -1.643891435E-01 7.480349234E-01
 7.278885907E-01 -2.230940633E-01 7.198650231E-01
 7.363661923E-01 -2.849657246E-02 6.723640275E-01
 8.462948739E-01 -1.859754790E-02 6.152722502E-01
 6.443460463E-01 -4.410588876E-02 7.321811609E-01
 7.583216503E-01 -1.456251747E-01 7.000255399E-01
 8.175578179E-01 -1.837345308E-01 6.867204678E-01
 9.724000778E-01 -1.119383359E-02 5.929631679E-01
 9.447164885E-01 -1.056490529E-02 5.865743724E-01
 8.432961356E-01 -1.168217569E-01 6.664466173E-01
 8.969795101E-01 -1.504737069E-01 6.641503962E-01
 8.981081232E-01 -2.548837356E-01 6.844368025E-01
 9.944451509E-01 -2.018649259E-01 6.739074200E-01
 9.058532284E-01 -8.473352199E-02 6.429732415E-01
 1.003917608E+00 -3.078861467E-01 6.897987439E-01
 1.116580824E+00 -2.482837688E-01 6.954191315E-01
 1.138176510E+00 -1.162775979E-01 6.968472578E-01
 1.014826618E+00 -1.019266145E-01 6.639084024E-01
 2.958124893E-01 -3.951971917E-01 8.161992089E-01
 5.537557580E-01 -1.352705021E-01 8.208188362E-01
 6.790278452E-01 -1.176122048E-01 7.367695201E-01
 7.760923060E-01 -8.388371386E-02 6.841760917E-01
 1.240800913E+00 -1.785203892E-01 7.134223675E-01
 1.256965431E+00 -5.511944359E-02 7.009580728E-01
 1.122315869E+00 1.008726736E-02 6.700835017E-01
 1.243857113E+00 1.182544323E-01 7.113977081E-01
 1.404194994E+00 1.089784943E-02 7.137851372E-01
 1.466860555E+00 1.938560416E-01 7.336576024E-01
 8.586831102E-01 -6.796757472E-02 6.472182649E-01
 3.148551666E-01 -1.214527029E-01 9.716601966E-01
 4.270311896E-01 -1.272917988E-01 9.546711453E-01
 5.044069473E-01 -1.056744631E-01 8.729388005E-01
 5.076456346E-01 -6.381773751E-02 8.643996288E-01
 1.085138125E+00 1.682038359E-01 7.196983513E-01
 9.689428219E-01 2.016230093E-02 6.348055131E-01
 1.051996930E+00 8.115972186E-02 6.800255575E-01
 9.705302500E-01 1.739010532E-01 7.396232153E-01
 8.522387304E-01 4.275628812E-02 7.569857917E-01
 8.775820680E-01 3.755927363E-02 7.368324091E-01
 8.288628280E-01 4.546221451E-02 7.742255808E-01
 8.257588863E-01 2.827023961E-01 8.096316800E-01
 8.558915830E-01 1.549035720E-01 8.001793994E-01
 7.562488141E-01 5.469747992E-02 8.210276055E-01
 7.816250982E-01 5.482559558E-02 8.066836539E-01
 1.180164507E+00 3.497160148E-01 7.467370797E-01
 9.905624147E-01 9.807699070E-02 7.048867864E-01
 5.403327659E-01 -9.182678807E-02 8.344098848E-01
 5.981014939E-01 -1.042898173E-01 7.850691198E-01
 1.300620879E+00 -3.430954192E-01 7.170686215E-01
 1.599507673E-01 -7.287620696E-02 8.902512461E-01
 6.021126797E-01 -4.383720864E-01 7.681588763E-01
 4.425091549E-01 -4.633464356E-01 8.050048635E-01
 7.319736098E-01 -3.599906138E-01 7.287041354E-01
 2.892358161E-01 -1.035171919E-01 9.697921618E-01
 9.564362395E-01 -1.175105395E-01 6.524725542E-01
 9.488036483E-01 -6.793797798E-02 6.330506586E-01
 1.010629295E+00 -4.698554806E-02 6.422614128E-01
 9.228589640E-01 -4.833788530E-02 6.207397083E-01
 9.247867521E-01 -1.134983791E-02 5.875573528E-01
 1.065317338E+00 -7.301206926E-02 6.749433903E-01
 1.046528334E+00 -1.896908512E-02 6.400523442E-01
 1.047680329E+00 2.557630738E-02 6.262946289E-01
 9.996579597E-01 3.648735416E-02 6.400983502E-01
 9.489286021E-01 -3.852458336E-02 6.126022315E-01
 2.380331352E-01 -1.066496199E-01 9.380648700E-01
 2.525724955E-01 -6.798266720E-02 9.429286547E-01
 2.687186702E-01 -9.276640371E-02 9.577157491E-01
 2.904392256E-01 -8.392533879E-02 9.732856333E-01
 3.113573269E-01 -8.898171795E-02 9.862835609E-01
 3.509755688E-01 -1.077377937E-01 9.984932362E-01
 2.423614559E-01 -6.797913712E-02 9.370236421E-01
 1.094471995E+00 -4.362313551E-01 7.062222621E-01
 1.460226181E+00 5.286659183E-01 7.491762472E-01
 5.206165572E-01 -6.122958656E-02 8.480047639E-01
 5.178210547E-01 -7.780988357E-02 8.569667075E-01
 4.976342430E-01 -7.698425151E-02 8.820464100E-01
 4.759584078E-01 -8.275528583E-02 9.103946134E-01
 4.603138268E-01 -6.845275878E-02 9.302741570E-01
 4.556199000E-01 -8.373466198E-02 9.394029979E-01
 4.347015590E-01 -8.751711897E-02 9.641970528E-01
 4.626227077E-01 -1.063375241E-01 9.252468885E-01
 4.095137427E-01 -9.547207489E-02 9.923275554E-01
 3.896046816E-01 -8.501371159E-02 1.008054433E+00
 3.820939777E-01 -1.136991010E-01 9.899123753E-01
 1.010984004E-01 -5.084257019E-02 8.379794084E-01
 5.499128548E-01 -5.726110220E-02 8.138803209E-01
 5.567288179E-01 -7.221877839E-02 8.146321129E-01
 5.757795161E-01 -6.645051414E-02 7.944148928E-01
 5.996484645E-01 -7.007591753E-02 7.787145608E-01
 6.132389833E-01 -5.174845249E-02 7.584493786E-01
 6.247279031E-01 -7.087298675E-02 7.608333591E-01
 6.506503984E-01 -7.064890096E-02 7.457127761E-01
 6.393868967E-01 -1.011956454E-01 7.580545987E-01
 6.609226373E-01 -5.360575115E-02 7.297776692E-01
 6.288929696E-01 -4.858637905E-02 7.454855387E-01
 1.266489779E-01 -6.260650854E-02 8.660835478E-01
 9.629730177E-01 -6.353267456E-01 7.233223714E-01
 9.581325302E-01 -1.077601541E-02 5.858722078E-01
 9.649116187E-01 -2.549527510E-02 6.027597438E-01
 9.846384275E-01 -2.624065416E-02 5.999327899E-01
 1.017093492E+00 -2.149615252E-02 6.223797269E-01
 1.026252868E+00 3.337715688E-03 6.001821760E-01
 1.872319183E-01 -8.888624858E-02 9.098733190E-01
 1.631702870E+00 -6.501415475E-02 7.272538243E-01
 8.761239419E-01 -3.886560496E-01 7.075549569E-01
 6.778172164E-01 -7.702305884E-02 7.310502110E-01
 7.046860626E-01 -5.800502083E-02 7.079728810E-01
 7.093239642E-01 -3.670798884E-02 6.917598758E-01
 7.193253191E-01 -1.001706841E-01 7.121254489E-01
 7.377497685E-01 -6.472060580E-02 6.940288149E-01
 7.618405040E-01 -3.219529668E-02 6.629740085E-01
 7.664672605E-01 -5.491821418E-02 6.747815487E-01
 8.005672612E-01 -5.226931513E-02 6.589258083E-01
 8.205869672E-01 -1.700120213E-02 6.254638641E-01
 8.325189041E-01 -4.825781539E-02 6.447422327E-01
 8.317757547E-01 -1.884260510E-02 6.216804728E-01
 8.110565318E-01 -1.785628633E-02 6.304249558E-01
 7.987902549E-01 -2.713142532E-02 6.419199398E-01
 8.194733212E-01 -3.036682041E-02 6.361194836E-01
 8.570548203E-01 -3.637730645E-02 6.261676114E-01
 8.811832689E-01 -1.215636323E-02 5.966726934E-01
 8.889482346E-01 -4.587643030E-02 6.240463009E-01
 8.706916471E-01 -1.184046867E-02 5.993496912E-01
 8.607940376E-01 -1.698098877E-02 6.077295315E-01
 8.755295843E-01 -2.461653839E-02 6.103188011E-01
 8.933667735E-01 -2.272718291E-02 6.038540070E-01
 9.118332811E-01 -2.489082820E-02 6.030723979E-01
 8.929270976E-01 -1.023809465E-02 5.917693187E-01
 9.341125429E-01 -2.341759973E-02 5.992515867E-01
 8.528140481E-01 4.302057539E-01 8.029735736E-01
 7.096891067E-01 3.465136708E-01 8.543984296E-01
 7.324015059E-01 2.145614533E-01 8.584941588E-01
 6.486679588E-01 6.788602840E-02 9.056228773E-01
 6.708005807E-01 6.589686761E-02 8.873893972E-01
 5.805044960E-01 2.754529108E-01 9.201695232E-01
 6.374347099E-01 1.586662957E-01 9.304946418E-01
 5.641997662E-01 8.215784316E-02 9.696512055E-01
 5.390449029E-01 7.497720012E-02 9.791512253E-01
 5.721557562E-01 4.265453061E-01 8.753715689E-01
 4.653550278E-01 2.906299436E-01 9.222460004E-01
 5.111812962E-01 1.997994972E-01 9.633565481E-01
 4.831476670E-01 7.892405721E-02 9.806307295E-01
 3.936727500E-01 2.187907490E-01 9.371940310E-01
 4.028262528E-01 7.983839698E-02 9.555585419E-01
 3.550741183E-01 2.752852436E-01 8.997785563E-01
 2.940506817E-01 2.156332104E-01 8.973839554E-01
 2.242413446E-01 7.358848547E-02 8.765973729E-01
 2.016861746E-01 6.529140191E-02 8.598446386E-01
 3.143576972E-01 7.559508909E-02 9.156915319E-01
 3.429474051E-01 7.686618846E-02 9.274816032E-01
 4.528748156E-01 1.518394618E-01 9.738280041E-01
 3.441508878E-01 1.558554259E-01 9.323252577E-01
 2.307593300E-01 3.040535181E-01 8.350764669E-01
 1.508966269E-01 1.978836114E-01 8.201459147E-01
 1.608291678E-02 1.818251237E-01 7.159021967E-01
 1.267437634E-02 2.444093299E-02 6.325781427E-01
 9.745424974E-02 1.425572891E-01 7.880659367E-01
 7.223007867E-02 4.807780091E-02 7.530728433E-01
 2.256877096E-01 1.541560921E-01 8.850402660E-01
 3.785799772E-01 4.309342351E-01 8.493866340E-01
 1.559073263E-01 4.760159727E-01 7.754157281E-01
 4.875496256E-01 6.321304034E-01 8.290128992E-01
 7.231699885E-01 -3.281612357E-02 6.819051253E-01
 9.605546430E-01 6.490927570E-02 6.952652652E-01
 9.385447492E-01 9.680261256E-02 7.333587346E-01
 9.409087712E-01 2.330830985E-02 6.699560434E-01
 9.289101081E-01 5.935286286E-02 7.135740636E-01
 8.942918203E-01 7.751026440E-02 7.506905018E-01
 5.689374844E-01 -6.564429522E-01 7.676852044E-01
 7.478998743E-01 -2.806666375E-02 6.660993730E-01
 3.688794951E-01 -9.333892601E-02 1.011791496E+00
 3.548165560E-01 -8.052594375E-02 1.012588007E+00
 9.023391049E-01 1.336570536E-01 7.684820902E-01
 8.497826044E-01 8.483595216E-02 7.863643146E-01
 8.062929262E-01 1.243850866E-01 8.226391235E-01
 8.100693482E-01 8.581647465E-02 8.102706547E-01
 7.667013433E-01 9.434897265E-02 8.363100499E-01
 7.564768827E-01 1.455303849E-01 8.539491572E-01
 7.225848714E-01 1.036184238E-01 8.680127652E-01
 7.374468601E-01 8.164169015E-02 8.473095883E-01
 7.326015646E-01 6.128340078E-02 8.402139634E-01
 8.136359011E-01 1.893452933E-01 8.232397821E-01
 7.441409049E-01 5.512649958E-02 8.291868107E-01
 7.213657871E-01 7.220615888E-02 8.544847857E-01
 6.900524813E-01 9.590600950E-02 8.864560648E-01
 6.775406820E-01 1.207444126E-01 9.017223172E-01
 6.611466629E-01 9.844110288E-02 9.052318383E-01
 6.104174368E-01 1.141517211E-01 9.480888369E-01
 7.198027988E-01 5.801210086E-02 8.476281426E-01
 8.682899039E-01 5.513003714E-02 7.561177298E-01
 8.990018562E-01 4.548441164E-02 7.253684384E-01
 7.856015268E-01 7.363608126E-02 8.165103746E-01
 8.219974997E-01 6.159097124E-02 7.889583695E-01
 8.435506831E-01 5.504259465E-02 7.726591909E-01
 6.938148587E-01 -3.863536802E-02 7.006962518E-01
 3.487871655E-01 -1.533054186E-01 9.606589181E-01
 8.645163112E-01 3.760646775E-02 7.457404143E-01
 6.724091304E-02 -2.606089768E-01 7.479234468E-01
 1.699098051E+00 -3.293871690E-01 7.320549088E-01
 7.735959446E-01 -2.476939960E-02 6.514815546E-01
 7.810286971E-01 -3.564407899E-02 6.570910067E-01
 -1.074498771E-01 2.632649087E-01 6.898686294E-01
 -1.097764071E-01 1.125029109E-01 6.370477309E-01
 -2.822818749E-02 9.164196918E-02 6.490275929E-01
 3.575790235E-02 1.100474303E-01 7.181218090E-01
 8.495752773E-02 9.262757107E-02 7.743505113E-01
 1.253515875E-01 9.834566478E-02 8.153182645E-01
 1.502944197E-01 6.059309547E-02 8.250711471E-01
 9.844885419E-03 5.357291760E-02 6.288527544E-01
 2.260626240E-02 2.579114327E-02 6.659667819E-01
 3.445543800E-02 3.245931422E-02 6.908841410E-01
 4.751212002E-02 7.514122963E-02 7.241071743E-01
 9.531574872E-02 6.510215668E-02 7.788006366E-01
 2.640230621E-02 5.035692732E-02 6.757204693E-01
 9.852484516E-02 4.992275004E-02 7.792016202E-01
 5.543684492E-02 5.483205926E-02 7.264311847E-01
 8.666700120E-02 5.135906008E-02 7.679973847E-01
 1.093022702E-01 5.668874848E-02 7.902075351E-01
 1.136806109E-01 7.540102809E-02 7.992890515E-01
 1.340122200E-01 7.020349787E-02 8.158925378E-01
 1.524558930E-01 8.148874983E-02 8.338233119E-01
 1.801834134E-01 8.564131381E-02 8.554452615E-01
 7.368655354E-02 6.452331294E-02 7.561970367E-01
 9.740767507E-01 -4.678589063E-02 6.224896821E-01
 5.989947462E-01 -1.575575408E-01 7.787771429E-01
 3.256801650E-01 -7.439873757E-02 9.968945329E-01
 3.339804023E-01 -9.031366224E-02 1.000297621E+00
 2.183633397E-01 -8.532623164E-02 9.295273273E-01
 7.415101374E-01 -4.128969712E-02 6.797433675E-01
 9.345740388E-01 -8.765709113E-03 5.843311451E-01
 9.141014214E-01 -9.640378648E-03 5.872292644E-01
 3.133974596E+00 6.339745962E-01 7.328059127E-01
 4.957262021E-01 -6.372302453E-02 8.806963926E-01
 8.173286238E-01 4.472772089E-02 7.808884707E-01
 3.253673993E-02 -4.112730297E-02 7.090653973E-01
 1.974152018E-02 -3.580161049E-02 6.501613003E-01
 1.030810994E-02 -2.906683842E-02 5.774348827E-01
 -3.814741013E-03 -2.490406915E-02 4.868189236E-01
 -5.602350843E-04 -1.210447978E-02 4.024523356E-01
 4.163181334E-03 -2.088821749E-02 4.889477960E-01
 1.339158448E-02 -2.344616208E-02 5.780844409E-01
 2.631875614E-01 -7.288860541E-02 9.524452202E-01
 3.133974596E+00 -6.339745962E-01 7.328328524E-01
 4.719227938E-01 -6.557162886E-02 9.138908545E-01
 1.902174933E-01 6.760696587E-02 8.535834020E-01
 5.748336708E-01 -5.215359961E-02 7.875710924E-01
 7.936906426E-01 4.834631946E-02 7.962420295E-01
 8.005893596E-01 6.273769875E-02 8.025664994E-01
 7.688417877E-01 6.608944333E-02 8.212990558E-01
 7.676532279E-01 -7.792913870E-01 7.447481632E-01
 4.213758764E-01 -7.377374705E-02 9.843667119E-01
 4.337383209E-01 -6.911418205E-02 9.688160847E-01
 1.963653278E+00 3.586535923E-01 7.448599596E-01
 7.067048427E-01 -1.501782541E-01 7.241308894E-01
 1.062885422E+00 -1.555554411E-01 6.837978388E-01
 1.918310145E-01 -6.574911720E-02 9.056065545E-01
 2.173691325E-01 -6.726556446E-02 9.222151107E-01
 5.870523660E-01 1.881179679E-01 9.525533791E-01
 5.432297354E-01 1.461042895E-01 9.765709545E-01
 4.993813988E-01 1.385053089E-01 9.824851267E-01
 5.245859226E-01 1.083624080E-01 9.847019793E-01
 5.570880723E-01 1.088620579E-01 9.764199059E-01
 4.648881998E-01 1.144265724E-01 9.807967350E-01
 4.271060903E-01 1.228415831E-01 9.715350015E-01
 4.936008984E-01 1.089402235E-01 9.861352219E-01
 4.600096176E-01 9.411699267E-02 9.793937104E-01
 5.011032108E-01 8.571722948E-02 9.841981912E-01
 4.108837667E-01 1.618667333E-01 9.586353358E-01
 3.917528951E-01 1.168189011E-01 9.555990827E-01
 3.529037940E-01 1.152401299E-01 9.399923246E-01
 3.131452693E-01 1.247524818E-01 9.254821899E-01
 3.285946415E-01 1.038616523E-01 9.307581310E-01
 3.477206382E-01 9.372167419E-02 9.356117613E-01
 3.692381867E-01 9.847345662E-02 9.457106022E-01
 3.860248888E-01 8.863112462E-02 9.504870221E-01
 3.047204265E-01 9.755713807E-02 9.196247841E-01
 2.715432376E-01 1.175415100E-01 9.091396566E-01
 2.323173172E-01 1.119074412E-01 8.927838802E-01
 2.500190122E-01 7.395976777E-02 8.883352161E-01
 1.937809199E-01 1.258707888E-01 8.705841701E-01
 2.098027145E-01 9.199605612E-02 8.762242634E-01
 2.360312526E-01 8.700818665E-02 8.875980104E-01
 2.982219727E-01 8.124547813E-02 9.107884276E-01
 2.818555489E-01 9.191748332E-02 9.101228506E-01
 2.612851549E-01 8.911663210E-02 8.994978255E-01