TITLE     = "Visualization of the solution"
VARIABLES = "x"
"y"
"Mach"
ZONE T="Zone"
 STRANDID=0, SOLUTIONTIME=0
 Nodes=695, Elements=1175, ZONETYPE=FEQuadrilateral
 DATAPACKING=POINT
 DT=(DOUBLE DOUBLE DOUBLE )
 1.000232458E+00 5.305392551E-04 5.795295030E-01
 9.875593185E-01 2.889581956E-03 6.427449975E-01
 9.757899642E-01 5.061229691E-03 6.555464113E-01
 9.616284966E-01 7.584818173E-03 6.882562443E-01
 9.486439824E-01 9.948816150E-03 7.059556180E-01
 9.363288283E-01 1.215178519E-02 7.248826980E-01
 9.257898331E-01 1.404547598E-02 7.408364680E-01
 9.133253694E-01 1.614956185E-02 7.544422658E-01
 9.020369053E-01 1.805296913E-02 7.698109294E-01
 8.897963166E-01 2.000388503E-02 7.804891694E-01
 8.771277070E-01 2.190441079E-02 7.894299673E-01
 8.651600480E-01 2.367526107E-02 7.981806111E-01
 8.525738716E-01 2.544936724E-02 8.036602778E-01
 8.405238390E-01 2.705432102E-02 8.072533604E-01
 8.286383748E-01 2.863599546E-02 8.134612011E-01
 8.155268431E-01 3.034570627E-02 8.183965466E-01
 8.019780517E-01 3.201031685E-02 8.228444770E-01
 7.900512815E-01 3.350631520E-02 8.286442678E-01
 7.774810791E-01 3.501004726E-02 8.333525508E-01
 7.650490999E-01 3.647214919E-02 8.383855850E-01
 7.518482804E-01 3.799246624E-02 8.454066833E-01
 7.377222180E-01 3.958947212E-02 8.527169056E-01
 7.265875340E-01 4.080976918E-02 8.591856738E-01
 7.151533365E-01 4.203966632E-02 8.642544545E-01
 7.031193972E-01 4.328398034E-02 8.710468984E-01
 6.893030405E-01 4.471431300E-02 8.797031706E-01
 6.758146882E-01 4.601594806E-02 8.887076386E-01
 6.655406952E-01 4.700778425E-02 8.959374810E-01
 6.535336375E-01 4.809315130E-02 9.016724492E-01
 6.423504353E-01 4.907540604E-02 9.095898824E-01
 6.303538084E-01 5.010310933E-02 9.187396731E-01
 6.190256476E-01 5.101094395E-02 9.261287957E-01
 6.079999804E-01 5.185467005E-02 9.302559539E-01
 5.952084064E-01 5.274384096E-02 9.352073940E-01
 5.831311345E-01 5.355728045E-02 9.422774060E-01
 5.694559216E-01 5.439740792E-02 9.490975073E-01
 5.565105081E-01 5.512935668E-02 9.532265476E-01
 5.436835289E-01 5.576284230E-02 9.566170445E-01
 5.326531529E-01 5.626599863E-02 9.592095243E-01
 5.205173492E-01 5.673962831E-02 9.607031561E-01
 5.074040890E-01 5.719041452E-02 9.624916786E-01
 4.963057637E-01 5.751033500E-02 9.636497596E-01
 4.829469919E-01 5.781813711E-02 9.631936583E-01
 4.698378146E-01 5.803884566E-02 9.613904416E-01
 4.552500546E-01 5.820441619E-02 9.575825909E-01
 4.412522912E-01 5.826707184E-02 9.547111017E-01
 4.280952215E-01 5.825419724E-02 9.510611105E-01
 4.148712456E-01 5.816023797E-02 9.465599534E-01
 4.024547040E-01 5.800184235E-02 9.427498909E-01
 3.898950815E-01 5.778319016E-02 9.392561699E-01
 3.776792288E-01 5.750891566E-02 9.353810218E-01
 3.667733967E-01 5.721956119E-02 9.303425777E-01
 3.534759879E-01 5.677295104E-02 9.246110587E-01
 3.415139318E-01 5.633389577E-02 9.200238351E-01
 3.289533257E-01 5.579776689E-02 9.159833381E-01
 3.185996115E-01 5.532011017E-02 9.122739017E-01
 3.064722419E-01 5.469869077E-02 9.061820310E-01
 2.933247983E-01 5.395137519E-02 8.990586505E-01
 2.794305384E-01 5.309639871E-02 8.946384739E-01
 2.667219639E-01 5.224540457E-02 8.896271828E-01
 2.546453476E-01 5.137618631E-02 8.826315293E-01
 2.420422435E-01 5.039299279E-02 8.762107050E-01
 2.291163951E-01 4.932897538E-02 8.701957471E-01
 2.168823779E-01 4.825199395E-02 8.652012273E-01
 2.051046342E-01 4.715594649E-02 8.597168454E-01
 1.937645227E-01 4.603367299E-02 8.540219779E-01
 1.813706011E-01 4.474571720E-02 8.481660436E-01
 1.694751382E-01 4.342314228E-02 8.422069011E-01
 1.577408463E-01 4.206209257E-02 8.363929519E-01
 1.458264589E-01 4.059190676E-02 8.315685721E-01
 1.350729316E-01 3.919708356E-02 8.255151735E-01
 1.238292456E-01 3.764919564E-02 8.174648606E-01
 1.125094146E-01 3.601206094E-02 8.106177156E-01
 1.018506959E-01 3.437543660E-02 8.025907059E-01
 9.226319194E-02 3.281584755E-02 7.961232851E-01
 8.133519441E-02 3.093458898E-02 7.887474397E-01
 6.959385425E-02 2.874629572E-02 7.814181642E-01
 6.011183932E-02 2.683905140E-02 7.730936576E-01
 5.068582669E-02 2.478540316E-02 7.667959353E-01
 4.199386016E-02 2.271868847E-02 7.542261614E-01
 3.453842178E-02 2.076862007E-02 7.367551601E-01
 2.813553996E-02 1.891905069E-02 7.195203113E-01
 2.267763950E-02 1.717516035E-02 7.071710330E-01
 1.874421351E-02 1.579299755E-02 7.018330014E-01
 1.508040540E-02 1.436194871E-02 6.856574622E-01
 1.249925699E-02 1.326011494E-02 6.696960857E-01
 1.022437867E-02 1.219234336E-02 6.624978545E-01
 8.551118895E-03 1.133178454E-02 6.528343093E-01
 7.009094115E-03 1.047571655E-02 6.424034799E-01
 5.587573629E-03 9.606108069E-03 6.279621343E-01
 3.719793167E-03 8.312037215E-03 6.032702312E-01
 2.104863757E-03 6.975873839E-03 5.656387102E-01
 6.951437099E-04 5.524769425E-03 4.933800062E-01
 -6.528575905E-04 3.591054352E-03 3.965038878E-01
 -1.321429037E-03 2.039104933E-03 3.225819305E-01
 -1.604383695E-03 8.000711678E-04 1.901329680E-01
 -1.670089434E-03 -7.206624141E-04 9.986725674E-02
 -1.363359625E-03 -2.520441776E-03 9.085620903E-02
 -5.577995908E-04 -4.567092750E-03 1.966429756E-01
 8.333042497E-04 -6.777316798E-03 3.247014487E-01
 2.873658901E-03 -9.126618505E-03 3.809464530E-01
 4.704771563E-03 -1.082224306E-02 4.370940100E-01
 6.850806531E-03 -1.253545471E-02 4.849489581E-01
 8.426143788E-03 -1.365706883E-02 5.365198296E-01
 1.041464508E-02 -1.495795045E-02 5.678299071E-01
 1.279557683E-02 -1.638019644E-02 5.973008248E-01
 1.596156694E-02 -1.808793284E-02 6.200623413E-01
 1.901531592E-02 -1.958466880E-02 6.405563844E-01
 2.293479070E-02 -2.134282701E-02 6.605950135E-01
 2.833742462E-02 -2.351791412E-02 6.835125637E-01
 3.403223306E-02 -2.558534034E-02 7.091608169E-01
 4.135762155E-02 -2.797292732E-02 7.354251066E-01
 4.882321507E-02 -3.016975522E-02 7.569380793E-01
 5.748376250E-02 -3.247559071E-02 7.708695810E-01
 6.609856337E-02 -3.457042575E-02 7.830243728E-01
 7.626153529E-02 -3.683843091E-02 7.929599541E-01
 8.609510958E-02 -3.886209056E-02 8.053810324E-01
 9.665355086E-02 -4.086717218E-02 8.166894867E-01
 1.074974313E-01 -4.278725758E-02 8.268104736E-01
 1.191800237E-01 -4.471001774E-02 8.356284044E-01
 1.305026263E-01 -4.644653946E-02 8.432450505E-01
 1.409427822E-01 -4.794803262E-02 8.508141289E-01
 1.519294679E-01 -4.943866283E-02 8.587687737E-01
 1.636743248E-01 -5.092919990E-02 8.670945810E-01
 1.751822084E-01 -5.229885876E-02 8.754390468E-01
 1.870769411E-01 -5.363073573E-02 8.845624926E-01
 1.974603683E-01 -5.471254885E-02 8.932304117E-01
 2.085659802E-01 -5.579783395E-02 9.003796318E-01
 2.207905501E-01 -5.689450353E-02 9.089054043E-01
 2.331869155E-01 -5.793377012E-02 9.186587803E-01
 2.452656925E-01 -5.884178355E-02 9.279923853E-01
 2.579593956E-01 -5.970605835E-02 9.363673590E-01
 2.691949606E-01 -6.038306281E-02 9.452569884E-01
 2.821539342E-01 -6.107579544E-02 9.549215436E-01
 2.948562503E-01 -6.162847579E-02 9.639633416E-01
 3.078435063E-01 -6.208765507E-02 9.733467831E-01
 3.194563687E-01 -6.240036339E-02 9.823426555E-01
 3.317836225E-01 -6.260632724E-02 9.891295628E-01
 3.425005674E-01 -6.272042543E-02 9.970357897E-01
 3.539234698E-01 -6.272658706E-02 1.004483272E+00
 3.649761677E-01 -6.262176484E-02 1.008565740E+00
 3.757761121E-01 -6.244821474E-02 1.011849623E+00
 3.872507215E-01 -6.211974472E-02 1.012343725E+00
 3.998714089E-01 -6.164653972E-02 1.006545687E+00
 4.121655226E-01 -6.104473025E-02 9.963753303E-01
 4.256561399E-01 -6.026500836E-02 9.839497170E-01
 4.383196235E-01 -5.936262012E-02 9.678952979E-01
 4.514705837E-01 -5.829395726E-02 9.490378367E-01
 4.641264677E-01 -5.714521557E-02 9.312453132E-01
 4.767264724E-01 -5.589418486E-02 9.144868173E-01
 4.885706007E-01 -5.457707494E-02 8.956060582E-01
 5.009375811E-01 -5.316350237E-02 8.765521040E-01
 5.146267414E-01 -5.147610605E-02 8.584210098E-01
 5.284357667E-01 -4.966932535E-02 8.389446116E-01
 5.417294502E-01 -4.788429290E-02 8.215060747E-01
 5.555474162E-01 -4.595511034E-02 8.058368448E-01
 5.684359074E-01 -4.413516074E-02 7.919780615E-01
 5.818324089E-01 -4.218206927E-02 7.787388659E-01
 5.939866304E-01 -4.037198424E-02 7.657929490E-01
 6.064700484E-01 -3.854215518E-02 7.558060489E-01
 6.195946932E-01 -3.656288981E-02 7.448375135E-01
 6.337064505E-01 -3.442962468E-02 7.325570902E-01
 6.472685337E-01 -3.237719834E-02 7.208109536E-01
 6.607128382E-01 -3.036455065E-02 7.112968804E-01
 6.744759083E-01 -2.832811698E-02 7.032492676E-01
 6.870624423E-01 -2.644836158E-02 6.943622105E-01
 6.995634437E-01 -2.459695376E-02 6.853917682E-01
 7.142382860E-01 -2.245759405E-02 6.769739391E-01
 7.271205187E-01 -2.058806643E-02 6.682919961E-01
 7.386917472E-01 -1.894835383E-02 6.605296048E-01
 7.510525584E-01 -1.721977070E-02 6.533335466E-01
 7.637059093E-01 -1.547155716E-02 6.460198234E-01
 7.765852213E-01 -1.377211791E-02 6.399739626E-01
 7.885392308E-01 -1.222062949E-02 6.338776947E-01
 8.010911345E-01 -1.062033884E-02 6.255111043E-01
 8.120523095E-01 -9.259833023E-03 6.179795492E-01
 8.235205412E-01 -7.921723649E-03 6.123988121E-01
 8.357474208E-01 -6.548921112E-03 6.061286270E-01
 8.480713964E-01 -5.258644465E-03 5.994615915E-01
 8.599575162E-01 -4.087688401E-03 5.936678168E-01
 8.716402650E-01 -3.027096624E-03 5.881471168E-01
 8.832641244E-01 -2.052793745E-03 5.837433686E-01
 8.965348601E-01 -1.136551029E-03 5.802900368E-01
 9.064993858E-01 -5.371476873E-04 5.771831448E-01
 9.163519740E-01 -3.190212374E-05 5.752887256E-01
 9.256496429E-01 3.511139075E-04 5.739991454E-01
 9.348930120E-01 6.407654146E-04 5.741364862E-01
 9.474757910E-01 9.104070487E-04 5.737590095E-01
 9.611852765E-01 1.043341472E-03 5.781335811E-01
 9.763796329E-01 9.979031747E-04 5.671376739E-01
 9.890860319E-01 7.929729763E-04 5.857917447E-01
 -5.000000000E-01 -1.000000000E+00 7.122640220E-01
 3.500000000E+00 -1.000000000E+00 7.309075622E-01
 3.500000000E+00 1.000000000E+00 7.291386176E-01
 -5.000000000E-01 1.000000000E+00 7.118264215E-01
 -5.000000000E-01 5.000000000E-01 7.005367462E-01
 -5.000000000E-01 2.752797990E-12 6.886403064E-01
 -5.000000000E-01 -5.000000000E-01 6.997526161E-01
 -9.421907698E-13 -1.000000000E+00 7.222708953E-01
 5.000000000E-01 -1.000000000E+00 7.432141864E-01
 1.000000000E+00 -1.000000000E+00 7.325020365E-01
 1.500000000E+00 -1.000000000E+00 7.224392869E-01
 2.000000000E+00 -1.000000000E+00 7.240475655E-01
 2.500000000E+00 -1.000000000E+00 7.275389772E-01
 3.000000000E+00 -1.000000000E+00 7.291724907E-01
 3.500000000E+00 -5.000000000E-01 7.330903386E-01
 3.500000000E+00 -2.752797990E-12 7.347018244E-01
 3.500000000E+00 5.000000000E-01 7.325487313E-01
 3.000000000E+00 1.000000000E+00 7.276562104E-01
 2.500000000E+00 1.000000000E+00 7.300085664E-01
 2.000000000E+00 1.000000000E+00 7.342059613E-01
 1.500000000E+00 1.000000000E+00 7.452730782E-01
 1.000000000E+00 1.000000000E+00 7.653031571E-01
 5.000000000E-01 1.000000000E+00 7.643745463E-01
 1.733724275E-12 1.000000000E+00 7.284340038E-01
 6.826761778E-01 -4.133290627E-02 7.061507977E-01
 7.844404273E-01 -2.348289368E-02 6.418553238E-01
 9.020331794E-01 -9.415809250E-03 5.871383783E-01
 5.902469896E-01 -5.394675743E-02 7.763824987E-01
 6.980719946E-01 5.879618498E-02 8.773989920E-01
 2.748013777E-01 6.654604755E-02 8.976341840E-01
 2.721587393E-01 -7.194715187E-02 9.494545158E-01
 9.098628494E-01 3.050085458E-02 7.633907703E-01
 8.028519319E-01 4.304495039E-02 8.257804001E-01
 6.013015735E-01 6.307486270E-02 9.325091038E-01
 4.096498976E-01 7.133773883E-02 9.461527131E-01
 5.063327637E-01 6.860578904E-02 9.614400134E-01
 4.195355741E-01 -7.146406548E-02 9.875772615E-01
 1.842527323E+00 -5.969221054E-01 7.288568994E-01
 1.737468403E+00 6.178359128E-01 7.432590571E-01
 3.031173251E+00 2.156851302E-01 7.375202081E-01
 7.475107623E-01 -6.483976215E-01 7.479808872E-01
 4.974161466E-01 -6.729890106E-02 8.858132389E-01
 3.002804600E-01 -7.235639286E-01 7.634071225E-01
 1.119703605E-01 -5.888825564E-02 8.360763142E-01
 1.765456187E-01 -6.466722748E-02 8.837485541E-01
 3.521971177E-01 -7.592457842E-02 1.000873046E+00
 7.500000000E-01 5.669872981E-01 8.136653991E-01
 2.734853366E+00 -5.326861434E-01 7.334462522E-01
 1.189795983E+00 6.127656018E-01 7.555276348E-01
 9.441840908E-01 3.024092449E-01 7.676596119E-01
 1.263350002E+00 -6.074927271E-01 7.211139347E-01
 1.512276501E+00 -2.469461710E-01 7.265248618E-01
 2.929520790E-01 6.458080799E-01 7.775116563E-01
 1.066066375E-01 4.550592374E-02 8.190707137E-01
 1.698002110E-01 5.720541188E-02 8.510528034E-01
 2.249970447E+00 -5.882055336E-01 7.316488926E-01
 1.983250684E+00 -2.104069624E-01 7.342566243E-01
 2.413454321E+00 -1.862367846E-01 7.366944203E-01
 2.184637989E+00 1.582681863E-01 7.398029808E-01
 1.827084348E+00 1.182718751E-01 7.369516128E-01
 -2.738305243E-01 2.319848419E-01 6.823053953E-01
 -1.057532298E-01 6.250004223E-01 7.248211810E-01
 3.100897342E-02 3.282909835E-01 7.353970172E-01
 5.423702383E-02 3.527223248E-02 7.743180930E-01
 -2.711209160E-01 -2.367976333E-01 6.809926242E-01
 -1.460556876E-01 -6.013637219E-01 7.178704600E-01
 1.202123780E-01 -3.700049790E-01 7.646653485E-01
 2.206612956E+00 5.824704081E-01 7.395474469E-01
 2.740599050E+00 6.007307917E-01 7.361121803E-01
 -2.350818160E-01 -4.652253349E-03 6.620302670E-01
 -1.273617630E-01 1.261898583E-01 6.521607252E-01
 -1.093752024E-01 -1.272007087E-01 6.477180191E-01
 6.208616946E-02 -4.225444161E-02 7.764744209E-01
 -7.654998082E-02 -3.209497412E-01 7.038121568E-01
 2.693797610E-03 -1.801492354E-01 6.970453451E-01
 1.570390261E-01 -2.239918923E-01 8.185302852E-01
 2.271776811E-01 -7.400589512E-02 9.190267020E-01
 -2.570398209E-02 -1.036574493E-01 6.346242147E-01
 2.874227586E-02 -3.022028763E-02 6.818000798E-01
 -1.094260721E-01 -2.363635334E-02 6.075528848E-01
 -7.014976431E-02 5.514691652E-02 5.938721476E-01
 2.410200059E-02 2.213011319E-02 7.168671493E-01
 2.697585687E-02 -1.073575275E-01 7.073254389E-01
 3.109363526E+00 -2.612700800E-01 7.359163422E-01
 -5.066883262E-02 -3.893129555E-02 5.593403079E-01
 -5.071427781E-02 1.128546598E-02 5.412878182E-01
 -2.661732816E-02 4.955180046E-02 5.885221034E-01
 -3.579790807E-02 1.020153541E-01 6.441925092E-01
 3.602091082E-02 1.140208981E-01 7.234463087E-01
 -1.967464018E-02 1.844138589E-01 6.937226551E-01
 7.214793478E-02 1.797617946E-01 7.598374671E-01
 2.026909026E-01 3.111822910E-01 8.054162026E-01
 3.457169097E-01 7.116671785E-02 9.256326632E-01
 3.144468273E-01 6.712283198E-02 9.141564179E-01
 2.094067059E-01 1.642390751E-01 8.467070327E-01
 2.086934244E-01 6.152950692E-02 8.681258041E-01
 2.375226993E-01 6.291003140E-02 8.803691696E-01
 9.382785450E-02 1.059758170E-01 7.985930258E-01
 1.424467644E-01 5.123372355E-02 8.386722184E-01
 1.489140963E-01 4.621864277E-01 7.660932866E-01
 1.917919928E-03 -6.286557649E-02 6.246153080E-01
 9.816932652E-03 -1.810702835E-02 5.519089837E-01
 1.127306751E-02 6.638194568E-02 6.864405914E-01
 3.574527816E-02 2.879929310E-02 7.425259252E-01
 5.548273666E-02 7.377634377E-02 7.747209756E-01
 7.145141216E-02 4.254130972E-02 7.947264048E-01
 3.678605710E-02 -7.006577402E-02 7.342712636E-01
 4.511216484E-02 -3.728872562E-02 7.394813989E-01
 7.819624685E-02 -9.125686965E-02 7.937147580E-01
 7.977213407E-02 -4.996151911E-02 8.029818739E-01
 9.017930919E-02 -1.566450132E-01 7.815639485E-01
 1.448288751E-01 -6.087782062E-02 8.617951676E-01
 1.291810630E-01 -1.116362477E-01 8.400913777E-01
 3.160096347E-01 4.111574537E-01 8.227189896E-01
 3.309319439E-01 2.593614210E-01 8.642353779E-01
 4.425663957E-01 3.197412025E-01 8.693977456E-01
 3.081750604E-01 1.642828074E-01 8.878834474E-01
 4.291000171E-01 2.156908335E-01 9.018037346E-01
 4.618094076E-01 7.492125029E-02 9.597553520E-01
 5.268173597E-01 2.251886224E-01 9.045203059E-01
 5.525803608E-01 6.715293189E-02 9.535845712E-01
 5.294467536E-01 6.750963370E-02 9.589064998E-01
 3.799821256E-01 1.360620994E-01 9.241148096E-01
 4.804065345E-01 1.598532083E-01 9.325816473E-01
 5.689220131E-01 1.515103177E-01 9.254941879E-01
 6.131972376E-01 2.268731191E-01 8.868989053E-01
 6.489188375E-01 5.971414137E-02 9.059200360E-01
 6.715366470E-01 5.540940510E-02 8.925565787E-01
 6.398560203E-01 1.493687883E-01 9.000024835E-01
 6.999523109E-01 2.028121933E-01 8.618674488E-01
 7.438229833E-01 5.149884038E-02 8.538816617E-01
 7.176052176E-01 5.226079818E-02 8.657628018E-01
 7.221996556E-01 1.366425720E-01 8.616618039E-01
 6.075792242E-01 3.546242104E-01 8.586583831E-01
 5.206566079E-01 1.183124609E-01 9.490271708E-01
 5.991619978E-01 1.130653281E-01 9.276321264E-01
 5.759724354E-01 6.839328410E-02 9.442453017E-01
 6.788224358E-01 1.083347287E-01 8.879162758E-01
 4.935941551E-01 4.976368166E-01 8.319326195E-01
 7.634664110E-01 3.779097944E-01 8.146690664E-01
 1.491915974E-01 1.372016120E-01 8.222112945E-01
 1.337503253E-01 9.438793759E-02 8.371662979E-01
 1.758353019E-01 1.008552641E-01 8.552502807E-01
 2.397626747E-01 1.161956652E-01 8.783533970E-01
 2.146083144E-01 9.334610782E-02 8.756332605E-01
 1.543439003E-01 2.226033299E-01 8.005540273E-01
 2.237740819E-01 5.945028198E-02 8.729406682E-01
 -1.193799141E-01 2.645997755E-01 6.899768742E-01
 8.966997071E-02 7.186278938E-02 8.152681767E-01
 1.134517364E-01 7.627952082E-02 8.319556381E-01
 8.574946635E-02 5.293856534E-02 8.143083869E-01
 1.214095140E-01 5.258600640E-02 8.311326232E-01
 2.555442919E+00 2.090454769E-01 7.396055818E-01
 6.073092468E-01 7.420864389E-01 8.037062719E-01
 4.766226416E-02 -5.026410961E-02 7.546363745E-01
 2.907956139E-02 -4.823305099E-02 6.963265436E-01
 1.425668643E-02 -3.869383258E-02 6.161075120E-01
 -9.837636512E-03 -3.341519981E-02 5.209065340E-01
 4.847890394E-03 -1.378371390E-02 4.675910230E-01
 1.666607114E-02 -2.401787288E-02 6.156689517E-01
 6.605472641E-02 -6.185068963E-02 7.889742917E-01
 -1.583537473E-02 -7.996512951E-03 3.504168457E-01
 -7.466751905E-05 -1.537068376E-02 4.124969655E-01
 9.182548682E-02 -6.730142378E-02 8.213500373E-01
 1.134564507E-01 -7.876251955E-02 8.413373566E-01
 1.272798753E-01 -6.525326147E-02 8.523326692E-01
 1.457662639E-01 -8.333402616E-02 8.658468623E-01
 1.672975427E-01 -1.097176099E-01 8.750680465E-01
 1.609773808E-01 -6.967656762E-02 8.759887172E-01
 1.791751191E-01 -8.501542648E-02 8.900445056E-01
 2.072571419E-01 -1.145013812E-01 8.980570143E-01
 2.045986722E-01 -6.464656929E-02 9.018086499E-01
 6.896486756E-01 2.924178113E-01 8.512463164E-01
 1.653691685E-01 7.483959411E-02 8.554436913E-01
 -1.546347444E-02 1.546170915E-02 4.624782495E-01
 -3.814316883E-03 3.380975302E-02 6.132531492E-01
 1.183668693E-02 1.719832519E-02 6.633999404E-01
 1.687245166E-01 -1.477579890E-01 8.544981314E-01
 2.346732597E-01 -1.656798453E-01 8.878438821E-01
 2.352886009E-01 -2.673657009E-01 8.441886906E-01
 3.256886120E-01 -1.950556661E-01 9.108297388E-01
 3.122859610E-01 -7.667108207E-02 9.755265232E-01
 3.326247255E-01 -3.052994504E-01 8.552626590E-01
 4.265204419E-01 -2.317525097E-01 8.835027782E-01
 4.464460743E-01 -3.568127606E-01 8.293291426E-01
 5.439614761E-01 -2.573527739E-01 8.099774824E-01
 5.045603023E-01 -1.720653369E-01 8.616662766E-01
 5.509099601E-01 -6.345054590E-02 8.178402194E-01
 5.237874477E-01 -6.537752684E-02 8.515177684E-01
 4.599886451E-01 -6.725240038E-02 9.372192463E-01
 6.323607797E-01 -1.936729299E-01 7.616058637E-01
 6.624455203E-01 -2.935933924E-01 7.476136140E-01
 7.228579429E-01 -1.933649021E-01 7.182930094E-01
 8.415068189E-01 -1.513903581E-02 6.107166061E-01
 8.181796105E-01 -2.371015884E-02 6.266377289E-01
 8.683891913E-01 -1.347246828E-02 5.991971654E-01
 7.351709019E-01 -2.895429901E-02 6.691506209E-01
 7.589546084E-01 -2.679185946E-02 6.560030529E-01
 6.765136948E-01 -1.277944121E-01 7.361877057E-01
 6.281995567E-01 -4.709201335E-02 7.440548686E-01
 6.557336900E-01 -4.301398370E-02 7.219971945E-01
 7.636387708E-01 -1.255436642E-01 6.943694256E-01
 8.043769034E-01 -1.717306429E-01 6.861683337E-01
 9.697214637E-01 -1.677598222E-02 5.908187979E-01
 9.422337423E-01 -9.350751742E-03 5.826591958E-01
 8.475300726E-01 -1.143330067E-01 6.616661898E-01
 8.996544088E-01 -1.849706030E-01 6.703102715E-01
 9.476148305E-01 -1.171378955E-01 6.509720455E-01
 9.912772568E-01 -1.830838683E-01 6.691538401E-01
 9.434400571E-01 -2.892367014E-01 6.886143269E-01
 1.075934376E+00 -2.533960881E-01 6.915903902E-01
 1.119980980E+00 -1.241331286E-01 6.888375625E-01
 8.799778738E-01 -7.173853770E-02 6.379996669E-01
 6.171223341E-01 -1.240559685E-01 7.717176779E-01
 4.338266648E-01 -1.514205041E-01 9.301029730E-01
 3.813234488E-01 -7.479205312E-02 1.009028392E+00
 7.186877125E-01 -8.991404584E-02 7.086733526E-01
 7.086302219E-01 -3.871062802E-02 6.896385092E-01
 1.214303003E+00 -2.239992979E-01 7.080327509E-01
 1.256194457E+00 -9.026227149E-02 7.082188193E-01
 1.152187601E+00 1.364865020E-02 6.941251598E-01
 1.313314213E+00 6.067283399E-02 7.170463154E-01
 1.174038214E+00 1.532688001E-01 7.189703757E-01
 1.358508555E+00 2.318214939E-01 7.336092954E-01
 8.017858148E-01 -8.273633280E-02 6.683923159E-01
 1.059284145E+00 -4.402945837E-01 7.084255423E-01
 8.050260529E-01 -2.798326582E-01 7.041559460E-01
 2.943033054E-01 -1.343227134E-01 9.394615595E-01
 3.710497320E-01 -1.391625138E-01 9.617157354E-01
 4.838467235E-01 -1.203712156E-01 8.980888036E-01
 5.331065791E-01 -1.227404749E-01 8.425707421E-01
 1.076899719E+00 -4.487654465E-02 6.656466940E-01
 1.076021848E+00 4.106890272E-02 6.780174082E-01
 9.722978144E-01 2.006766643E-02 6.781204278E-01
 1.054013323E+00 1.884852208E-01 7.265390749E-01
 1.020372129E+00 9.757621891E-02 7.077787331E-01
 6.445502193E-01 -9.060928431E-02 7.514186499E-01
 5.773305791E-01 -3.994576281E-01 7.799818635E-01
 1.438954392E+00 -6.931700751E-02 7.222720552E-01
 1.155302345E+00 3.539487497E-01 7.414733196E-01
 8.836079460E-01 2.181386474E-01 7.899144793E-01
 8.482837958E-01 4.160167689E-02 8.071044180E-01
 1.414119125E+00 4.680208554E-01 7.445811043E-01
 7.709054119E-01 1.871684913E-01 8.315299464E-01
 7.939327138E-01 1.137632793E-01 8.323467512E-01
 7.508614454E-01 9.914895612E-02 8.523290287E-01
 3.310950057E-01 -1.161514379E-01 9.707383747E-01
 4.454737570E-01 -1.042323860E-01 9.481479030E-01
 1.018625930E+00 -1.018329298E-01 6.633750306E-01
 9.762315934E-01 -6.720754068E-02 6.342087670E-01
 1.021090981E+00 -4.783273233E-02 6.424722601E-01
 1.046963419E+00 -7.994591233E-03 6.420576525E-01
 6.101067074E-01 -8.563076935E-02 7.739712556E-01
 1.030630217E+00 3.481578406E-02 6.671961922E-01
 5.122853600E-01 -9.955653106E-02 8.686625463E-01
 6.150807331E-01 -5.127947260E-02 7.559106199E-01
 4.459428206E-01 -7.588833650E-02 9.548765459E-01
 4.316485826E-01 -7.094327136E-02 9.747101696E-01
 4.703169825E-01 -6.587799456E-02 9.241670598E-01
 4.681736551E-01 -8.383959789E-02 9.262651977E-01
 4.926766960E-01 -8.577693486E-02 8.940325950E-01
 6.411616478E-01 -4.784637261E-02 7.342481063E-01
 6.540078324E-01 -6.443476376E-02 7.353075851E-01
 6.772858993E-01 -8.141651718E-02 7.278733101E-01
 6.718385845E-01 -5.616758417E-02 7.196791197E-01
 6.967633443E-01 -5.711457419E-02 7.068880780E-01
 7.226623752E-01 -5.507005633E-02 6.914206878E-01
 7.536369829E-01 -7.293057175E-02 6.827349067E-01
 7.820252776E-01 -5.834451861E-02 6.649085428E-01
 8.104782983E-01 -4.796114859E-02 6.465067919E-01
 4.272508380E-01 -8.707305728E-02 9.746170345E-01
 4.050911873E-01 -8.724948520E-02 9.929277552E-01
 4.140816911E-01 -1.129295195E-01 9.725518192E-01
 7.480426515E-01 -3.048579737E-02 6.637642991E-01
 7.421022535E-01 -4.355257238E-02 6.761412331E-01
 8.307689774E-01 -1.734417963E-02 6.163313443E-01
 8.380794397E-01 -3.147586348E-02 6.250832398E-01
 8.391979627E-01 -6.157679051E-02 6.445975406E-01
 8.652068179E-01 -4.520917409E-02 6.241483993E-01
 8.954582485E-01 -4.101039695E-02 6.155897192E-01
 9.246037107E-01 -6.883470190E-02 6.305136092E-01
 9.230223199E-01 -3.789863951E-02 6.083868438E-01
 9.207172938E-01 -9.405459419E-03 5.835382565E-01
 9.544033067E-01 -3.848983703E-02 6.125506839E-01
 8.028837444E-01 -3.104236856E-02 6.390705151E-01
 9.954873414E-01 -6.447862492E-01 7.251332364E-01
 8.065478629E-01 -1.931845389E-02 6.284206701E-01
 7.967004800E-01 -1.933693689E-02 6.339687425E-01
 9.107567567E-01 -8.058482784E-03 5.833714546E-01
 9.094608484E-01 -2.100057254E-02 5.955729714E-01
 5.396686246E-01 -8.468547644E-02 8.367304691E-01
 5.744342437E-01 -1.035440699E-01 8.031114527E-01
 1.677950327E+00 -9.869850500E-02 7.306431162E-01
 1.541516905E+00 9.943598562E-02 7.311411967E-01
 8.792103673E-01 -4.536748105E-01 7.161159774E-01
 9.868850974E-01 5.245083906E-02 6.947049538E-01
 9.563093681E-01 9.322347522E-02 7.354763971E-01
 9.460793743E-01 5.894359255E-02 7.322637399E-01
 9.340538712E-01 2.460574780E-02 7.341332230E-01
 9.094364766E-01 7.611101091E-02 7.690967114E-01
 8.843773177E-01 3.333288371E-02 7.860836028E-01
 9.044016180E-01 1.307550973E-01 7.753990956E-01
 8.575829606E-01 9.910791337E-02 8.034672915E-01
 8.754378937E-01 6.543360770E-02 7.942298447E-01
 8.701333638E-01 4.598706667E-02 7.966553059E-01
 8.501861529E-01 6.600918554E-02 8.088100239E-01
 8.210910222E-01 4.229971411E-02 8.191173388E-01
 8.973516574E-01 4.751922246E-02 7.781405237E-01
 9.243155655E-01 4.187261365E-02 7.503114663E-01
 9.523875927E-01 3.241478219E-02 7.160217891E-01
 9.940355284E-01 2.784611968E-02 6.565904443E-01
 9.457025743E-01 1.973328142E-02 7.172409100E-01
 2.503236948E-01 -1.123943402E-01 9.274484457E-01
 2.556702981E-01 -7.023530705E-02 9.380772600E-01
 2.820172338E-01 -1.024092087E-01 9.517059947E-01
 3.080333591E-01 -9.822101193E-02 9.670825217E-01
 6.280816773E-01 -6.456331218E-02 7.525955075E-01
 8.919326976E-01 -2.221164462E-02 5.991729856E-01
 7.623475331E-01 -4.241860023E-02 6.646407792E-01
 3.848461134E-01 -1.086324184E-01 9.906334793E-01
 3.563044705E-01 -9.734809426E-02 9.920883462E-01
 3.666050806E-01 -8.049438904E-02 1.005042301E+00
 5.106551874E-01 -7.814792212E-02 8.688797184E-01
 7.225094653E-01 -3.376527766E-02 6.786114166E-01
 8.229118221E-01 7.592224988E-02 8.221853305E-01
 9.604814124E-01 1.717646507E-01 7.483781967E-01
 5.095692468E-01 -6.412122651E-02 8.688191917E-01
 6.165477239E-03 -2.592092348E-02 5.540149188E-01
 1.711645037E+00 -3.281185307E-01 7.312934347E-01
 5.000849502E-01 -5.979653309E-01 7.852484960E-01
 9.843874880E-01 1.450095203E-02 6.560332857E-01
 1.402794634E-01 7.102935053E-02 8.457544816E-01
 1.563634056E-01 5.804769546E-02 8.480926898E-01
 1.194223827E+00 -3.775597189E-01 7.111571130E-01
 6.952444223E-01 -3.742007911E-02 6.965684926E-01
 6.690874397E-01 -3.984142835E-02 7.127207616E-01
 7.710460796E-01 -2.687575045E-02 6.502161330E-01
 3.263771060E-01 -4.716398746E-01 8.039796042E-01
 2.277628326E-01 -9.580556061E-02 9.201392972E-01
 8.756468487E-01 -2.758027158E-02 6.082839824E-01
 8.802302994E-01 -1.476176955E-02 5.953070671E-01
 5.369062499E-01 -6.221343349E-02 8.334041925E-01
 6.883759990E-02 -2.609669106E-01 7.503655656E-01
 8.420861301E-01 1.497866857E-01 8.081182171E-01
 9.208918623E-01 2.393576541E-02 7.489108808E-01
 8.566940041E-01 -2.031759230E-02 6.086790653E-01
 6.038251959E-01 -6.452238573E-02 7.699398291E-01
 5.834258045E-01 -7.128907826E-02 7.898408235E-01
 5.630654551E-01 -7.678348274E-02 8.100217070E-01
 5.668886424E-01 -6.094824324E-02 8.007221900E-01
 9.336491300E-01 -2.072864772E-02 5.925705433E-01
 9.671248050E-01 5.356701148E-01 7.752793407E-01
 3.133974596E+00 6.339745962E-01 7.326668348E-01
 5.777249203E-01 -5.417626535E-02 7.878433097E-01
 1.025897067E-01 5.811611422E-02 8.281044171E-01
 9.314285642E-01 -7.698595912E-03 5.808451051E-01
 3.133974596E+00 -6.339745962E-01 7.323329799E-01
 8.966850093E-01 2.988196298E-02 7.762811792E-01
 4.823134256E-01 -6.887744803E-02 9.083428203E-01
 2.224662624E-01 7.294102693E-02 8.787341982E-01
 2.400628320E-01 8.280295173E-02 8.888288360E-01
 2.789935536E-01 1.191324249E-01 8.950191552E-01
 1.925153195E-01 7.766512580E-02 8.686778047E-01
 1.880882688E-01 5.845356791E-02 8.587332548E-01
 2.411722713E-01 -6.978951336E-02 9.280553615E-01
 2.073167133E-01 -8.049843667E-02 9.077102074E-01
 2.445607693E-01 -8.793081098E-02 9.320911626E-01
 2.642161730E-01 -8.835923077E-02 9.435799765E-01
 1.739558876E-02 4.141667207E-02 7.110986463E-01
 1.563677794E-02 2.857096461E-02 6.886957032E-01
 3.575956472E-02 4.908670792E-02 7.556132522E-01
 1.951774701E+00 3.607150493E-01 7.433406937E-01
 2.636935577E-01 8.813708171E-02 8.977350195E-01
 2.909322636E-01 7.807786448E-02 9.065188107E-01
 3.092839814E-01 1.087884627E-01 9.105212333E-01
 2.542128603E-01 6.491581372E-02 8.894595727E-01
 3.692210233E-01 1.767053142E-01 9.032592010E-01
 8.520500089E-02 4.091215543E-02 8.017008427E-01
 1.355995192E+00 -1.986281291E-01 7.192668134E-01
 6.021431595E-01 -5.051563209E-02 7.648315731E-01
 1.920289055E-01 -6.719515741E-02 8.947985396E-01
 2.142051277E-01 -6.553802781E-02 9.080171872E-01
 9.571078321E-02 4.411067381E-02 8.120678096E-01
 7.919608077E-01 2.634760304E-01 8.189399747E-01
 3.595395632E-01 -7.213704108E-02 1.007015369E+00
 3.432615499E-01 1.321196061E-01 9.144737359E-01
 3.694482052E-01 1.074719558E-01 9.307588564E-01
 3.812600803E-01 7.060228588E-02 9.386014969E-01
 4.059833562E-01 1.121992821E-01 9.399877135E-01
 4.342716309E-01 7.284500516E-02 9.536631953E-01
 3.382009987E-01 9.468624113E-02 9.239464304E-01
 3.278903233E-01 7.481022399E-02 9.212742747E-01
 3.119879796E-01 8.328825460E-02 9.164579637E-01
 3.650603023E-01 8.088620037E-02 9.333737359E-01
 3.869626731E-01 9.196824693E-02 9.403056439E-01
 4.209425266E-01 8.999314358E-02 9.498892631E-01
 4.485862781E-01 8.805078712E-02 9.559243654E-01
 4.717969574E-01 9.728519818E-02 9.578745701E-01
 4.954749570E-01 9.047684509E-02 9.599332994E-01
 4.221180680E-01 1.529945872E-01 9.264120907E-01
 4.807899231E-01 7.726840135E-02 9.617507321E-01
 5.148220875E-01 8.234580999E-02 9.599858161E-01
 5.352888693E-01 8.461181319E-02 9.572193292E-01
 5.624352787E-01 9.890057843E-02 9.458152648E-01
 3.953767645E-01 7.233577844E-02 9.424321085E-01
 3.701130282E-01 6.662297437E-02 9.340343757E-01
 3.597921329E-01 6.689790874E-02 9.298156023E-01
 4.483035979E-01 6.994788970E-02 9.569607642E-01
 5.886821173E-01 8.794867867E-02 9.366292911E-01