TITLE     = "Visualization of the solution"
VARIABLES = "x"
"y"
"Mach"
ZONE T="Zone"
 STRANDID=0, SOLUTIONTIME=0
 Nodes=720, Elements=1225, ZONETYPE=FEQuadrilateral
 DATAPACKING=POINT
 DT=(DOUBLE DOUBLE DOUBLE )
 9.997818470E-01 5.041297409E-04 5.967764643E-01
 9.894806743E-01 2.514845459E-03 6.483038194E-01
 9.767495990E-01 4.988456145E-03 6.598139788E-01
 9.588404298E-01 8.467865176E-03 6.899232670E-01
 9.421476126E-01 1.163466368E-02 7.107500320E-01
 9.249733090E-01 1.501607057E-02 7.295867456E-01
 9.122546315E-01 1.739903726E-02 7.421335231E-01
 9.003621936E-01 1.971491985E-02 7.554734545E-01
 8.884531856E-01 2.198134176E-02 7.703650372E-01
 8.767682314E-01 2.419621684E-02 7.862836170E-01
 8.643181324E-01 2.650466189E-02 7.975849188E-01
 8.509930372E-01 2.884438634E-02 8.045935776E-01
 8.382108212E-01 3.110734373E-02 8.150235221E-01
 8.282521367E-01 3.286607936E-02 8.242716198E-01
 8.163366914E-01 3.486294672E-02 8.329680058E-01
 8.040834069E-01 3.694962710E-02 8.430300587E-01
 7.917829156E-01 3.893971816E-02 8.508695510E-01
 7.788380384E-01 4.099248722E-02 8.611867919E-01
 7.670383453E-01 4.287309572E-02 8.718375275E-01
 7.551608682E-01 4.466081038E-02 8.807030591E-01
 7.421557903E-01 4.661831632E-02 8.912675806E-01
 7.285385728E-01 4.858697206E-02 9.033574931E-01
 7.181654572E-01 5.007064715E-02 9.143632021E-01
 7.074619532E-01 5.153620988E-02 9.235603969E-01
 6.961602569E-01 5.305304378E-02 9.333648029E-01
 6.827765703E-01 5.477147177E-02 9.471983142E-01
 6.704285145E-01 5.632793531E-02 9.627320116E-01
 6.612727046E-01 5.744050071E-02 9.713647728E-01
 6.497710943E-01 5.873051658E-02 9.804563257E-01
 6.379605532E-01 6.006187201E-02 9.956346333E-01
 6.264123917E-01 6.128061935E-02 1.008802935E+00
 6.149805784E-01 6.240523607E-02 1.019272526E+00
 6.043853760E-01 6.339764595E-02 1.030832295E+00
 5.919970274E-01 6.450232118E-02 1.041655312E+00
 5.808084607E-01 6.539666653E-02 1.050983680E+00
 5.678287148E-01 6.638380885E-02 1.058354614E+00
 5.559450984E-01 6.718956679E-02 1.061807562E+00
 5.446565151E-01 6.789717823E-02 1.061658577E+00
 5.342663527E-01 6.846264005E-02 1.061477252E+00
 5.236435533E-01 6.902614236E-02 1.058364731E+00
 5.117818117E-01 6.952898949E-02 1.052876674E+00
 5.005673170E-01 6.995798647E-02 1.048158880E+00
 4.875963032E-01 7.037613541E-02 1.043338270E+00
 4.739755392E-01 7.070662826E-02 1.037990694E+00
 4.603774548E-01 7.095900923E-02 1.032682584E+00
 4.476315677E-01 7.110862434E-02 1.026897980E+00
 4.350699484E-01 7.117601484E-02 1.020184153E+00
 4.228795171E-01 7.117246091E-02 1.014722388E+00
 4.108177125E-01 7.111158967E-02 1.009524302E+00
 3.993277848E-01 7.098568231E-02 1.004251828E+00
 3.869210482E-01 7.078149170E-02 9.999835618E-01
 3.756745160E-01 7.054899633E-02 9.950790453E-01
 3.631144464E-01 7.020713389E-02 9.881685417E-01
 3.503369093E-01 6.979225576E-02 9.808798260E-01
 3.370428085E-01 6.927486509E-02 9.753007727E-01
 3.256448507E-01 6.878832728E-02 9.690152265E-01
 3.127883077E-01 6.814067811E-02 9.614410762E-01
 2.994694114E-01 6.740020961E-02 9.560515965E-01
 2.855464816E-01 6.655557454E-02 9.517061727E-01
 2.733381391E-01 6.572083384E-02 9.463127911E-01
 2.612327635E-01 6.481591612E-02 9.406748520E-01
 2.486999929E-01 6.380990893E-02 9.356406925E-01
 2.362297326E-01 6.271972507E-02 9.294984300E-01
 2.236779481E-01 6.153185293E-02 9.234358698E-01
 2.117229104E-01 6.031578034E-02 9.178725708E-01
 1.995137483E-01 5.899457261E-02 9.123587250E-01
 1.868558675E-01 5.751581118E-02 9.058120503E-01
 1.748635173E-01 5.601594970E-02 8.988824534E-01
 1.635486335E-01 5.450469628E-02 8.910051036E-01
 1.513734907E-01 5.277149007E-02 8.813592449E-01
 1.405112892E-01 5.110747367E-02 8.712790325E-01
 1.285785884E-01 4.918265715E-02 8.594751651E-01
 1.172536686E-01 4.719287157E-02 8.466902813E-01
 1.067292169E-01 4.523527250E-02 8.357902986E-01
 9.648296237E-02 4.319222271E-02 8.252995997E-01
 8.542016149E-02 4.082420468E-02 8.114389446E-01
 7.381036878E-02 3.812505677E-02 7.938931203E-01
 6.401693076E-02 3.564140573E-02 7.704451428E-01
 5.394229665E-02 3.286025301E-02 7.491872507E-01
 4.574754089E-02 3.038796037E-02 7.247942533E-01
 3.887983412E-02 2.812815271E-02 7.012144750E-01
 3.256340697E-02 2.586972900E-02 6.740188900E-01
 2.701673843E-02 2.370195836E-02 6.544941300E-01
 2.300615236E-02 2.200131491E-02 6.299245236E-01
 1.911558770E-02 2.021077462E-02 6.020902232E-01
 1.584196836E-02 1.857732609E-02 5.734758895E-01
 1.280288398E-02 1.691690274E-02 5.405216076E-01
 1.054262463E-02 1.556580514E-02 4.928380643E-01
 8.640614338E-03 1.433729101E-02 4.595170371E-01
 6.941432133E-03 1.313035004E-02 4.422043800E-01
 4.726324230E-03 1.137007214E-02 4.136955198E-01
 2.743466059E-03 9.488444775E-03 3.624366075E-01
 1.120094792E-03 7.553566247E-03 2.325436320E-01
 -4.703514569E-04 4.686590284E-03 9.892257692E-02
 -9.583905921E-04 2.662098967E-03 9.723689443E-02
 -9.621791542E-04 1.125227078E-03 1.476806111E-01
 -6.623772788E-04 -3.034307447E-04 2.580907370E-01
 -1.472119911E-04 -1.548557309E-03 4.223509013E-01
 8.251887048E-04 -3.070897190E-03 4.733074005E-01
 2.134863986E-03 -4.539230373E-03 5.810021658E-01
 3.928301390E-03 -6.069058087E-03 6.446639148E-01
 5.598688498E-03 -7.228126749E-03 6.748349927E-01
 7.409712300E-03 -8.309698664E-03 7.057625247E-01
 8.995164186E-03 -9.145554155E-03 7.237461557E-01
 1.106553152E-02 -1.012831740E-02 7.444844778E-01
 1.336095575E-02 -1.110702660E-02 7.611884467E-01
 1.660892367E-02 -1.233975496E-02 7.705578573E-01
 1.934515499E-02 -1.327369735E-02 7.715344215E-01
 2.292616479E-02 -1.438486390E-02 7.749493574E-01
 2.823070809E-02 -1.585775241E-02 7.788878687E-01
 3.399629891E-02 -1.728641614E-02 7.843674213E-01
 4.104956985E-02 -1.884672977E-02 7.870543647E-01
 4.876478389E-02 -2.038904093E-02 7.910626621E-01
 5.808746442E-02 -2.207725123E-02 7.943908618E-01
 6.700763106E-02 -2.355270088E-02 7.992368356E-01
 7.712132484E-02 -2.509406395E-02 8.021004643E-01
 8.755625039E-02 -2.656924725E-02 8.047901397E-01
 9.774202853E-02 -2.792102657E-02 8.077767097E-01
 1.091116369E-01 -2.933039702E-02 8.107128407E-01
 1.206983328E-01 -3.068555519E-02 8.155235670E-01
 1.327683777E-01 -3.201179579E-02 8.196970127E-01
 1.440137327E-01 -3.317611292E-02 8.231750279E-01
 1.554951668E-01 -3.430163115E-02 8.275559617E-01
 1.680801362E-01 -3.547041118E-02 8.325682685E-01
 1.800622493E-01 -3.651744127E-02 8.383352168E-01
 1.923701018E-01 -3.752733767E-02 8.428362872E-01
 2.034975886E-01 -3.838359565E-02 8.473655211E-01
 2.150752097E-01 -3.922267631E-02 8.522379603E-01
 2.276363075E-01 -4.006917402E-02 8.578552263E-01
 2.409542799E-01 -4.088821262E-02 8.637774849E-01
 2.535405755E-01 -4.159567133E-02 8.700306856E-01
 2.658405304E-01 -4.220855236E-02 8.758047351E-01
 2.770671546E-01 -4.270084575E-02 8.807324605E-01
 2.898196876E-01 -4.319931939E-02 8.861757009E-01
 3.020216525E-01 -4.357609153E-02 8.913675281E-01
 3.147596121E-01 -4.390768707E-02 8.972581162E-01
 3.267912865E-01 -4.411762208E-02 9.023895902E-01
 3.392798603E-01 -4.424097389E-02 9.057520784E-01
 3.503656983E-01 -4.427200556E-02 9.088994132E-01
 3.612956107E-01 -4.421353713E-02 9.117050761E-01
 3.716096580E-01 -4.408331215E-02 9.125184631E-01
 3.821244538E-01 -4.386701062E-02 9.112150546E-01
 3.935703933E-01 -4.353095219E-02 9.075193493E-01
 4.066352546E-01 -4.303618148E-02 9.025549655E-01
 4.190497696E-01 -4.245208576E-02 8.958798177E-01
 4.310122132E-01 -4.175724834E-02 8.866272936E-01
 4.428301454E-01 -4.098689929E-02 8.757001783E-01
 4.534968734E-01 -4.019545019E-02 8.650773560E-01
 4.645230472E-01 -3.931492195E-02 8.542888943E-01
 4.761016369E-01 -3.831415996E-02 8.439467887E-01
 4.866137207E-01 -3.730973229E-02 8.307928925E-01
 4.991744459E-01 -3.607015684E-02 8.161028628E-01
 5.124635100E-01 -3.467556834E-02 8.028690589E-01
 5.255134106E-01 -3.327487782E-02 7.904546512E-01
 5.389447212E-01 -3.174143285E-02 7.781789759E-01
 5.505231619E-01 -3.039864823E-02 7.656691184E-01
 5.636554360E-01 -2.885441668E-02 7.546796476E-01
 5.760485530E-01 -2.739941888E-02 7.454210077E-01
 5.872023702E-01 -2.605901286E-02 7.364566624E-01
 5.996123552E-01 -2.456808835E-02 7.265049520E-01
 6.145529151E-01 -2.276142687E-02 7.161330608E-01
 6.293453574E-01 -2.099562250E-02 7.062364965E-01
 6.453118920E-01 -1.908096671E-02 6.968062057E-01
 6.581795216E-01 -1.756955869E-02 6.889987095E-01
 6.714546680E-01 -1.602782682E-02 6.818672187E-01
 6.835477948E-01 -1.461918373E-02 6.742868655E-01
 6.962404847E-01 -1.319998689E-02 6.678904986E-01
 7.105585933E-01 -1.162362378E-02 6.617168668E-01
 7.235162854E-01 -1.020459086E-02 6.540845201E-01
 7.359688282E-01 -8.861471899E-03 6.465546764E-01
 7.497247458E-01 -7.458287757E-03 6.398269246E-01
 7.612354159E-01 -6.300942972E-03 6.342682144E-01
 7.745389342E-01 -5.056161899E-03 6.289580771E-01
 7.857144475E-01 -4.000129178E-03 6.227614469E-01
 7.986012101E-01 -2.865107497E-03 6.163869795E-01
 8.099242449E-01 -1.947239973E-03 6.114315746E-01
 8.218191266E-01 -1.010761247E-03 6.067043206E-01
 8.351172805E-01 -5.597257768E-05 6.008058487E-01
 8.477532864E-01 7.609918248E-04 5.954913109E-01
 8.600614071E-01 1.442301786E-03 5.918713561E-01
 8.722913265E-01 2.018488944E-03 5.884446322E-01
 8.845442533E-01 2.489084844E-03 5.859855474E-01
 8.982329965E-01 2.852558624E-03 5.840470535E-01
 9.085023403E-01 3.020626027E-03 5.828230739E-01
 9.195716977E-01 3.094399348E-03 5.827447058E-01
 9.286585450E-01 3.073073458E-03 5.831482964E-01
 9.367472529E-01 2.992725000E-03 5.843955634E-01
 9.479907751E-01 2.793237334E-03 5.857677816E-01
 9.597036839E-01 2.475972287E-03 5.890927174E-01
 9.745098948E-01 1.915703644E-03 5.891222651E-01
 9.870332479E-01 1.307229162E-03 5.975797669E-01
 -5.000000000E-01 -1.000000000E+00 7.128044478E-01
 3.500000000E+00 -1.000000000E+00 7.305043920E-01
 3.500000000E+00 1.000000000E+00 7.269155133E-01
 -5.000000000E-01 1.000000000E+00 7.116248447E-01
 -5.000000000E-01 5.000000000E-01 7.009078799E-01
 -5.000000000E-01 2.752797990E-12 6.901968053E-01
 -5.000000000E-01 -5.000000000E-01 7.001627991E-01
 -9.421907698E-13 -1.000000000E+00 7.203852453E-01
 5.000000000E-01 -1.000000000E+00 7.306179085E-01
 1.000000000E+00 -1.000000000E+00 7.182097294E-01
 1.500000000E+00 -1.000000000E+00 7.137362710E-01
 2.000000000E+00 -1.000000000E+00 7.188362028E-01
 2.500000000E+00 -1.000000000E+00 7.243735026E-01
 3.000000000E+00 -1.000000000E+00 7.273965477E-01
 3.500000000E+00 -5.000000000E-01 7.333090839E-01
 3.500000000E+00 -2.752797990E-12 7.350199131E-01
 3.500000000E+00 5.000000000E-01 7.319483452E-01
 3.000000000E+00 1.000000000E+00 7.240443077E-01
 2.500000000E+00 1.000000000E+00 7.270475585E-01
 2.000000000E+00 1.000000000E+00 7.332486575E-01
 1.500000000E+00 1.000000000E+00 7.466853964E-01
 1.000000000E+00 1.000000000E+00 7.762462027E-01
 5.000000000E-01 1.000000000E+00 7.769827993E-01
 1.733724275E-12 1.000000000E+00 7.309141171E-01
 6.904275389E-01 -2.620859440E-02 6.764199886E-01
 8.036688868E-01 -1.120259783E-02 6.200938702E-01
 5.940638072E-01 -3.718880625E-02 7.363930520E-01
 9.022064894E-01 -7.373527070E-03 5.909629568E-01
 2.696716109E-01 -5.365333078E-02 8.796159147E-01
 7.037072502E-01 6.099875454E-02 9.241579674E-01
 2.777775785E-01 7.564864439E-02 9.457934110E-01
 3.700568920E-01 8.199586383E-02 9.882084597E-01
 9.081452840E-01 3.100193906E-02 7.514351129E-01
 7.987484206E-01 5.201688384E-02 8.456843937E-01
 3.872969152E-01 -5.238580852E-02 9.082616388E-01
 4.955957765E-01 -4.891469421E-02 8.239489550E-01
 5.632345694E-01 7.642845214E-02 1.054274087E+00
 4.673882058E-01 8.223952282E-02 1.029352214E+00
 1.788711757E+00 -5.285674426E-01 7.259517844E-01
 1.780734034E+00 6.794965915E-01 7.460749350E-01
 3.031180769E+00 2.156814533E-01 7.379448214E-01
 7.363150123E-01 -5.580705202E-01 7.241407704E-01
 7.459166548E-01 5.295666729E-01 8.409986764E-01
 6.321620604E-01 7.203905841E-02 9.976159969E-01
 2.604143725E-01 6.850746456E-01 7.803445890E-01
 1.191505383E-01 6.126471931E-02 8.468816252E-01
 1.801605793E-01 6.916942157E-02 8.981969127E-01
 2.734836174E+00 -5.327036722E-01 7.326135044E-01
 1.164807485E+00 7.020778672E-01 7.732144101E-01
 9.868004562E-01 3.442991964E-01 7.643937068E-01
 1.260137418E+00 -5.876845627E-01 7.103835016E-01
 1.536405583E+00 -2.769596643E-01 7.272471785E-01
 2.500000000E-01 -5.669872981E-01 7.521396224E-01
 6.966890708E-02 -3.486962396E-02 8.017592753E-01
 1.258361363E-01 -4.546292622E-02 8.230454914E-01
 1.862731987E-01 -4.844361517E-02 8.445089781E-01
 2.240986130E+00 -5.768362053E-01 7.297356404E-01
 2.025800561E+00 -1.912870026E-01 7.347380397E-01
 2.420144149E+00 -1.843461757E-01 7.367718084E-01
 2.184582768E+00 1.581302183E-01 7.405857894E-01
 1.777443727E+00 1.256173575E-01 7.372146250E-01
 -2.134206590E-01 -2.663717560E-01 6.868214082E-01
 -1.552216982E-01 -6.175116454E-01 7.140493164E-01
 -2.547602765E-01 2.393773695E-01 6.812792148E-01
 -9.884559371E-02 6.227584172E-01 7.272319178E-01
 2.467061380E-02 3.303771223E-01 7.365924365E-01
 5.765151973E-02 4.283861280E-02 7.638353538E-01
 2.239432449E+00 5.591938336E-01 7.403196050E-01
 2.746072724E+00 5.968497587E-01 7.353414133E-01
 -2.411144747E-01 -1.961178415E-03 6.634250209E-01
 -1.261500192E-01 -1.255860236E-01 6.551838074E-01
 2.405366205E-02 -3.868125020E-01 7.267935420E-01
 2.817494707E-01 -2.949681200E-01 8.075940937E-01
 3.350091189E-01 -5.644675279E-02 9.029412192E-01
 -1.357736912E-01 1.111647732E-01 6.479256577E-01
 -1.013247954E-01 3.893400947E-03 6.070212932E-01
 -6.032138664E-02 -6.640839616E-02 6.167765333E-01
 3.817545734E-02 -2.499289064E-02 7.810921995E-01
 2.010833061E-02 -1.781652553E-02 7.554465915E-01
 -2.702413321E-02 -1.422549479E-01 6.766895612E-01
 5.655789205E-03 -9.192750697E-02 6.903078527E-01
 5.067480684E-02 -1.656024555E-01 7.411338252E-01
 7.355845013E-02 -1.010275324E-01 7.799844240E-01
 1.271933878E-01 -1.573880646E-01 7.962436799E-01
 -1.866049828E-02 -3.986730470E-02 5.792886601E-01
 -4.921792352E-02 -1.085416358E-02 5.287860796E-01
 1.302601923E-01 -1.015412765E-01 8.163518852E-01
 1.890592101E-01 -1.252218542E-01 8.321038158E-01
 2.313917499E-01 -5.389875810E-02 8.627970667E-01
 1.881729908E-01 -2.262203341E-01 8.055438177E-01
 2.586350763E-01 -1.782751911E-01 8.379150521E-01
 3.952211515E-01 -2.193957863E-01 8.299231948E-01
 4.374838720E-01 -5.372098446E-02 8.785400291E-01
 4.143180570E-01 -5.578737737E-02 8.960202778E-01
 4.057914522E-01 -3.707458463E-01 7.906402125E-01
 4.978062682E-01 -2.486610304E-01 7.920973212E-01
 5.471639317E-01 -4.746346456E-02 7.758345116E-01
 4.600457626E-01 -1.650225981E-01 8.261751531E-01
 5.656119532E-01 -1.740077425E-01 7.682195791E-01
 6.165730615E-01 -2.764219046E-01 7.478462761E-01
 6.644619849E-01 -1.770314030E-01 7.236560681E-01
 7.574503044E-01 -1.592673659E-02 6.410142296E-01
 7.303352290E-01 -2.278748710E-02 6.566010740E-01
 6.399656316E-01 -3.039096631E-02 7.051665358E-01
 7.189812788E-01 -2.648861896E-01 7.143178892E-01
 7.512755320E-01 -1.725776093E-01 6.922609608E-01
 9.649537409E-01 -1.067626467E-02 5.993151031E-01
 8.540319522E-01 -1.215677582E-02 6.033536439E-01
 9.424204722E-01 -5.792610647E-03 5.920518041E-01
 8.795826657E-01 -8.617516579E-03 5.950470877E-01
 9.252193165E-01 -6.462056894E-03 5.903462072E-01
 8.354596687E-01 -2.754311522E-01 6.927589729E-01
 9.215425454E-01 -1.698033149E-01 6.664540399E-01
 9.575738121E-01 -2.838340524E-01 6.877783567E-01
 1.023461706E+00 -1.751413621E-01 6.766325620E-01
 8.400009216E-01 -9.881838280E-02 6.498418275E-01
 3.640176148E-01 -1.407852526E-01 8.686242086E-01
 7.288109416E-01 -1.030689702E-01 6.853777820E-01
 9.690871501E-01 -1.061411010E-01 6.519632214E-01
 1.063042672E+00 -8.677938366E-02 6.729499816E-01
 1.121314610E+00 -1.716666013E-01 6.950120727E-01
 1.157386908E+00 -6.381051470E-02 6.938129130E-01
 1.216442716E+00 -1.572882864E-01 7.077250815E-01
 1.269473146E+00 -2.643315306E-02 7.125038145E-01
 1.172870268E+00 6.307485511E-02 7.054936743E-01
 1.332253001E+00 1.263729582E-01 7.224833063E-01
 6.087736192E-01 -1.188783633E-01 7.430932860E-01
 5.567030276E-01 -1.102697670E-01 7.753847187E-01
 1.488984027E+00 -2.532831336E-02 7.261432228E-01
 1.005120849E+00 -5.931736725E-02 6.459801237E-01
 4.293077776E-01 -1.110135856E-01 8.624208954E-01
 1.172198118E+00 2.264904406E-01 7.263909515E-01
 1.043355725E+00 1.559967695E-01 7.140053359E-01
 9.504592831E-01 2.252915615E-02 7.075573196E-01
 8.954359382E-01 2.060070611E-01 7.769947299E-01
 8.475982219E-01 3.925418816E-02 8.081035647E-01
 8.732839329E-01 3.457473925E-02 7.896297533E-01
 1.364820471E+00 2.995299395E-01 7.401933089E-01
 1.180643098E+00 -3.136991855E-01 7.066050977E-01
 2.498032938E-01 -1.077024611E-01 8.608804216E-01
 1.078303317E+00 7.196393089E-02 6.978069569E-01
 5.339995740E-01 -3.661486346E-01 7.676550733E-01
 5.854555620E-01 -7.563150914E-02 7.531778533E-01
 5.719734294E-01 -3.946039111E-02 7.526979940E-01
 6.281786457E-01 -7.070026112E-02 7.258814913E-01
 6.589309480E-01 -1.077804379E-01 7.158684507E-01
 6.698274238E-01 -6.926776621E-02 7.034176872E-01
 6.650540480E-01 -2.950164307E-02 6.911462765E-01
 2.119744185E-01 -8.679598478E-02 8.546664671E-01
 2.082064788E-01 -5.033748811E-02 8.529927302E-01
 9.522656353E-02 -2.558857072E-01 7.616397563E-01
 3.037261666E-01 -1.325374513E-01 8.664100938E-01
 2.883364914E-01 -9.183116017E-02 8.810682212E-01
 3.069222438E-01 -5.570417518E-02 8.935304855E-01
 3.299319225E-01 -9.489750465E-02 8.896388824E-01
 3.700556987E-01 -9.088911515E-02 8.956031298E-01
 3.561994544E-01 -5.547981673E-02 9.085747480E-01
 4.194688508E-02 -6.597124023E-02 7.576054059E-01
 5.216659724E-02 -3.090584778E-02 7.912119205E-01
 1.271983871E-02 -5.061838958E-02 6.907143417E-01
 3.109353979E+00 -2.612856566E-01 7.363691886E-01
 4.025035192E-01 -8.653320809E-02 8.897684753E-01
 4.798551469E-04 -3.096651924E-02 6.313246123E-01
 3.184888373E-03 -8.643335063E-03 6.128993809E-01
 9.271996876E-03 -1.123453836E-02 6.991506489E-01
 6.067219186E-01 -3.400422900E-02 7.265327093E-01
 6.037115131E-01 -5.033051233E-02 7.357257161E-01
 5.311308791E-01 -5.053162275E-01 7.558519603E-01
 3.987224715E-01 -5.508894334E-02 9.034272513E-01
 9.841415241E-02 -7.199134930E-02 8.107627368E-01
 8.856164954E-02 -3.588434334E-02 8.084843779E-01
 7.099550149E-02 -6.491866151E-02 7.961905125E-01
 7.057153672E-01 -2.502670814E-02 6.691862744E-01
 7.015408677E-01 -3.793349065E-02 6.772536582E-01
 7.185160196E-01 -3.542685135E-02 6.682895100E-01
 7.408963110E-01 -3.998014243E-02 6.608031994E-01
 7.095722431E-01 -6.129703048E-02 6.819941949E-01
 5.529118873E-01 -7.326473657E-02 7.774506805E-01
 5.193764613E-01 -4.673716099E-02 8.005557247E-01
 5.145222713E-01 -8.621512894E-02 8.051695126E-01
 5.125640817E-01 -1.357161779E-01 8.017257539E-01
 4.752081179E-01 -1.093389973E-01 8.329880737E-01
 4.842727852E-01 -7.738362924E-02 8.333706597E-01
 4.590295407E-01 -5.050387410E-02 8.591630636E-01
 4.552914208E-01 -8.288775303E-02 8.564049435E-01
 6.241659379E-01 -3.814303639E-02 7.178609158E-01
 4.809718712E-01 -4.963732923E-02 8.385311854E-01
 -3.277329650E-02 -2.237522320E-01 7.011342044E-01
 6.805410219E-01 -4.253974905E-02 6.885629186E-01
 1.060371026E-01 -5.093242614E-02 8.176768495E-01
 1.278616628E-01 -6.779443975E-02 8.264232629E-01
 1.609139093E-01 -5.064501878E-02 8.363313265E-01
 1.591032917E-01 -7.799056082E-02 8.363099496E-01
 1.428804573E-01 -5.425680758E-02 8.324049405E-01
 4.276966606E-01 -7.168471725E-02 8.811792002E-01
 1.127923208E-01 -3.886032738E-02 8.165915619E-01
 2.838379111E-01 -5.477627102E-02 8.852166817E-01
 2.787427487E-01 -6.665254834E-02 8.838912239E-01
 2.611571859E-01 -7.120015908E-02 8.757936127E-01
 2.946322462E-01 -6.618996164E-02 8.888342356E-01
 3.213107200E-01 -5.684009745E-02 8.985825368E-01
 3.119777117E-01 -7.277709182E-02 8.927629251E-01
 1.089013702E+00 -1.438814653E-02 6.785933003E-01
 1.041226117E+00 -2.594601368E-02 6.492097107E-01
 1.044222851E+00 2.444374228E-02 6.696477380E-01
 1.008158404E+00 8.160896268E-02 6.998680389E-01
 9.873567041E-01 1.720871385E-02 6.600006630E-01
 1.007587229E+00 2.842799493E-02 6.588763846E-01
 9.608538136E-01 1.495579748E-01 7.383104254E-01
 9.425590546E-01 8.286894058E-02 7.354408165E-01
 8.955496377E-01 1.240576454E-01 7.737320054E-01
 7.971727112E-01 1.817730476E-01 8.331267784E-01
 7.511362284E-01 5.760138008E-02 8.823232163E-01
 7.746485503E-01 5.481818074E-02 8.647754761E-01
 8.205292395E-01 2.817591571E-01 8.168706004E-01
 7.176079590E-01 2.238223565E-01 8.825029510E-01
 7.338507292E-01 1.407174390E-01 8.848120418E-01
 6.569287294E-01 1.688228887E-01 9.416093279E-01
 6.677237948E-01 6.446978316E-02 9.630990775E-01
 6.398877877E-01 2.390408900E-01 9.338160258E-01
 5.694418667E-01 1.916829658E-01 9.778226556E-01
 5.144180855E-01 7.936309309E-02 1.048417139E+00
 4.979425155E-01 8.244216699E-02 1.041159238E+00
 5.394811491E-01 8.067097327E-02 1.053214100E+00
 5.475315587E-01 2.847099115E-01 9.330257673E-01
 4.688839915E-01 2.193593531E-01 9.549614226E-01
 4.150595378E-01 8.451182378E-02 1.007204910E+00
 4.426661023E-01 8.093457628E-02 1.021004136E+00
 4.395440242E-01 3.290969452E-01 9.058907829E-01
 3.583919857E-01 2.450085106E-01 9.133660496E-01
 3.995475450E-01 1.675066185E-01 9.587906145E-01
 3.309610696E-01 8.190135921E-02 9.694676058E-01
 3.065961820E-01 8.100696554E-02 9.563704263E-01
 3.089403271E-01 1.788732813E-01 9.149289382E-01
 2.293574103E-01 7.279053897E-02 9.221800785E-01
 2.031587277E-01 7.127565977E-02 9.106760038E-01
 2.709882616E-01 2.324935531E-01 8.743163142E-01
 2.147005908E-01 1.799292719E-01 8.643393231E-01
 6.078667335E-01 1.347925467E-01 9.943369776E-01
 5.990321476E-01 7.338074722E-02 1.030503267E+00
 5.398504577E-01 1.382541071E-01 1.014746189E+00
 7.948218625E-01 1.118989591E-01 8.432397794E-01
 6.865657049E-01 1.196825449E-01 9.302695534E-01
 4.586874435E-01 1.529007814E-01 9.875325911E-01
 3.501205013E-01 1.344751796E-01 9.549737767E-01
 2.649863532E-01 1.434229003E-01 9.088997602E-01
 5.657346439E-01 4.258241442E-01 8.855564587E-01
 3.074004142E-01 3.318464581E-01 8.579130906E-01
 7.196966251E-01 1.003234725E-01 9.047194999E-01
 7.246369153E-01 5.831219118E-02 9.058096787E-01
 6.977181735E-01 3.373954901E-01 8.760234986E-01
 8.951920376E-01 7.632900372E-02 7.721091805E-01
 8.474019475E-01 9.297338215E-02 8.083168943E-01
 4.198326454E-01 1.256526336E-01 9.895995545E-01
 3.840304931E-01 1.162010385E-01 9.788520474E-01
 3.923033896E-01 8.280218586E-02 9.980840424E-01
 1.672968953E-01 2.624257456E-01 8.123873589E-01
 1.005972015E-01 1.806699720E-01 7.655552833E-01
 1.735852841E-01 1.320005084E-01 8.645253348E-01
 1.780208228E-01 4.481240174E-01 7.844684460E-01
 -4.287594806E-02 2.100062137E-01 6.836869538E-01
 2.258865991E-02 1.235771278E-01 6.862619873E-01
 1.768527414E-02 2.716627805E-02 6.073386906E-01
 3.256511107E-02 3.289972641E-02 6.828925792E-01
 9.040324959E-02 5.733842787E-02 8.140500712E-01
 -4.993196359E-02 9.197898899E-02 6.084316607E-01
 -3.944679840E-02 3.529910581E-02 5.337574944E-01
 -1.493205434E-03 6.817176316E-02 6.093978577E-01
 8.878989172E-02 1.125863277E-01 7.882402156E-01
 1.369938901E-01 1.036167981E-01 8.509201023E-01
 1.551080084E-01 6.201043658E-02 8.824127235E-01
 4.318249125E-02 8.493759985E-02 7.235169346E-01
 5.738448249E-01 1.136863815E-01 1.026062842E+00
 7.360127631E-01 6.050723637E-02 8.946022913E-01
 7.468593414E-01 7.245091131E-02 8.848806718E-01
 7.632504298E-01 6.717009537E-02 8.720596021E-01
 7.862412640E-01 7.040411278E-02 8.555467705E-01
 8.129953071E-01 7.069924265E-02 8.345424773E-01
 8.226250167E-01 4.292123048E-02 8.274920929E-01
 7.548940832E-01 9.291072260E-02 8.767070039E-01
 6.907187202E-01 8.917878144E-02 9.325487655E-01
 6.612404529E-01 9.557907113E-02 9.600668876E-01
 6.768449660E-01 6.358373076E-02 9.534307416E-01
 8.654715410E-01 6.756135389E-02 7.976471071E-01
 6.564990073E-01 6.679727223E-02 9.693227069E-01
 6.450302994E-01 6.984690057E-02 9.827475982E-01
 6.409855702E-01 8.486863378E-02 9.830939046E-01
 6.232891314E-01 8.352533793E-02 1.002523069E+00
 6.316546756E-01 1.026741114E-01 9.874154221E-01
 8.123456403E-01 4.785637343E-02 8.356018582E-01
 1.748260099E-01 -4.650306162E-02 8.401224997E-01
 5.599910255E-01 -4.003890317E-02 7.621793821E-01
 8.790691890E-01 -4.254123943E-01 7.025400565E-01
 1.052005238E+00 -4.186026856E-01 6.998662125E-01
 3.770674229E-01 -5.371535063E-02 9.098514493E-01
 3.846150040E-01 -6.738659953E-02 9.041739283E-01
 3.666905339E-01 -6.597673406E-02 9.077158897E-01
 3.476307514E-01 -6.982196685E-02 9.034577273E-01
 3.554336960E-01 8.228539137E-02 9.806779776E-01
 3.638990528E-01 1.008689995E-01 9.785392323E-01
 3.411077375E-01 9.802314107E-02 9.683696891E-01
 3.132994107E-01 1.216766690E-01 9.433479184E-01
 3.810138928E-01 9.419187272E-02 9.899290553E-01
 4.027758329E-01 9.813952973E-02 9.961274391E-01
 5.320759288E-01 -4.378776733E-02 7.883530196E-01
 5.290721306E-01 -6.006587060E-02 7.946331126E-01
 5.064664357E-01 -6.169074571E-02 8.150419253E-01
 1.770279344E-01 -6.171017901E-02 8.441188461E-01
 -8.505237565E-03 3.737018913E-02 5.198111951E-01
 8.729665906E-03 1.643034286E-02 4.811491199E-01
 7.468315906E-01 -6.999764414E-02 6.700327635E-01
 7.688498746E-01 -5.254102350E-02 6.550963974E-01
 7.809046519E-01 -1.424930620E-02 6.309739118E-01
 7.809137572E-01 -9.206037790E-02 6.637200629E-01
 7.700333323E-01 -1.754993747E-02 6.369078505E-01
 7.919067101E-01 -1.532518188E-02 6.264779554E-01
 8.031420869E-01 -2.671415718E-02 6.297279024E-01
 8.307515174E-01 -1.499444932E-02 6.127197110E-01
 8.214491955E-01 -6.759347193E-02 6.431292744E-01
 8.601213339E-01 -5.643952295E-02 6.289090173E-01
 8.839594651E-01 -1.046504107E-01 6.468217377E-01
 9.079094066E-01 -5.812761509E-02 6.248808646E-01
 8.252962106E-01 -3.803170623E-02 6.279906796E-01
 8.850206832E-01 -3.594199575E-02 6.129679274E-01
 9.557050484E-01 -5.322764713E-02 6.263076777E-01
 9.844789547E-01 -3.657778259E-02 6.222335226E-01
 3.811939477E-01 8.006408209E-02 9.946598000E-01
 3.429764442E-01 8.025540250E-02 9.756206748E-01
 4.257758810E-01 -5.278914727E-02 8.887627711E-01
 8.846204491E-01 3.369151127E-02 7.760868493E-01
 8.784717618E-01 4.988647213E-02 7.852583932E-01
 8.971322352E-01 4.465002220E-02 7.650964169E-01
 9.200150565E-01 4.594331287E-02 7.430653889E-01
 9.768923099E-01 4.616110884E-02 6.913576611E-01
 2.793512052E-01 1.105891569E-01 9.341511095E-01
 2.487924224E-01 1.016722710E-01 9.232615996E-01
 2.563677301E-01 7.861636777E-02 9.345268317E-01
 3.182084004E-01 9.431904711E-02 9.597195001E-01
 4.531144060E-01 1.170674874E-01 1.006854151E+00
 4.956521323E-01 1.231570061E-01 1.015642837E+00
 5.065031784E-01 1.650708427E-01 9.929171938E-01
 8.373133210E-01 6.666716963E-02 8.166049740E-01
 6.514243747E-01 -2.880644756E-02 6.975374837E-01
 1.006430979E+00 -2.393405592E-02 6.262008733E-01
 6.216345915E-01 7.137884977E-02 1.009303197E+00
 6.019970396E-01 9.273005131E-02 1.017993633E+00
 5.808423497E-01 9.057698392E-02 1.037769261E+00
 5.666391687E-01 -5.401759526E-02 7.616364193E-01
 7.605673996E-01 -2.969784328E-02 6.468441211E-01
 7.819701367E-01 -2.935984984E-02 6.391606096E-01
 2.954467482E-01 -5.268916375E-02 8.894089114E-01
 6.720781612E-01 7.646042586E-02 9.543422934E-01
 2.592536884E-01 -5.205618829E-02 8.748723384E-01
 2.360603138E-01 -7.346667105E-02 8.665542058E-01
 6.505374764E-01 -4.513462838E-02 7.051902362E-01
 1.362610542E-02 4.874167405E-02 6.126746427E-01
 7.177282989E-01 -2.101385225E-02 6.622335939E-01
 2.470596322E-01 -5.551761008E-02 8.697345266E-01
 6.108864774E-01 7.446964471E-02 1.018781080E+00
 9.072509676E-01 -3.006427395E-02 6.074856382E-01
 3.188397621E-01 7.883127545E-02 9.631262532E-01
 7.860518378E-01 5.143427655E-02 8.546582586E-01
 -2.231705884E-02 1.698998070E-02 4.358710445E-01
 -2.635791676E-02 -1.027457317E-02 4.631111062E-01
 -1.103930595E-02 -1.791750469E-02 5.179325939E-01
 5.249340501E-01 1.101637864E-01 1.032046036E+00
 8.157670122E-01 -1.565015196E-02 6.184652412E-01
 8.452466439E-01 -2.693274651E-02 6.155320077E-01
 8.646380719E-01 -2.872823709E-02 6.115334374E-01
 9.337334966E-01 -4.481484400E-03 5.892389280E-01
 9.345993118E-01 -1.519927247E-02 5.971595093E-01
 9.500342018E-01 -2.184929456E-02 6.047933882E-01
 4.040568515E-01 8.151016227E-02 1.003006822E+00
 9.202008373E-01 2.701031412E-02 7.388433756E-01
 9.339323601E-01 2.794281719E-02 7.248872714E-01
 9.469499145E-01 4.392193266E-02 7.197869603E-01
 4.694056194E-01 -4.807294014E-02 8.493623594E-01
 4.688393830E-01 -6.209524967E-02 8.486066902E-01
 4.497486422E-01 -6.245542273E-02 8.666289585E-01
 3.456969767E-01 -5.405230316E-02 9.060476107E-01
 4.309042986E-01 8.483865995E-02 1.014241116E+00
 4.282017074E-01 1.014715450E-01 1.005449249E+00
 8.423561689E-01 -1.048311044E-02 6.055249333E-01
 3.188094663E-02 5.843744216E-02 6.859162173E-01
 4.183372521E-02 4.480639149E-02 7.202152565E-01
 5.954242435E-02 6.480778924E-02 7.565671036E-01
 8.493635753E-02 8.078051201E-02 7.964605970E-01
 1.042143734E-01 6.453271124E-02 8.282512594E-01
 4.485178147E-01 -4.957252615E-02 8.693459790E-01
 6.782050143E-01 -2.577939941E-02 6.825096644E-01
 2.675969210E-01 7.541277588E-02 9.411461329E-01
 4.531173709E-01 8.077217364E-02 1.026069027E+00
 5.842757636E-01 -4.944904909E-02 7.477936494E-01
 6.903841910E-01 6.758393646E-02 9.364165089E-01
 7.403977309E-02 5.440616510E-02 7.922052432E-01
 1.960965250E-01 -6.064077196E-02 8.512358992E-01
 2.175712709E-01 7.439561418E-02 9.165042316E-01
 2.069062088E-01 8.593178011E-02 9.081536074E-01
 1.904262827E-01 8.220107100E-02 9.016647772E-01
 1.691736936E-01 8.533554378E-02 8.849093215E-01
 1.959033924E-01 1.057364379E-01 8.950746466E-01
 2.413636644E-01 7.895648123E-02 9.270697620E-01
 1.016250839E-01 5.312596194E-02 8.279518270E-01
 8.959158561E-01 3.044793177E-02 7.634257359E-01
 2.562924199E+00 2.047986607E-01 7.401343860E-01
 9.142156375E-01 -7.280820020E-03 5.903310428E-01
 9.207862429E-01 -1.879459556E-02 5.990989961E-01
 8.928027576E-01 -1.908771662E-02 6.003221806E-01
 9.299683108E-01 -3.337095495E-02 6.098689832E-01
 1.028489477E-01 -3.658570409E-02 8.127407100E-01