TITLE     = "Visualization of the solution"
VARIABLES = "x"
"y"
"Mach"
ZONE T="Zone"
 STRANDID=0, SOLUTIONTIME=0
 Nodes=687, Elements=1159, ZONETYPE=FEQuadrilateral
 DATAPACKING=POINT
 DT=(DOUBLE DOUBLE DOUBLE )
 1.000222206E+00 5.197346909E-04 5.766248265E-01
 9.882627726E-01 2.787425881E-03 6.303554956E-01
 9.758653045E-01 5.051644519E-03 6.566217456E-01
 9.603568316E-01 7.948197424E-03 6.890621158E-01
 9.459219575E-01 1.059660781E-02 7.034269310E-01
 9.315793514E-01 1.314911526E-02 7.230318302E-01
 9.200451970E-01 1.526934002E-02 7.388414294E-01
 9.077410102E-01 1.744696312E-02 7.533334144E-01
 8.957872391E-01 1.951315254E-02 7.672251388E-01
 8.837873340E-01 2.156206965E-02 7.817195995E-01
 8.713268638E-01 2.356851846E-02 7.916109383E-01
 8.589321375E-01 2.547211386E-02 7.994950266E-01
 8.465032578E-01 2.734952420E-02 8.067301984E-01
 8.350027204E-01 2.899373882E-02 8.133778066E-01
 8.233680725E-01 3.064790368E-02 8.202486441E-01
 8.105875850E-01 3.239451349E-02 8.272428536E-01
 7.977853417E-01 3.412235901E-02 8.334156992E-01
 7.852978110E-01 3.573587164E-02 8.393777287E-01
 7.729192376E-01 3.732869774E-02 8.471004941E-01
 7.609835863E-01 3.881996498E-02 8.547740356E-01
 7.477282286E-01 4.041794688E-02 8.617582516E-01
 7.340068221E-01 4.202259332E-02 8.682471283E-01
 7.229298949E-01 4.327049106E-02 8.761168877E-01
 7.116965652E-01 4.454166070E-02 8.841033217E-01
 6.998364329E-01 4.580881447E-02 8.899089907E-01
 6.862647533E-01 4.720607400E-02 8.967343837E-01
 6.731083393E-01 4.853437841E-02 9.054462470E-01
 6.625662446E-01 4.954028502E-02 9.129655592E-01
 6.508176327E-01 5.063548312E-02 9.216143872E-01
 6.391634345E-01 5.166965351E-02 9.305565447E-01
 6.272804141E-01 5.267939344E-02 9.372981194E-01
 6.155884862E-01 5.358933657E-02 9.416008142E-01
 6.047174931E-01 5.439416319E-02 9.479586890E-01
 5.923008919E-01 5.528221652E-02 9.557845759E-01
 5.806558132E-01 5.604550615E-02 9.615263754E-01
 5.673506260E-01 5.684375763E-02 9.671342023E-01
 5.549030304E-01 5.753586441E-02 9.728066370E-01
 5.425975919E-01 5.814142153E-02 9.760755957E-01
 5.314991474E-01 5.861636996E-02 9.761782265E-01
 5.197930932E-01 5.905900523E-02 9.750742055E-01
 5.072667003E-01 5.946543440E-02 9.748761112E-01
 4.961787760E-01 5.977107584E-02 9.745647093E-01
 4.832676351E-01 6.006476656E-02 9.735215126E-01
 4.702846706E-01 6.028093025E-02 9.714340334E-01
 4.566190541E-01 6.043153256E-02 9.691844703E-01
 4.434009194E-01 6.050465629E-02 9.669617068E-01
 4.307985604E-01 6.050519645E-02 9.639561330E-01
 4.182615578E-01 6.043800712E-02 9.601454364E-01
 4.061393440E-01 6.030779704E-02 9.563368249E-01
 3.939068913E-01 6.011813134E-02 9.530586412E-01
 3.819698989E-01 5.988267064E-02 9.492728954E-01
 3.706741929E-01 5.959340185E-02 9.443812766E-01
 3.577204645E-01 5.920834467E-02 9.401683757E-01
 3.455761969E-01 5.879158527E-02 9.365956020E-01
 3.330765367E-01 5.829469487E-02 9.328353644E-01
 3.223374188E-01 5.782339349E-02 9.282950843E-01
 3.098349273E-01 5.720055848E-02 9.229228540E-01
 2.969856858E-01 5.650141090E-02 9.173686292E-01
 2.833126783E-01 5.568066984E-02 9.123934782E-01
 2.709662914E-01 5.488912761E-02 9.079913996E-01
 2.591433823E-01 5.405557528E-02 9.030552514E-01
 2.467270792E-01 5.312460288E-02 8.984552970E-01
 2.343045622E-01 5.212406442E-02 8.933929768E-01
 2.219526321E-01 5.106312037E-02 8.884079219E-01
 2.101476490E-01 4.998055100E-02 8.822041464E-01
 1.982019991E-01 4.880919680E-02 8.755749380E-01
 1.856353730E-01 4.750872403E-02 8.700537423E-01
 1.734561920E-01 4.617781192E-02 8.645736427E-01
 1.617728621E-01 4.481349885E-02 8.583485187E-01
 1.494972855E-01 4.329829291E-02 8.518653560E-01
 1.384317577E-01 4.185166210E-02 8.447773521E-01
 1.265244931E-01 4.019637406E-02 8.388706994E-01
 1.148606837E-01 3.848203272E-02 8.341652159E-01
 1.038916185E-01 3.676679730E-02 8.300348152E-01
 9.386567026E-02 3.510260209E-02 8.221498951E-01
 8.248773962E-02 3.308774531E-02 8.103504340E-01
 7.073084265E-02 3.083951026E-02 8.013201818E-01
 6.075193733E-02 2.877219580E-02 7.958809794E-01
 5.108400062E-02 2.659187652E-02 7.835003269E-01
 4.246779904E-02 2.446245961E-02 7.707215133E-01
 3.502665833E-02 2.245415933E-02 7.551621507E-01
 2.854288928E-02 2.052106336E-02 7.336426695E-01
 2.303391881E-02 1.870937459E-02 7.219193990E-01
 1.904232800E-02 1.725870743E-02 7.080384608E-01
 1.531893667E-02 1.577061415E-02 6.833276237E-01
 1.248714607E-02 1.452636532E-02 6.611197171E-01
 9.914300404E-03 1.327992417E-02 6.445397911E-01
 8.058259264E-03 1.228428353E-02 6.230112724E-01
 6.417747121E-03 1.132463384E-02 6.040581545E-01
 4.913839046E-03 1.034919545E-02 5.586514345E-01
 2.967383014E-03 8.889930323E-03 5.107169187E-01
 1.308776089E-03 7.385944948E-03 4.835513187E-01
 -2.874856546E-05 5.829208065E-03 4.227853847E-01
 -1.273307949E-03 3.667640733E-03 2.898994107E-01
 -1.781918108E-03 1.988589298E-03 1.668934465E-01
 -1.914904802E-03 5.930981133E-04 1.424140700E-01
 -1.770866103E-03 -9.604247171E-04 4.427567274E-02
 -1.288264873E-03 -2.641445259E-03 1.569443792E-01
 -3.200775536E-04 -4.601141438E-03 1.900363858E-01
 1.143375295E-03 -6.650630385E-03 3.225788136E-01
 3.146681935E-03 -8.791473694E-03 4.017162545E-01
 4.999937955E-03 -1.042534504E-02 4.766663210E-01
 7.102591917E-03 -1.203590352E-02 5.268668964E-01
 8.777589537E-03 -1.318439376E-02 5.685544554E-01
 1.084931195E-02 -1.448806375E-02 5.976543468E-01
 1.321531273E-02 -1.584449597E-02 6.259391745E-01
 1.646405086E-02 -1.753504202E-02 6.531757754E-01
 1.946469955E-02 -1.896140538E-02 6.762974502E-01
 2.326745167E-02 -2.060596831E-02 7.009123381E-01
 2.851442806E-02 -2.267255448E-02 7.237063903E-01
 3.414282575E-02 -2.466280386E-02 7.436035977E-01
 4.101331159E-02 -2.685322240E-02 7.620962450E-01
 4.843905941E-02 -2.899602801E-02 7.790069106E-01
 5.715008080E-02 -3.127866983E-02 7.927274571E-01
 6.584797800E-02 -3.336001188E-02 8.062436409E-01
 7.588806003E-02 -3.555603698E-02 8.174515894E-01
 8.558706194E-02 -3.751323372E-02 8.291430446E-01
 9.584779292E-02 -3.942935541E-02 8.399145755E-01
 1.067151278E-01 -4.132618755E-02 8.509586062E-01
 1.182078943E-01 -4.319223389E-02 8.596320363E-01
 1.298148036E-01 -4.494300485E-02 8.661580584E-01
 1.405999511E-01 -4.647067189E-02 8.737989764E-01
 1.517918110E-01 -4.796354100E-02 8.803081991E-01
 1.636817306E-01 -4.944381863E-02 8.878415293E-01
 1.752340794E-01 -5.079464242E-02 8.956787996E-01
 1.872284859E-01 -5.210940912E-02 9.038556815E-01
 1.979960650E-01 -5.320500210E-02 9.107196275E-01
 2.092537582E-01 -5.428335816E-02 9.185449666E-01
 2.214358896E-01 -5.535328761E-02 9.259963809E-01
 2.339251786E-01 -5.635475367E-02 9.335222235E-01
 2.463597208E-01 -5.727333203E-02 9.418355838E-01
 2.587901950E-01 -5.808827654E-02 9.511203214E-01
 2.701440454E-01 -5.874600261E-02 9.603921171E-01
 2.828457355E-01 -5.938556790E-02 9.685387950E-01
 2.954375148E-01 -5.991104618E-02 9.767765620E-01
 3.082332313E-01 -6.034358591E-02 9.861860613E-01
 3.200947344E-01 -6.063760072E-02 9.952879910E-01
 3.326385319E-01 -6.083387509E-02 1.003162763E+00
 3.434943855E-01 -6.089919433E-02 1.009053497E+00
 3.550603986E-01 -6.087438017E-02 1.012316753E+00
 3.660606742E-01 -6.074748933E-02 1.014498860E+00
 3.771045804E-01 -6.054121256E-02 1.015600161E+00
 3.887957335E-01 -6.019425020E-02 1.013741117E+00
 4.017899036E-01 -5.968542770E-02 1.009202675E+00
 4.141928554E-01 -5.904928967E-02 9.999102071E-01
 4.271833599E-01 -5.826096982E-02 9.866549480E-01
 4.396087825E-01 -5.736718699E-02 9.719115939E-01
 4.518512487E-01 -5.638299882E-02 9.548422934E-01
 4.640544355E-01 -5.528475717E-02 9.357620668E-01
 4.765572250E-01 -5.404887348E-02 9.157834520E-01
 4.884924889E-01 -5.278240144E-02 8.994597832E-01
 5.008891821E-01 -5.137387291E-02 8.823519233E-01
 5.144221783E-01 -4.974277690E-02 8.649544651E-01
 5.278429389E-01 -4.806824774E-02 8.488866284E-01
 5.409459472E-01 -4.634248838E-02 8.336092122E-01
 5.537731647E-01 -4.459132999E-02 8.185690809E-01
 5.669770837E-01 -4.274785891E-02 8.039467886E-01
 5.799728632E-01 -4.091870040E-02 7.921723737E-01
 5.924030542E-01 -3.913431987E-02 7.805330499E-01
 6.050061584E-01 -3.729844466E-02 7.688113570E-01
 6.189536452E-01 -3.529905528E-02 7.592132454E-01
 6.330152750E-01 -3.322873265E-02 7.480151113E-01
 6.471707821E-01 -3.113619983E-02 7.359507740E-01
 6.603925824E-01 -2.922196127E-02 7.268165444E-01
 6.738974452E-01 -2.724389173E-02 7.186547626E-01
 6.863619685E-01 -2.543637902E-02 7.096020620E-01
 6.986593604E-01 -2.364631370E-02 7.002078266E-01
 7.133222818E-01 -2.157767490E-02 6.917230534E-01
 7.261210680E-01 -1.975189149E-02 6.829814826E-01
 7.382302880E-01 -1.809076406E-02 6.754550233E-01
 7.513664961E-01 -1.631486975E-02 6.693567281E-01
 7.638945580E-01 -1.465795655E-02 6.620386938E-01
 7.770842314E-01 -1.291914750E-02 6.540696885E-01
 7.890241742E-01 -1.141636260E-02 6.458585844E-01
 8.014765978E-01 -9.851501323E-03 6.382873095E-01
 8.130072355E-01 -8.543136530E-03 6.331412702E-01
 8.241868019E-01 -7.257814519E-03 6.275270322E-01
 8.364638090E-01 -5.908407271E-03 6.203264049E-01
 8.489257693E-01 -4.658422433E-03 6.144237992E-01
 8.608885407E-01 -3.518523881E-03 6.082408392E-01
 8.724458814E-01 -2.540166490E-03 6.026806251E-01
 8.837960362E-01 -1.648649923E-03 5.985341699E-01
 8.969425559E-01 -7.831728435E-04 5.952377975E-01
 9.073082209E-01 -2.132413647E-04 5.937578424E-01
 9.180734158E-01 2.715094888E-04 5.925966294E-01
 9.279738069E-01 6.226099795E-04 5.907268378E-01
 9.370488524E-01 8.681035833E-04 5.915648867E-01
 9.494785666E-01 1.070383820E-03 5.908396522E-01
 9.625153542E-01 1.137753949E-03 5.952581979E-01
 9.768121839E-01 1.047205180E-03 5.888624533E-01
 9.889003038E-01 8.269561222E-04 5.989438283E-01
 -5.000000000E-01 -1.000000000E+00 7.122837993E-01
 3.500000000E+00 -1.000000000E+00 7.307811361E-01
 3.500000000E+00 1.000000000E+00 7.286975836E-01
 -5.000000000E-01 1.000000000E+00 7.133204925E-01
 -5.000000000E-01 5.000000000E-01 6.999545122E-01
 -5.000000000E-01 2.752797990E-12 6.883838133E-01
 -5.000000000E-01 -5.000000000E-01 6.995534649E-01
 -9.421907698E-13 -1.000000000E+00 7.223884381E-01
 5.000000000E-01 -1.000000000E+00 7.445054075E-01
 1.000000000E+00 -1.000000000E+00 7.340935956E-01
 1.500000000E+00 -1.000000000E+00 7.230689686E-01
 2.000000000E+00 -1.000000000E+00 7.242491774E-01
 2.500000000E+00 -1.000000000E+00 7.272798222E-01
 3.000000000E+00 -1.000000000E+00 7.288892008E-01
 3.500000000E+00 -5.000000000E-01 7.331698785E-01
 3.500000000E+00 -2.752797990E-12 7.349661885E-01
 3.500000000E+00 5.000000000E-01 7.325204084E-01
 3.000000000E+00 1.000000000E+00 7.269856456E-01
 2.500000000E+00 1.000000000E+00 7.295800940E-01
 2.000000000E+00 1.000000000E+00 7.348703435E-01
 1.500000000E+00 1.000000000E+00 7.468861440E-01
 1.000000000E+00 1.000000000E+00 7.687108681E-01
 5.000000000E-01 1.000000000E+00 7.666718448E-01
 1.733724275E-12 1.000000000E+00 7.279940160E-01
 6.804342831E-01 -3.675533252E-02 7.161094799E-01
 7.787803435E-01 -2.426538738E-02 6.575943872E-01
 9.010599688E-01 -1.040906387E-02 6.016011754E-01
 5.894550429E-01 -5.527299357E-02 7.855002488E-01
 7.074111949E-01 5.715859263E-02 8.855815399E-01
 2.802410457E-01 6.849547565E-02 9.091499466E-01
 2.770684572E-01 -7.133811335E-02 9.603222849E-01
 9.159850916E-01 2.803693192E-02 7.472436415E-01
 8.069508637E-01 4.557288944E-02 8.289144001E-01
 6.131813557E-01 6.745947299E-02 9.415362862E-01
 3.772434840E-01 7.344446775E-02 9.453823992E-01
 4.090232624E-01 -7.150103271E-02 9.974980502E-01
 5.019041865E-01 7.216317949E-02 9.721985310E-01
 1.832068019E+00 -6.054953857E-01 7.270986328E-01
 1.768964283E+00 6.218074739E-01 7.429877803E-01
 3.031170447E+00 2.156864375E-01 7.379884500E-01
 7.852877808E-01 -6.000586216E-01 7.349763674E-01
 4.818494989E-01 -6.826020084E-02 9.074583685E-01
 3.282424302E-01 -6.858327968E-01 7.682214448E-01
 1.266902236E-01 -5.543348262E-02 8.604897403E-01
 1.875741454E-01 -6.518819247E-02 8.993370380E-01
 7.335883248E-01 6.154278668E-01 8.103886205E-01
 2.734860283E+00 -5.326792181E-01 7.332407606E-01
 1.204818106E+00 6.984925560E-01 7.585310187E-01
 9.932716328E-01 3.232820343E-01 7.590333783E-01
 1.268832311E+00 -6.230846593E-01 7.179662459E-01
 1.490219050E+00 -2.479291390E-01 7.262848786E-01
 3.440107429E-01 6.162295479E-01 7.992690369E-01
 1.037662857E-01 5.106533481E-02 8.234758438E-01
 1.674644406E-01 5.835695393E-02 8.602000169E-01
 2.248233294E+00 -5.896249391E-01 7.308397096E-01
 1.981636258E+00 -2.221492960E-01 7.344653680E-01
 2.412903163E+00 -1.884150250E-01 7.372561816E-01
 2.184661339E+00 1.583233571E-01 7.410546314E-01
 1.879717522E+00 8.431307191E-02 7.394345807E-01
 -2.709257963E-01 -2.366281879E-01 6.810580551E-01
 -1.459373611E-01 -6.008643230E-01 7.172936298E-01
 1.243876405E-01 -3.716363892E-01 7.658211963E-01
 -2.682282058E-01 2.171154711E-01 6.806950164E-01
 -1.503694583E-01 6.843025162E-01 7.204591845E-01
 2.903891338E-02 3.286660851E-01 7.338117419E-01
 4.408463953E-02 3.378585993E-02 7.712144966E-01
 2.224478447E+00 5.652393856E-01 7.392982985E-01
 2.743575369E+00 5.978595092E-01 7.357505802E-01
 -2.341609872E-01 -7.021027345E-03 6.610649088E-01
 -1.347305039E-01 1.007467362E-01 6.468809604E-01
 -1.186977879E-01 -1.419629318E-01 6.547489115E-01
 6.854126804E-02 -4.235161848E-02 8.055994628E-01
 4.354972141E-02 -3.636795708E-02 7.588604422E-01
 -7.740846424E-02 -3.192456211E-01 7.023449948E-01
 -6.250844801E-03 -1.780973281E-01 6.930456083E-01
 1.619329490E-01 -2.270121224E-01 8.169792660E-01
 3.485809741E-01 -7.223079103E-02 1.002963961E+00
 3.146101788E-01 -7.297248605E-02 9.837846312E-01
 -3.684557586E-02 -9.764486066E-02 6.233006411E-01
 1.975285795E-02 -2.354893823E-02 6.592431018E-01
 -1.092648431E-01 -2.371804297E-02 6.048130232E-01
 -7.251483279E-02 5.711365925E-02 5.988021993E-01
 3.621973826E-02 -1.066490372E-01 7.197459177E-01
 3.109367401E+00 -2.612640111E-01 7.362524389E-01
 5.946077017E-03 -6.896460381E-02 6.378587659E-01
 -4.041997867E-02 -4.143369762E-02 5.441045823E-01
 -5.259046611E-02 7.663423546E-03 5.301761590E-01
 -3.243403353E-02 4.337103731E-02 5.619702204E-01
 2.442940732E-02 2.374764668E-02 7.272382781E-01
 -4.111264155E-02 1.083432893E-01 6.436793317E-01
 2.756295189E-02 9.241928878E-02 7.140345292E-01
 7.169168788E-02 4.438519645E-02 7.976629526E-01
 1.102697656E-02 1.621189418E-01 7.036356600E-01
 7.276905434E-02 1.350808608E-01 7.641909308E-01
 2.149342711E-01 6.301675130E-02 8.843178310E-01
 2.382291311E-01 6.641571991E-02 8.936527581E-01
 1.906983438E-01 6.174643833E-02 8.720039670E-01
 7.118857921E-02 8.800359255E-02 7.819477032E-01
 1.172847452E-01 1.014544772E-01 8.158035687E-01
 1.411076989E-01 1.508505795E-01 8.133759494E-01
 1.420906091E-01 5.750039788E-02 8.446921754E-01
 1.658325973E-01 1.124218817E-01 8.471285132E-01
 2.018511440E-01 1.594515264E-01 8.548360863E-01
 3.264061455E-01 6.720673079E-02 9.287011203E-01
 3.524724911E-01 7.389785218E-02 9.367786190E-01
 3.032397826E-01 7.397113668E-02 9.177966680E-01
 1.716200457E-01 2.186456748E-01 8.206056548E-01
 2.527152581E-01 2.358050062E-01 8.524570381E-01
 4.382309896E-01 7.294010658E-02 9.630235519E-01
 4.623606840E-01 7.304573814E-02 9.673521475E-01
 2.827525607E-01 1.630009436E-01 8.857053801E-01
 3.383506898E-01 2.225968666E-01 8.856562584E-01
 3.805707914E-01 1.567730432E-01 9.208728907E-01
 4.304496283E-01 2.228000027E-01 9.090745691E-01
 4.533987397E-01 1.531553424E-01 9.388912607E-01
 5.630062018E-01 6.991153336E-02 9.661834471E-01
 5.363993145E-01 6.729652021E-02 9.736757388E-01
 3.938420980E-01 3.230283133E-01 8.729126967E-01
 5.148356712E-01 2.980399500E-01 8.862586125E-01
 1.775767294E-01 3.215194745E-01 7.994991436E-01
 4.115903983E-01 1.135985642E-01 9.451078611E-01
 4.005293231E-01 7.270724138E-02 9.527571778E-01
 3.292906232E-01 1.264617480E-01 9.150738986E-01
 2.445181113E-01 1.207487741E-01 8.834604051E-01
 2.080823432E-01 1.020433845E-01 8.722082992E-01
 4.624564340E-01 4.485569744E-01 8.470865575E-01
 4.507565818E-01 1.085788625E-01 9.556322919E-01
 4.897265024E-01 1.119233604E-01 9.587269689E-01
 5.256853660E-01 1.967890848E-01 9.261847263E-01
 6.083255447E-01 2.294604036E-01 9.005825315E-01
 6.576190842E-01 6.106380917E-02 9.162159819E-01
 5.576648948E-01 1.412167396E-01 9.436874723E-01
 6.468964845E-01 1.612023652E-01 9.047305001E-01
 6.893687045E-01 2.076113943E-01 8.731894307E-01
 7.540207987E-01 5.701023821E-02 8.580893821E-01
 7.808817609E-01 4.993719344E-02 8.425998353E-01
 7.363213831E-01 1.471177436E-01 8.629340571E-01
 7.887635010E-01 2.205126484E-01 8.280951854E-01
 8.681938658E-01 4.039932575E-02 7.932849592E-01
 8.414710777E-01 3.988262809E-02 8.100783490E-01
 8.260402354E-01 1.384447609E-01 8.146932523E-01
 6.834942017E-01 1.182121370E-01 8.939689171E-01
 6.033848170E-01 1.299932547E-01 9.335413068E-01
 5.857760243E-01 6.494649469E-02 9.575362735E-01
 7.785112787E-01 1.100836807E-01 8.435174151E-01
 8.848067297E-01 2.095456021E-01 7.782241898E-01
 9.147812112E-01 1.282298799E-01 7.654984066E-01
 9.731024918E-01 2.396250986E-02 6.752576613E-01
 8.710617013E-01 1.046318874E-01 7.902138298E-01
 6.853584466E-01 3.376275628E-01 8.509631173E-01
 5.326488511E-01 1.091394461E-01 9.597602715E-01
 5.712234852E-01 1.063186638E-01 9.522749825E-01
 8.413906930E-01 3.769752868E-01 7.983311287E-01
 9.998313245E-01 2.060865769E-01 7.380045525E-01
 1.030624575E+00 1.106876844E-01 7.076674801E-01
 1.093529870E+00 2.114308921E-01 7.269124886E-01
 1.130176794E+00 7.379504413E-02 7.026346634E-01
 1.234833402E+00 1.844621160E-01 7.256212474E-01
 1.256911054E+00 6.522921454E-03 7.113975794E-01
 1.155196564E+00 -8.275231943E-02 6.965675194E-01
 1.375759290E+00 1.308234898E-01 7.279657806E-01
 1.354101762E+00 2.981460210E-01 7.392433477E-01
 1.299593987E+00 -1.542109210E-01 7.163767071E-01
 1.149099578E+00 -2.193654329E-01 6.999913829E-01
 9.710314836E-01 -1.025082854E-02 5.929525364E-01
 1.013049980E+00 -1.736823918E-01 6.729129490E-01
 8.439802404E-01 -1.953421164E-02 6.250687292E-01
 1.029434688E+00 -3.088382844E-01 6.906506567E-01
 8.847980664E-01 -2.441026868E-01 6.848484026E-01
 9.005210232E-01 -1.280464199E-01 6.569593300E-01
 7.847785465E-01 -1.906882677E-01 6.957899152E-01
 7.324732827E-01 -3.065261633E-02 6.837494520E-01
 7.602867382E-01 -3.026586127E-02 6.698683107E-01
 8.241102220E-01 -9.641168629E-02 6.630188973E-01
 7.807671549E-01 -2.978170002E-01 7.117629017E-01
 6.792600258E-01 -2.199157707E-01 7.377530723E-01
 5.344177311E-01 -5.756312061E-02 8.426545202E-01
 5.630301202E-01 -6.032820712E-02 8.110504591E-01
 7.065574630E-01 -1.271836474E-01 7.212420007E-01
 6.277696442E-01 -4.638886323E-02 7.545283084E-01
 6.226272224E-01 -1.468208800E-01 7.668551056E-01
 5.774189581E-01 -1.990140357E-01 7.933422990E-01
 5.351078793E-01 -1.513930425E-01 8.294793136E-01
 4.964776486E-01 -2.182959613E-01 8.500349929E-01
 4.508816698E-01 -1.576782652E-01 9.040785185E-01
 4.423771834E-01 -6.743775284E-02 9.633593375E-01
 5.563087075E-01 -3.048865418E-01 7.962626038E-01
 4.144079734E-01 -3.022832816E-01 8.491203248E-01
 6.598764445E-01 -9.868935498E-02 7.418789785E-01
 6.561970458E-01 -4.215471837E-02 7.322534376E-01
 9.635075810E-01 8.356141554E-02 7.229843172E-01
 5.744202755E-01 -1.122519538E-01 8.010995125E-01
 8.977174107E-01 -4.198057067E-01 7.103537374E-01
 4.922141290E-01 -1.221901409E-01 8.762648110E-01
 9.755699102E-01 -9.122976716E-02 6.458446337E-01
 9.151226639E-01 -6.950439408E-02 6.321956741E-01
 9.312417755E-01 -7.384912836E-03 5.960811647E-01
 1.086258602E+00 -6.032878952E-03 6.735504577E-01
 1.023182262E+00 -6.185475072E-01 7.171997823E-01
 1.315076935E+00 -3.668851375E-01 7.169014325E-01
 4.875467964E-01 -4.543791589E-01 7.976450447E-01
 7.389549390E-02 2.246766115E-01 7.570740613E-01
 -6.781597888E-02 2.230077578E-01 6.882235360E-01
 -8.175053968E-03 -4.011446357E-02 5.474881513E-01
 1.071325884E-02 -1.751824105E-02 5.791049912E-01
 4.938247924E-03 -1.278641390E-02 4.934102030E-01
 -2.585935440E-02 -1.807186579E-02 4.587180401E-01
 5.754704862E-01 6.613058781E-02 9.617964258E-01
 5.822464542E-01 8.141191880E-02 9.570016408E-01
 5.535951926E-01 8.705327119E-02 9.641059368E-01
 6.052315081E-01 9.154834922E-02 9.418722466E-01
 6.350943631E-01 6.325607145E-02 9.311686211E-01
 4.778693243E-01 7.311291315E-02 9.696372200E-01
 4.702738130E-01 8.939571516E-02 9.645528460E-01
 4.904118913E-01 8.408014949E-02 9.683742063E-01
 4.503620194E-01 8.383438235E-02 9.628053549E-01
 5.124764461E-01 8.534878853E-02 9.685555240E-01
 9.599454025E-01 -5.058437844E-02 6.211164231E-01
 1.007664232E+00 -5.176394698E-02 6.400318245E-01
 9.498860278E-01 -2.601022747E-02 6.054535553E-01
 9.291913548E-01 -3.985045592E-02 6.188129128E-01
 8.810856637E-01 -4.857974484E-02 6.271036984E-01
 8.675066930E-01 -1.294614983E-02 6.126545738E-01
 4.899263627E-01 6.983841691E-02 9.718250652E-01
 1.452690268E+00 -6.446614462E-02 7.253863975E-01
 9.117196689E-01 -1.184313573E-02 6.003575116E-01
 9.885299904E-01 -2.221634630E-02 6.134578994E-01
 6.239886565E-01 6.280544014E-02 9.367627679E-01
 6.297191551E-01 7.821120424E-02 9.305729428E-01
 6.387379610E-01 1.134968281E-01 9.199372829E-01
 6.557832097E-01 8.926743016E-02 9.125022760E-01
 6.823209693E-01 6.359077193E-02 8.994104564E-01
 9.554414522E-01 -8.722907624E-03 5.991367258E-01
 1.683689647E+00 -9.142293677E-02 7.324743287E-01
 4.501947333E-01 7.015128318E-02 9.660808399E-01
 4.236207856E-01 7.288936499E-02 9.592626886E-01
 4.310716203E-01 8.948093805E-02 9.571489908E-01
 4.116815903E-01 8.495552224E-02 9.535342271E-01
 3.911228870E-01 8.860427967E-02 9.466872429E-01
 3.676741807E-01 8.590740848E-02 9.398097759E-01
 3.424392973E-01 9.343240272E-02 9.296779424E-01
 5.471897717E-01 7.051778464E-02 9.710908079E-01
 2.558831307E+00 2.053461624E-01 7.403225296E-01
 4.120465202E-01 7.025958655E-02 9.563594744E-01
 4.331760398E-02 -7.197811258E-02 7.381870962E-01
 8.989147240E-02 -1.013300451E-01 8.038475737E-01
 1.565105229E-01 -5.855317644E-02 8.792258878E-01
 9.701442958E-02 -5.104524007E-02 8.383398992E-01
 5.752770009E-03 5.626550746E-02 6.433600757E-01
 5.260184103E-01 6.868337054E-02 9.727459720E-01
 1.490976015E-02 -4.269872012E-02 6.481315277E-01
 3.047040363E-02 -3.121678144E-02 7.160443630E-01
 1.118789006E-01 4.831118002E-01 7.579778209E-01
 6.765892428E-01 -4.234024507E-01 7.499797731E-01
 5.492368234E-01 -6.669543553E-01 7.631798271E-01
 1.479716744E-01 8.367909970E-02 8.447135742E-01
 6.826709630E-01 8.524636361E-02 8.964457032E-01
 7.175380027E-01 9.172264367E-02 8.780941732E-01
 7.289137934E-01 5.381710695E-02 8.726442258E-01
 7.518716339E-01 8.391723614E-02 8.593393598E-01
 7.407675881E-01 5.188042832E-02 8.657027752E-01
 7.365341700E-01 6.663916060E-02 8.684256815E-01
 7.723357957E-01 6.953670033E-02 8.465658734E-01
 8.063597144E-01 8.479707167E-02 8.298619666E-01
 8.417785675E-01 8.024402113E-02 8.093781694E-01
 7.182729973E-01 6.634974874E-02 8.789167038E-01
 7.003567809E-01 7.033824640E-02 8.880907955E-01
 8.703566942E-01 6.642896353E-02 7.908529164E-01
 8.927823568E-01 3.215492344E-02 7.722198142E-01
 8.261651105E-01 5.468030185E-02 8.192496411E-01
 9.069452496E-01 7.598928301E-02 7.633641078E-01
 9.352511532E-01 5.824513846E-02 7.353933627E-01
 9.401485711E-01 2.502800807E-02 7.184424887E-01
 8.808532843E-01 3.300956595E-02 7.843040238E-01
 8.875424558E-01 4.841030513E-02 7.780397835E-01
 9.076592441E-01 4.322232618E-02 7.576889514E-01
 9.639287066E-01 4.743870172E-02 7.025081623E-01
 7.957112781E-01 6.180548772E-02 8.347485928E-01
 9.039909884E-01 2.807485944E-02 7.594717256E-01
 9.554344532E-01 2.582191490E-02 7.026984243E-01
 9.954566398E-01 4.292236139E-02 6.778276457E-01
 1.055223900E+00 5.499119172E-02 6.771795069E-01
 1.029129503E+00 2.083074487E-02 6.420015168E-01
 1.029001280E+00 -2.199937250E-02 6.359521152E-01
 1.058394428E+00 -7.650749100E-02 6.684365792E-01
 5.341258933E-01 8.186221600E-02 9.692552535E-01
 7.218271883E-02 -7.423461895E-02 7.875459899E-01
 8.128913409E-02 -5.545788588E-02 8.167318165E-01
 9.565265876E-02 -6.883776194E-02 8.284372866E-01
 1.222893505E-01 -8.004049741E-02 8.461981486E-01
 1.241783356E-01 -1.158949541E-01 8.322135676E-01
 1.578424092E-01 -9.866871769E-02 8.677295064E-01
 2.224009003E-01 -6.900241270E-02 9.221841955E-01
 1.721501200E-01 -1.466398265E-01 8.552496816E-01
 2.365996820E-01 -1.795433319E-01 8.782326385E-01
 2.061285549E-01 -1.121855960E-01 8.921000540E-01
 2.650722835E-01 -1.300550023E-01 9.227501147E-01
 3.074798546E-01 -1.829137796E-01 9.087140101E-01
 2.705202788E-01 -2.754047676E-01 8.516510083E-01
 3.224739887E-01 -1.285208513E-01 9.517211599E-01
 3.790226224E-01 -1.658056619E-01 9.314968331E-01
 3.651025821E-01 -1.167151698E-01 9.744652422E-01
 3.806965084E-01 -7.273583250E-02 1.006728946E+00
 4.133282653E-01 -1.171212116E-01 9.604387464E-01
 2.928434413E-01 -4.437764880E-01 8.040508373E-01
 4.561670559E-01 -1.053820641E-01 9.267402002E-01
 2.348572345E-01 -1.056869535E-01 9.171894879E-01
 2.504512685E-01 -7.064000210E-02 9.413754916E-01
 2.916988782E-01 -1.048475681E-01 9.525024555E-01
 4.191505475E-01 -2.166153297E-01 8.949706071E-01
 2.369413474E-01 -6.728588114E-02 9.325644150E-01
 2.635948238E-01 -8.948192179E-02 9.424166369E-01
 2.936951015E-01 -8.186094871E-02 9.654460991E-01
 3.141757173E-01 -9.457620044E-02 9.716415387E-01
 3.323586242E-01 -8.258553722E-02 9.894932793E-01
 3.551270488E-01 -9.169055944E-02 9.923296218E-01
 3.663745125E-01 -7.912097757E-02 1.002639965E+00
 3.835652894E-01 -9.157798628E-02 9.932414262E-01
 1.394437136E-01 -6.460560658E-02 8.658243488E-01
 1.891116549E-01 -8.633739918E-02 8.948730055E-01
 5.344308085E-02 -5.255098398E-02 7.781300286E-01
 8.787671459E-02 -1.570220298E-01 7.804158319E-01
 7.151058266E-02 -2.468865686E-01 7.464827414E-01
 1.002416295E-01 7.267147542E-02 8.153725838E-01
 5.642916143E-02 6.284266662E-02 7.696510545E-01
 3.581162553E-01 -2.286045641E-01 8.951853027E-01
 9.892705420E-01 1.923251543E-02 6.479433234E-01
 6.952380263E-01 5.682049989E-02 8.915533613E-01
 3.651569626E-01 7.041029499E-02 9.411315456E-01
 4.311370865E-01 -9.192749937E-02 9.648441035E-01
 4.681098167E-01 -8.035999849E-02 9.238006104E-01
 4.904820432E-01 -8.937586880E-02 8.910903789E-01
 5.092731867E-01 -6.142043426E-02 8.720654594E-01
 5.264824674E-01 -1.040684396E-01 8.448883950E-01
 5.542745047E-01 -8.140353721E-02 8.205887872E-01
 5.823843188E-01 -7.601558219E-02 7.941110819E-01
 4.096257735E-01 -8.635648166E-02 9.869281739E-01
 4.248054444E-01 -7.510829311E-02 9.788419796E-01
 5.969501233E-01 1.688523672E-01 9.263944221E-01
 -2.726234332E-02 8.091686960E-03 4.387960152E-01
 -9.773050996E-03 2.976495542E-02 5.480287450E-01
 1.176821486E-02 1.798689375E-02 6.576036679E-01
 6.266803347E-03 1.359817524E-02 5.987134370E-01
 6.143010513E-01 -9.652329863E-02 7.709416203E-01
 6.083088816E-01 -7.068546046E-02 7.738946438E-01
 6.326152341E-01 -6.822029460E-02 7.547285513E-01
 6.136481744E-01 -5.227592653E-02 7.643993945E-01
 8.504140772E-01 5.311406211E-02 8.041940140E-01
 1.593348547E+00 2.384756491E-01 7.392404401E-01
 6.639943769E-01 -6.605612773E-02 7.330379699E-01
 6.979558268E-01 -8.047768246E-02 7.157185997E-01
 7.475367909E-01 -8.523751872E-02 6.918892681E-01
 7.075245722E-01 -3.348352589E-02 6.994132527E-01
 7.885644112E-01 -6.857345381E-02 6.688135811E-01
 7.241897780E-01 -6.442138937E-02 6.981649868E-01
 2.989200623E-01 4.177055760E-01 8.247434650E-01
 5.319487372E-01 6.321062832E-01 8.188277396E-01
 7.042905222E-01 -5.256768153E-02 7.056782959E-01
 8.997828150E-01 -3.078805911E-02 6.126208241E-01
 8.590806173E-01 -3.205895201E-02 6.253621865E-01
 8.331115892E-01 -3.870280484E-02 6.381594588E-01
 8.093270319E-01 -1.795986938E-02 6.387685330E-01
 8.806310057E-01 -1.975436609E-02 6.120712885E-01
 8.170672789E-01 -5.727965058E-02 6.526446114E-01
 7.978509946E-01 -2.214714740E-02 6.462157902E-01
 8.187721088E-01 -1.667467358E-02 6.352811040E-01
 8.287393088E-01 -2.019406269E-02 6.320235422E-01
 8.576361249E-01 -6.819022429E-02 6.433742966E-01
 9.255381314E-01 -2.012550179E-02 6.051250956E-01
 6.947204171E-01 -3.610928865E-02 7.079536142E-01
 5.134917673E-01 6.894395564E-02 9.727475953E-01
 7.216353192E-01 -4.224155578E-02 6.936010469E-01
 7.436842089E-01 -4.691849268E-02 6.831203652E-01
 7.699218115E-01 -4.827826783E-02 6.705151725E-01
 3.181170619E-02 5.167146919E-02 7.334770218E-01
 1.083098120E-02 3.665685523E-02 6.724958715E-01
 5.560162410E-02 4.444366778E-02 7.807593625E-01
 2.686860329E-02 3.260860788E-02 7.385779151E-01
 6.678923991E-01 7.220870364E-02 9.090493878E-01
 6.482618106E-01 7.176124090E-02 9.217581890E-01
 5.972422879E-01 6.917376923E-02 9.506588292E-01
 1.257460959E-01 7.397426351E-02 8.303600994E-01
 8.942755908E-02 5.580376759E-02 8.053688046E-01
 1.216659364E-01 5.367736293E-02 8.320170230E-01
 3.955827451E-01 -7.367516851E-02 1.002725563E+00
 7.452082028E-01 -2.844852082E-02 6.761985963E-01
 9.924411486E-01 5.706802006E-01 7.761110249E-01
 3.704480297E-01 1.107962410E-01 9.347175772E-01
 3.102095337E-01 9.747324219E-02 9.172391562E-01
 9.293889794E-01 3.645509177E-02 7.354249665E-01
 9.448303727E-01 3.859777099E-02 7.188621482E-01
 6.689139432E-01 -4.278648150E-02 7.244395907E-01
 6.831990942E-01 -5.326679192E-02 7.177351533E-01
 9.717216920E-01 1.393297957E-01 7.402677364E-01
 6.461912650E-01 5.967725163E-02 9.245906377E-01
 8.909770499E-01 -1.044763728E-02 6.041788453E-01
 3.133974596E+00 6.339745962E-01 7.323008419E-01
 6.017642623E-01 -5.093342902E-02 7.744139375E-01
 3.370466725E-01 7.236605958E-02 9.319315460E-01
 3.369935038E-02 -4.958056226E-02 7.192874966E-01
 3.155264645E-01 6.815264559E-02 9.244407552E-01
 2.865812632E-01 8.775634139E-02 9.090369884E-01
 2.633497545E-01 9.038814442E-02 8.989813774E-01
 2.362977668E-01 9.163899323E-02 8.899467000E-01
 2.027413363E-01 7.514893765E-02 8.774968649E-01
 1.775480169E-01 7.748588301E-02 8.633738240E-01
 2.564220644E-01 6.842966271E-02 9.004267425E-01
 2.829289600E-01 1.138363201E-01 9.020220500E-01
 5.216698947E-01 -6.247501641E-02 8.567051311E-01
 5.329950781E-01 -7.407015557E-02 8.442181354E-01