TITLE     = "Visualization of the solution"
VARIABLES = "x"
"y"
"Mach"
ZONE T="Zone"
 STRANDID=0, SOLUTIONTIME=0
 Nodes=703, Elements=1191, ZONETYPE=FEQuadrilateral
 DATAPACKING=POINT
 DT=(DOUBLE DOUBLE DOUBLE )
 9.996384978E-01 5.214819685E-04 5.755491164E-01
 9.874422550E-01 2.950044814E-03 6.356312274E-01
 9.750019312E-01 5.497070029E-03 6.603382187E-01
 9.597243667E-01 8.640717715E-03 6.939702996E-01
 9.458743930E-01 1.145853195E-02 7.106701293E-01
 9.316556454E-01 1.429965906E-02 7.312111693E-01
 9.205611348E-01 1.647359692E-02 7.444244614E-01
 9.085734487E-01 1.876183599E-02 7.589989037E-01
 8.975446224E-01 2.091444470E-02 7.734713421E-01
 8.856784105E-01 2.308389358E-02 7.857973492E-01
 8.736898899E-01 2.528693341E-02 7.973142755E-01
 8.614717126E-01 2.739897929E-02 8.068041847E-01
 8.496368527E-01 2.944628336E-02 8.152264968E-01
 8.385812044E-01 3.124587797E-02 8.238438306E-01
 8.272241950E-01 3.312172368E-02 8.335296505E-01
 8.144334555E-01 3.512994200E-02 8.404979088E-01
 8.015125394E-01 3.707493469E-02 8.455014761E-01
 7.892721295E-01 3.891187906E-02 8.533193987E-01
 7.772361040E-01 4.068572447E-02 8.626415047E-01
 7.653011084E-01 4.241199419E-02 8.712563279E-01
 7.521969676E-01 4.424114525E-02 8.799859856E-01
 7.384409904E-01 4.611781612E-02 8.881748808E-01
 7.275300026E-01 4.754283652E-02 8.968705991E-01
 7.160871625E-01 4.902424663E-02 9.068933364E-01
 7.041256428E-01 5.052740127E-02 9.152312314E-01
 6.898542643E-01 5.220675096E-02 9.236071263E-01
 6.764574647E-01 5.377656221E-02 9.344917266E-01
 6.662830710E-01 5.490263179E-02 9.455211146E-01
 6.542814374E-01 5.620256439E-02 9.570826703E-01
 6.423562169E-01 5.741875991E-02 9.671501237E-01
 6.304668188E-01 5.857090279E-02 9.761034413E-01
 6.187461019E-01 5.963582918E-02 9.856676388E-01
 6.076497436E-01 6.061269343E-02 9.946663625E-01
 5.948743224E-01 6.164214760E-02 1.002238501E+00
 5.830344558E-01 6.253242493E-02 1.009755440E+00
 5.695262551E-01 6.346650422E-02 1.018809615E+00
 5.570831299E-01 6.425727159E-02 1.026965650E+00
 5.448722243E-01 6.494347751E-02 1.032434898E+00
 5.339139104E-01 6.550075859E-02 1.034901121E+00
 5.222997665E-01 6.602269411E-02 1.035343789E+00
 5.097175837E-01 6.650762260E-02 1.034112741E+00
 4.983970225E-01 6.687115133E-02 1.032170273E+00
 4.852085710E-01 6.724318117E-02 1.027087101E+00
 4.715844989E-01 6.750641763E-02 1.018148246E+00
 4.571299255E-01 6.768299639E-02 1.010029712E+00
 4.436058700E-01 6.777799129E-02 1.004284574E+00
 4.304659069E-01 6.778001040E-02 1.000348341E+00
 4.176768661E-01 6.773120910E-02 9.955769162E-01
 4.051157534E-01 6.758758426E-02 9.889492105E-01
 3.925341070E-01 6.737954170E-02 9.828087914E-01
 3.799127936E-01 6.710435450E-02 9.769698106E-01
 3.683883250E-01 6.679110229E-02 9.709072772E-01
 3.551690280E-01 6.635753810E-02 9.650983157E-01
 3.425273299E-01 6.587773561E-02 9.610835306E-01
 3.293955028E-01 6.531170756E-02 9.575207028E-01
 3.182596564E-01 6.476239860E-02 9.517374830E-01
 3.056930900E-01 6.408095360E-02 9.468674743E-01
 2.922182381E-01 6.328281760E-02 9.423053867E-01
 2.780952156E-01 6.235090271E-02 9.364343972E-01
 2.656002939E-01 6.143574044E-02 9.304258174E-01
 2.535416484E-01 6.048686802E-02 9.240697942E-01
 2.410168201E-01 5.943141878E-02 9.179289229E-01
 2.284255326E-01 5.828943476E-02 9.113757141E-01
 2.161780447E-01 5.709769577E-02 9.047242516E-01
 2.045296580E-01 5.588286743E-02 8.986858105E-01
 1.930474788E-01 5.462145433E-02 8.917222544E-01
 1.806145757E-01 5.315544084E-02 8.843953717E-01
 1.689201742E-01 5.169700459E-02 8.775516128E-01
 1.574905068E-01 5.017468333E-02 8.703751790E-01
 1.457258165E-01 4.851602018E-02 8.632514679E-01
 1.351352334E-01 4.692951962E-02 8.543967063E-01
 1.235055774E-01 4.507064447E-02 8.449158236E-01
 1.124351844E-01 4.319964722E-02 8.357188365E-01
 1.019973680E-01 4.130562767E-02 8.269125785E-01
 9.241126478E-02 3.947333619E-02 8.181828344E-01
 8.169651031E-02 3.727801144E-02 8.050833526E-01
 7.032905519E-02 3.475970030E-02 7.913274437E-01
 6.107277423E-02 3.254707903E-02 7.779268855E-01
 5.163002387E-02 3.008807264E-02 7.638457727E-01
 4.337366298E-02 2.775658295E-02 7.488108850E-01
 3.623320907E-02 2.555992827E-02 7.308718511E-01
 2.988806739E-02 2.342362329E-02 7.056871449E-01
 2.440086007E-02 2.140279301E-02 6.808050543E-01
 2.039547823E-02 1.979209483E-02 6.548325366E-01
 1.659250259E-02 1.812832803E-02 6.396001039E-01
 1.367801521E-02 1.673960872E-02 6.270854187E-01
 1.100518741E-02 1.534529962E-02 6.195274806E-01
 9.074716829E-03 1.425089594E-02 6.264310893E-01
 7.356599905E-03 1.319354586E-02 6.202953336E-01
 5.755419377E-03 1.212427579E-02 5.991062153E-01
 3.689265111E-03 1.056640875E-02 5.736199408E-01
 1.879291725E-03 8.938282728E-03 4.606165838E-01
 3.660105285E-04 7.249233779E-03 3.342276446E-01
 -1.115517691E-03 4.903273191E-03 1.441684567E-01
 -1.747900737E-03 3.134783357E-03 9.383143612E-02
 -1.965790987E-03 1.698769745E-03 5.176972475E-02
 -1.899836119E-03 1.392576378E-04 6.802736861E-02
 -1.526043052E-03 -1.437427942E-03 1.885341746E-01
 -6.991754635E-04 -3.278147895E-03 3.221254312E-01
 6.244383403E-04 -5.215871613E-03 4.331460112E-01
 2.474754583E-03 -7.224065717E-03 5.212213728E-01
 4.175996408E-03 -8.717966266E-03 5.666036188E-01
 6.086449604E-03 -1.015911996E-02 5.778543850E-01
 7.657918613E-03 -1.121647563E-02 5.762499177E-01
 9.647533298E-03 -1.242788136E-02 5.956672331E-01
 1.193863247E-02 -1.369381137E-02 6.292156808E-01
 1.507795230E-02 -1.525477320E-02 6.700806200E-01
 1.796650514E-02 -1.655447111E-02 6.905207945E-01
 2.164916880E-02 -1.806737110E-02 6.989749726E-01
 2.691385895E-02 -2.000319771E-02 7.169865885E-01
 3.258523345E-02 -2.186966315E-02 7.394017062E-01
 3.969311342E-02 -2.396594360E-02 7.551457385E-01
 4.722798616E-02 -2.596173063E-02 7.677302284E-01
 5.601993948E-02 -2.807011083E-02 7.805229164E-01
 6.469188631E-02 -2.997035533E-02 7.900616969E-01
 7.462207973E-02 -3.196885809E-02 7.990432312E-01
 8.457497507E-02 -3.381607309E-02 8.074225194E-01
 9.490767121E-02 -3.559799492E-02 8.170459726E-01
 1.057970747E-01 -3.734606877E-02 8.229670437E-01
 1.172778606E-01 -3.907326981E-02 8.280809119E-01
 1.287998408E-01 -4.069072753E-02 8.330845774E-01
 1.396062374E-01 -4.212564602E-02 8.393666141E-01
 1.506145746E-01 -4.350053146E-02 8.440974996E-01
 1.625628173E-01 -4.491288215E-02 8.493192462E-01
 1.743574589E-01 -4.621295631E-02 8.547188037E-01
 1.864190847E-01 -4.747081921E-02 8.606768557E-01
 1.973100007E-01 -4.853942990E-02 8.677992321E-01
 2.086571306E-01 -4.958715290E-02 8.759988037E-01
 2.211520076E-01 -5.065561086E-02 8.830823194E-01
 2.340734005E-01 -5.167730898E-02 8.904875624E-01
 2.465041578E-01 -5.257670581E-02 8.982393794E-01
 2.589879632E-01 -5.339044705E-02 9.056864988E-01
 2.704420984E-01 -5.405354500E-02 9.123993015E-01
 2.834522128E-01 -5.473124981E-02 9.203681402E-01
 2.963418961E-01 -5.529667810E-02 9.286815476E-01
 3.092982769E-01 -5.575425550E-02 9.371309104E-01
 3.213277757E-01 -5.609081686E-02 9.460436131E-01
 3.338814378E-01 -5.633398890E-02 9.546168610E-01
 3.451252878E-01 -5.646348372E-02 9.607426121E-01
 3.565781415E-01 -5.647600815E-02 9.644065708E-01
 3.676017821E-01 -5.642237142E-02 9.671534766E-01
 3.784758151E-01 -5.625008792E-02 9.679752360E-01
 3.902916312E-01 -5.596573278E-02 9.657640925E-01
 4.032795727E-01 -5.553273857E-02 9.625393047E-01
 4.159585834E-01 -5.494837090E-02 9.564020001E-01
 4.287632108E-01 -5.422777310E-02 9.466758987E-01
 4.414145052E-01 -5.339419097E-02 9.355218609E-01
 4.537124336E-01 -5.245446786E-02 9.216672638E-01
 4.656920433E-01 -5.139956623E-02 9.025357944E-01
 4.780436456E-01 -5.023345724E-02 8.844661153E-01
 4.897807539E-01 -4.903816804E-02 8.698221772E-01
 5.021475554E-01 -4.768589512E-02 8.549056145E-01
 5.159921646E-01 -4.605867341E-02 8.389028506E-01
 5.293900967E-01 -4.442234337E-02 8.242601644E-01
 5.428379178E-01 -4.269280657E-02 8.091171396E-01
 5.555673838E-01 -4.100853205E-02 7.935638472E-01
 5.685740709E-01 -3.924215585E-02 7.791539974E-01
 5.813375115E-01 -3.747520968E-02 7.660706971E-01
 5.933471918E-01 -3.580152616E-02 7.548831527E-01
 6.056774259E-01 -3.405230120E-02 7.436818157E-01
 6.196926832E-01 -3.207052127E-02 7.318423020E-01
 6.340366006E-01 -3.004242480E-02 7.217212123E-01
 6.483126283E-01 -2.802838944E-02 7.118611608E-01
 6.615310311E-01 -2.614974976E-02 7.017338994E-01
 6.746298671E-01 -2.428279445E-02 6.917670836E-01
 6.870874166E-01 -2.256828174E-02 6.835954213E-01
 6.993718147E-01 -2.084938064E-02 6.757318281E-01
 7.136153579E-01 -1.892532036E-02 6.679081559E-01
 7.265012860E-01 -1.719596051E-02 6.610086044E-01
 7.385146022E-01 -1.562416181E-02 6.542055156E-01
 7.508332729E-01 -1.397431828E-02 6.449586787E-01
 7.631762624E-01 -1.243833173E-02 6.371855417E-01
 7.762063146E-01 -1.083681546E-02 6.316854124E-01
 7.878425121E-01 -9.460849687E-03 6.249415165E-01
 8.003004193E-01 -7.997674868E-03 6.180475117E-01
 8.114064932E-01 -6.787712686E-03 6.115823865E-01
 8.226783276E-01 -5.567034706E-03 6.053075332E-01
 8.356751204E-01 -4.286831710E-03 5.989967553E-01
 8.479151130E-01 -3.141449997E-03 5.926875631E-01
 8.599711657E-01 -2.118909033E-03 5.875283539E-01
 8.719176650E-01 -1.213189098E-03 5.831872789E-01
 8.836336136E-01 -4.235072702E-04 5.786605361E-01
 8.968872428E-01 3.091175167E-04 5.751590806E-01
 9.074504375E-01 7.641367847E-04 5.733297985E-01
 9.176324010E-01 1.123441965E-03 5.722470841E-01
 9.271069765E-01 1.362201059E-03 5.708491024E-01
 9.359875321E-01 1.510292757E-03 5.704132037E-01
 9.477759004E-01 1.595151494E-03 5.711913641E-01
 9.604823589E-01 1.548580825E-03 5.708206225E-01
 9.757320881E-01 1.317097107E-03 5.661343247E-01
 9.884326458E-01 9.619530756E-04 5.778057036E-01
 -5.000000000E-01 -1.000000000E+00 7.119292119E-01
 3.500000000E+00 -1.000000000E+00 7.306246685E-01
 3.500000000E+00 1.000000000E+00 7.276987138E-01
 -5.000000000E-01 1.000000000E+00 7.118321363E-01
 -5.000000000E-01 5.000000000E-01 6.988619830E-01
 -5.000000000E-01 2.752797990E-12 6.866779500E-01
 -5.000000000E-01 -5.000000000E-01 6.986452500E-01
 -9.421907698E-13 -1.000000000E+00 7.233634237E-01
 5.000000000E-01 -1.000000000E+00 7.391350767E-01
 1.000000000E+00 -1.000000000E+00 7.236269389E-01
 1.500000000E+00 -1.000000000E+00 7.166203370E-01
 2.000000000E+00 -1.000000000E+00 7.202728604E-01
 2.500000000E+00 -1.000000000E+00 7.250773298E-01
 3.000000000E+00 -1.000000000E+00 7.276827293E-01
 3.500000000E+00 -5.000000000E-01 7.335366104E-01
 3.500000000E+00 -2.752797990E-12 7.353249505E-01
 3.500000000E+00 5.000000000E-01 7.323109123E-01
 3.000000000E+00 1.000000000E+00 7.254258314E-01
 2.500000000E+00 1.000000000E+00 7.284734020E-01
 2.000000000E+00 1.000000000E+00 7.346631263E-01
 1.500000000E+00 1.000000000E+00 7.483610225E-01
 1.000000000E+00 1.000000000E+00 7.741060060E-01
 5.000000000E-01 1.000000000E+00 7.703467844E-01
 1.733724275E-12 1.000000000E+00 7.282192067E-01
 6.835713598E-01 -3.536900948E-02 6.937217932E-01
 7.830131556E-01 -1.982674691E-02 6.341034654E-01
 9.033440452E-01 -7.363244218E-03 5.802283019E-01
 6.833571999E-01 6.231313225E-02 9.290359237E-01
 2.776779300E-01 -6.617301650E-02 9.178633306E-01
 2.844146864E-01 7.406236572E-02 9.386650290E-01
 9.012823820E-01 3.117464109E-02 7.688147691E-01
 7.857980213E-01 5.294251239E-02 8.573700473E-01
 5.627575747E-01 -5.273745693E-02 7.910935299E-01
 5.912188159E-01 7.499781843E-02 1.000928313E+00
 3.986426742E-01 -6.803024755E-02 9.588533686E-01
 4.119610396E-01 8.301595765E-02 9.886399202E-01
 1.837717499E+00 -5.879505554E-01 7.267546314E-01
 1.780554570E+00 6.375158235E-01 7.452159366E-01
 3.031167880E+00 2.156876112E-01 7.382819187E-01
 7.239091985E-01 -5.253023612E-01 7.388917479E-01
 4.698590922E-01 -6.394809045E-02 8.988350657E-01
 7.670692908E-01 5.911394042E-01 8.278092767E-01
 4.919217255E-01 7.868565464E-02 1.025876522E+00
 3.514828399E-01 6.034833024E-01 8.166572388E-01
 1.163947254E-01 5.345804890E-02 8.382329819E-01
 1.722614994E-01 6.501380997E-02 8.786268705E-01
 2.734866805E+00 -5.326727331E-01 7.332708979E-01
 1.209010578E+00 7.096974134E-01 7.635217206E-01
 9.893122859E-01 3.596152728E-01 7.679490579E-01
 8.437028645E-01 4.190561340E-02 8.210364184E-01
 1.295807081E+00 -5.934340285E-01 7.142908678E-01
 1.504733433E+00 -2.681594530E-01 7.260728935E-01
 2.329713903E-01 -5.403490859E-01 7.642104774E-01
 7.964128041E-02 -4.211185082E-02 8.060666988E-01
 1.327368840E-01 -5.079241929E-02 8.393602418E-01
 1.898805659E-01 -5.654186993E-02 8.667606404E-01
 2.249180592E+00 -5.866918090E-01 7.305068231E-01
 2.037039257E+00 -2.186387733E-01 7.351635032E-01
 2.422302028E+00 -1.873266803E-01 7.376490835E-01
 2.184683743E+00 1.583752494E-01 7.411787500E-01
 1.815329105E+00 8.889295493E-02 7.377487962E-01
 -2.710071039E-01 -2.547064857E-01 6.817949518E-01
 -1.585016896E-01 -5.660904947E-01 7.112514905E-01
 -2.546570923E-01 2.391021305E-01 6.775366481E-01
 -1.198126546E-01 6.397350321E-01 7.225327889E-01
 2.653396056E-02 3.507067833E-01 7.365610888E-01
 5.479070863E-02 4.136340149E-02 7.674059023E-01
 2.225651316E+00 5.668542923E-01 7.401329676E-01
 2.743769743E+00 5.981291522E-01 7.357036956E-01
 -2.509766614E-01 -9.782823006E-04 6.602125399E-01
 -1.420668559E-01 -1.290151402E-01 6.542029624E-01
 3.229842382E-02 -3.714494677E-01 7.343415616E-01
 2.781007945E-01 -3.167436657E-01 8.172668712E-01
 3.386269713E-01 -7.154583978E-02 9.533155813E-01
 -1.250946123E-01 1.064589695E-01 6.387437668E-01
 -1.210184777E-01 -5.121966004E-03 6.142361866E-01
 -5.642341502E-02 -6.695735440E-02 6.026518660E-01
 4.241558450E-02 -3.157423175E-02 7.578306189E-01
 2.193517663E-02 -2.391411307E-02 6.949364898E-01
 5.670725000E-02 -3.921226429E-02 7.795278717E-01
 -4.985421702E-02 -1.502886945E-01 6.675681933E-01
 5.651769400E-03 -9.460956201E-02 6.794652376E-01
 2.779371513E-02 -2.001003694E-01 7.273469720E-01
 -1.460186397E-02 -5.099159985E-02 5.886985328E-01
 7.621499736E-03 -1.523928904E-02 5.609006362E-01
 -5.374947341E-02 -8.355198082E-03 5.276404043E-01
 6.878460424E-02 -1.155693215E-01 7.722312539E-01
 1.156407493E-01 -1.582790357E-01 8.009990143E-01
 1.180715575E-01 -1.000032883E-01 8.275301078E-01
 1.779153376E-01 -1.156615463E-01 8.545371829E-01
 2.382920068E-01 -6.463592208E-02 8.952973799E-01
 1.815602124E-01 -1.737180527E-01 8.342154685E-01
 2.312931088E-01 -1.437249552E-01 8.720466779E-01
 1.276819943E-01 -2.458940324E-01 7.845992180E-01
 1.539859355E-01 -8.326498104E-02 8.536967881E-01
 1.654798768E-01 -6.020975187E-02 8.564928045E-01
 2.222709369E-01 -1.022426904E-01 8.855119455E-01
 2.145904943E-01 -6.331051539E-02 8.829130262E-01
 2.656356122E-01 -1.042920840E-01 9.047697485E-01
 2.875746376E-01 -1.494783481E-01 8.960784593E-01
 3.079713564E-01 -1.060157412E-01 9.260100750E-01
 3.427320406E-01 -1.363764645E-01 9.233520793E-01
 3.163170937E-01 -6.522245153E-02 9.426563927E-01
 3.295300505E-01 -1.891318100E-01 8.896017419E-01
 3.936474146E-01 -1.809756869E-01 8.943765682E-01
 4.353515194E-01 -6.719814707E-02 9.370544910E-01
 3.979596534E-01 -1.237446375E-01 9.295452689E-01
 4.503652808E-01 -1.593906629E-01 8.818956286E-01
 4.457565288E-01 -2.385700788E-01 8.489651923E-01
 5.280886082E-01 -1.904025625E-01 8.161450163E-01
 6.276333670E-01 -4.482113959E-02 7.338716155E-01
 6.021516941E-01 -4.837449739E-02 7.542363204E-01
 5.225856172E-01 -5.569969815E-02 8.344546761E-01
 5.304182500E-01 -3.081308537E-01 7.998617252E-01
 6.239554530E-01 -2.518931117E-01 7.590889230E-01
 6.178928974E-01 -1.480772705E-01 7.618078785E-01
 6.997835679E-01 -1.960846336E-01 7.226681173E-01
 8.436975009E-01 -1.535652468E-02 6.041561527E-01
 8.181726257E-01 -1.575392165E-02 6.147501411E-01
 8.658364158E-01 -1.333762692E-02 5.943145084E-01
 7.348746479E-01 -2.555635686E-02 6.611801974E-01
 7.583344614E-01 -2.389157189E-02 6.483238084E-01
 6.883179497E-01 -1.175040110E-01 7.172464727E-01
 7.630596789E-01 -1.487041619E-01 6.910508779E-01
 7.841145071E-01 -2.340440791E-01 6.997154623E-01
 9.688478779E-01 -1.117842997E-02 5.813060388E-01
 9.413840852E-01 -9.254459254E-03 5.794628122E-01
 8.602215261E-01 -1.546006396E-01 6.672615027E-01
 8.792403073E-01 -2.509747076E-01 6.853949242E-01
 9.612685058E-01 -1.988304970E-01 6.704060870E-01
 9.789003304E-01 -3.235796640E-01 6.905823830E-01
 1.081967837E+00 -2.216335353E-01 6.893233977E-01
 1.078846160E+00 -1.033480832E-01 6.746805170E-01
 1.200531204E+00 -1.344582171E-01 7.025924341E-01
 1.140312597E+00 -1.067181171E-02 6.852113034E-01
 1.266929502E+00 -1.732022036E-02 7.081495026E-01
 1.222846531E+00 1.184406612E-01 7.156088810E-01
 9.308114072E-01 -1.143204079E-01 6.445438623E-01
 8.575040384E-01 -8.972536841E-02 6.429776417E-01
 7.449459247E-01 -8.675691754E-02 6.821349735E-01
 5.474830899E-01 -1.266353766E-01 8.108230219E-01
 4.933096670E-01 -1.210510151E-01 8.609940209E-01
 9.011996431E-01 -6.356661154E-02 6.237146452E-01
 1.401391052E+00 1.061220669E-01 7.257122727E-01
 1.303671764E+00 -3.253203277E-01 7.143705771E-01
 5.860538358E-01 -9.835977562E-02 7.820950631E-01
 6.983820271E-01 -7.282144397E-02 7.010941245E-01
 7.083402889E-01 -3.341335232E-02 6.788648485E-01
 6.629490076E-01 -7.746481740E-02 7.230808342E-01
 6.563574581E-01 -3.802000776E-02 7.119840756E-01
 1.317398946E+00 2.923301318E-01 7.381871706E-01
 1.090610597E+00 8.701896751E-02 7.011738653E-01
 9.551696187E-01 2.327505186E-02 7.066167503E-01
 4.462826733E-01 -1.063907935E-01 9.126511431E-01
 3.637988033E-01 -1.008355234E-01 9.489528917E-01
 3.732603219E-01 -6.553687189E-02 9.641671125E-01
 2.515971212E-01 -2.187247731E-01 8.435855967E-01
 3.964919316E-01 -3.501720094E-01 8.197616274E-01
 5.022688317E-01 -4.680018152E-01 7.817859044E-01
 1.123020809E+00 2.364328953E-01 7.309980921E-01
 1.796952148E-02 -5.876987260E-02 6.795529614E-01
 3.109371065E+00 -2.612583579E-01 7.368725652E-01
 4.782587048E-02 -7.517161216E-02 7.553970825E-01
 8.053977840E-01 -1.002621941E-01 6.629321128E-01
 8.239116407E-01 -5.817225444E-02 6.375633682E-01
 7.827855627E-01 -6.018327431E-02 6.551713794E-01
 8.625250232E-01 -4.691818958E-02 6.188082169E-01
 8.926616772E-01 -3.357238564E-02 6.020018375E-01
 9.192144477E-01 -3.934698997E-02 6.037521876E-01
 9.217551519E-01 -8.990211294E-03 5.788821945E-01
 5.506959514E-01 -8.880991377E-02 8.110768372E-01
 7.520379090E-01 -5.576926214E-02 6.678954741E-01
 3.363225260E-01 -9.463808329E-02 9.440145528E-01
 2.896556499E-01 -8.115898188E-02 9.252841890E-01
 1.059247449E+00 -3.227995871E-02 6.511282344E-01
 1.007605499E+00 -6.965696695E-02 6.426772390E-01
 1.061511897E+00 2.601846281E-02 6.638226336E-01
 1.000186013E+00 1.200727848E-01 7.202006145E-01
 7.234203850E-01 -5.210414925E-02 6.801669372E-01
 8.092154237E-01 -3.589854770E-01 7.100977353E-01
 -2.510094383E-02 -2.149832841E-02 4.912763185E-01
 2.109599077E-03 -9.296425795E-03 4.916855792E-01
 8.022240199E-01 -3.774555570E-02 6.356829453E-01
 9.542064333E-01 -1.035555753E-02 5.808825201E-01
 9.606140079E-01 -2.627764624E-02 5.960282807E-01
 9.795590189E-01 -2.698894829E-02 5.965163743E-01
 9.706849772E-01 -5.179687617E-02 6.167237772E-01
 1.019824410E+00 -3.358328107E-02 6.297292624E-01
 9.393323670E-01 -6.647543476E-02 6.210567047E-01
 8.347402188E-02 -7.933529256E-02 8.088844930E-01
 1.069587513E-01 -4.835699203E-02 8.257095657E-01
 7.941847592E-01 -2.172280873E-02 6.297550694E-01
 1.145017635E+00 -3.920273435E-01 7.019150856E-01
 9.877076432E-01 -5.115491889E-01 7.068813188E-01
 7.720539311E-01 -2.379807707E-02 6.408256714E-01
 7.657241248E-01 -3.964574604E-02 6.530198562E-01
 4.151596552E-01 -9.479917782E-02 9.411060687E-01
 3.926876476E-01 -8.732221028E-02 9.534069991E-01
 3.558614451E-01 -7.994547856E-02 9.556603284E-01
 4.157423861E-01 -7.592667805E-02 9.486683806E-01
 2.899134325E-01 -6.473250014E-02 9.254687214E-01
 3.271065455E-01 -6.635111111E-02 9.487346840E-01
 5.104565855E-01 -5.867072177E-02 8.501131475E-01
 5.241315698E-01 -7.242100849E-02 8.346854556E-01
 4.971315538E-01 -7.681355868E-02 8.630581203E-01
 4.972403089E-01 -6.003271339E-02 8.648096488E-01
 4.744118214E-01 -8.528252397E-02 8.920482772E-01
 4.554173331E-01 -7.436939273E-02 9.180724115E-01
 4.368119982E-03 -3.991493970E-02 6.174462643E-01
 8.295628913E-01 -1.742018317E-02 6.109626952E-01
 8.392548984E-01 -3.325423837E-02 6.178870175E-01
 8.563960301E-01 -2.594487279E-02 6.064672374E-01
 1.014199050E+00 4.276998489E-02 6.698361647E-01
 9.834050653E-01 1.488575287E-02 6.552708151E-01
 3.661349266E-01 -2.572271703E-01 8.572357647E-01
 1.793623565E-01 -5.667937214E-02 8.616442936E-01
 1.824789074E-01 -7.252975164E-02 8.672019074E-01
 4.844111960E-01 -6.422475196E-02 8.795127971E-01
 5.781103810E-01 -5.155348931E-02 7.761103083E-01
 5.708166002E-01 -7.098253718E-02 7.891014579E-01
 4.586111049E-01 -6.114224220E-02 9.137948766E-01
 8.771359834E-01 -1.015194886E-02 5.886715824E-01
 8.547632451E-01 -1.197987668E-02 5.970580883E-01
 6.440958595E-01 -4.321600259E-02 7.222866084E-01
 6.395220191E-01 -6.341738998E-02 7.341448987E-01
 6.174884811E-01 -6.016374373E-02 7.485736730E-01
 3.511416498E-01 -6.610505201E-02 9.598461149E-01
 4.354345938E-01 -8.489339623E-02 9.352954010E-01
 5.373063606E-01 -5.546594510E-02 8.195639237E-01
 5.518352991E-01 -6.730767691E-02 8.079504552E-01
 6.689929260E-01 -3.889538211E-02 7.041596065E-01
 6.783886014E-01 -5.497912309E-02 7.064867058E-01
 6.975633262E-01 -4.669422133E-02 6.917382945E-01
 9.118304450E-01 -6.921857215E-03 5.786515793E-01
 7.247571967E-01 -3.135989399E-02 6.692487191E-01
 1.585934726E+00 2.964997378E-01 7.419589626E-01
 1.453853567E+00 5.654471304E-01 7.512266278E-01
 3.024394739E-01 -6.630257439E-02 9.341887968E-01
 6.951868412E-01 -3.177884910E-02 6.850176324E-01
 1.485078177E-01 -6.451938278E-02 8.520192236E-01
 5.500609072E-01 -5.184248351E-02 8.038252075E-01
 7.448696398E-01 -2.400212670E-02 6.547877362E-01
 3.844710587E-01 -6.936567090E-02 9.623941270E-01
 1.994473492E-01 -6.175634621E-02 8.751389019E-01
 2.036386338E-01 -8.237359326E-02 8.782564526E-01
 2.251276508E-01 -7.567617766E-02 8.894980902E-01
 1.542190286E-01 -5.308127494E-02 8.493580447E-01
 5.945893633E-01 -6.652010684E-02 7.675383776E-01
 1.425751867E-01 -5.401020789E-02 8.448103841E-01
 6.577469201E-02 -5.524713268E-02 7.934349811E-01
 4.015321039E-02 -4.773054585E-02 7.478621901E-01
 2.527701134E-01 -6.521266453E-02 9.037256903E-01
 2.445734996E-01 -8.161176436E-02 8.999190400E-01
 4.489013793E-01 -6.171168816E-02 9.256954026E-01
 6.145287303E-01 -4.389644063E-02 7.424894035E-01
 9.020184757E-02 -5.560915775E-02 8.167971426E-01
 1.083424105E-01 -6.703110451E-02 8.303800901E-01
 2.560631970E+00 2.058548659E-01 7.406135466E-01
 8.076631990E-01 -2.070776656E-02 6.223355656E-01
 2.266471120E-01 -6.119110699E-02 8.886047053E-01
 3.629852671E-01 -6.792910950E-02 9.618117312E-01
 -5.519040000E-03 -2.617056444E-02 5.273954390E-01
 1.029063972E+00 -2.227910308E-03 6.253759857E-01
 6.816405239E-02 -3.937110610E-02 7.945465634E-01
 2.650716512E-01 -7.719500659E-02 9.119343699E-01
 8.908126873E-01 -1.283682530E-02 5.873546625E-01
 4.781285827E-01 -7.051000317E-01 7.540666428E-01
 6.267704335E-01 -9.362146079E-02 7.491004145E-01
 5.899072284E-01 -4.794496588E-02 7.641625106E-01
 1.573233643E+00 -2.909395937E-02 7.297741530E-01
 6.583843119E-01 -5.266545382E-02 7.180799007E-01
 9.101904113E-01 -1.875423967E-02 5.876814040E-01
 9.308717282E-01 -2.087198053E-02 5.890413795E-01
 1.004960164E+00 -1.325587748E-01 6.600492005E-01
 6.520186032E-01 -3.840880640E-01 7.522750164E-01
 8.742279695E-01 -2.379364151E-02 5.999748153E-01
 8.201315458E-01 -3.050898665E-02 6.237131560E-01
 1.322573570E-01 -6.692304106E-02 8.424369673E-01
 3.200216020E-01 -8.081439661E-02 9.415982395E-01
 9.902922039E-01 5.869097663E-01 7.851888099E-01
 7.587994506E-01 3.311141128E-01 8.462461747E-01
 8.451586933E-01 4.361287984E-01 8.147774830E-01
 8.746567498E-01 2.139505758E-01 7.950590199E-01
 7.335885633E-01 5.821090535E-02 8.932605239E-01
 7.481856484E-01 1.738617057E-01 8.698996621E-01
 6.370011590E-01 7.033476257E-02 9.701187021E-01
 6.087821529E-01 7.265432599E-02 9.905613487E-01
 5.744503226E-01 4.953382615E-01 8.586339095E-01
 5.501208309E-01 2.601169412E-01 9.357272312E-01
 5.389593323E-01 7.431655104E-02 1.029500867E+00
 9.785690227E-01 2.255225341E-01 7.514379415E-01
 5.519123982E-01 6.787383473E-01 8.253555780E-01
 3.035158478E-01 3.774390763E-01 8.438693879E-01
 3.478711373E-01 7.590934982E-02 9.615432038E-01
 1.450245032E-01 5.081063851E-01 7.698208135E-01
 1.742963312E+00 -2.414835030E-01 7.309670640E-01
 3.133974596E+00 6.339745962E-01 7.317433068E-01
 7.833309256E-01 -3.382036813E-02 6.417507937E-01
 4.587778652E-01 3.598294506E-01 8.872797355E-01
 3.909274916E-01 2.401673430E-01 9.132017657E-01
 2.755630772E-01 2.560159817E-01 8.714096217E-01
 2.267286021E-01 6.828773127E-02 9.104223266E-01
 2.439280549E-01 7.142902187E-02 9.199562134E-01
 5.042261394E-01 1.773882722E-01 9.746828251E-01
 4.505375757E-01 8.238343324E-02 1.003575729E+00
 3.258700334E-01 1.783114281E-01 9.174971149E-01
 1.763359851E-01 3.237309558E-01 8.036056401E-01
 1.083869765E-01 2.219718463E-01 7.778811464E-01
 1.924746710E-01 1.624398797E-01 8.542977801E-01
 -4.287721712E-02 2.190930406E-01 6.910013572E-01
 4.378267600E-02 1.459144051E-01 7.260259073E-01
 8.493638877E-02 4.994764731E-02 8.075468537E-01
 -2.585995999E-02 1.099335809E-01 6.377019448E-01
 2.387403763E-02 2.849419631E-02 6.842824998E-01
 2.285118957E-02 8.917314476E-02 6.967169691E-01
 1.207836792E-01 1.397757424E-01 8.137986333E-01
 1.709299347E-01 1.101527155E-01 8.669847121E-01
 2.176294936E-01 1.149925984E-01 8.949195008E-01
 1.284256437E-01 9.080648281E-02 8.385990206E-01
 1.509576281E-01 6.082591749E-02 8.650044018E-01
 7.879424314E-02 9.714650088E-02 7.801098692E-01
 1.953322042E-01 9.144015716E-02 8.898876932E-01
 1.968953128E-01 7.132541405E-02 8.927602610E-01
 1.847892966E-01 6.482190260E-02 8.859768524E-01
 1.799611648E-01 7.977250485E-02 8.806617502E-01
 1.580642857E-01 7.715153119E-02 8.676402658E-01
 1.379305046E-01 5.845558543E-02 8.560221246E-01
 1.402463660E-01 7.095201237E-02 8.566817427E-01
 5.273052403E-02 6.901927174E-02 7.494280221E-01
 2.894033577E-02 5.931938922E-02 7.062052367E-01
 3.722815029E-02 3.457125799E-02 7.345190334E-01
 6.585625536E-02 5.523560044E-02 7.793533029E-01
 3.958585924E-02 4.746823435E-02 7.410386228E-01
 2.552684130E-02 4.033703306E-02 6.974705586E-01
 3.425778183E-03 4.959569207E-02 6.062757516E-01
 3.490763084E-03 1.294487248E-02 5.343631152E-01
 1.158503855E-02 2.074915705E-02 5.960741201E-01
 1.099998477E-02 3.072960077E-02 6.179510159E-01
 -5.724757426E-02 4.936623363E-02 5.705096613E-01
 1.797465031E-02 2.321602833E-02 6.449745282E-01
 -2.684135381E-02 3.109209039E-02 4.895356935E-01
 -1.723492805E-02 6.134011492E-03 3.828557076E-01
 -7.644430618E-03 -8.816075563E-04 2.450513463E-01
 -1.597946057E-03 -5.313003784E-03 3.371780875E-01
 -5.021876948E-03 -1.306653650E-02 4.357440249E-01
 -6.558787495E-03 3.042861713E-02 5.011060936E-01
 1.933742698E-03 2.361481294E-02 5.672058134E-01
 7.244721106E-03 1.561275977E-02 5.697185533E-01
 1.247147794E-01 6.710538165E-02 8.426168341E-01
 1.012382243E-01 7.546425756E-02 8.202159713E-01
 1.001076261E-01 5.814917736E-02 8.233870488E-01
 2.115459714E-01 6.702979202E-02 9.013958843E-01
 2.533048241E-01 1.669023149E-01 8.915236465E-01
 2.991006684E-01 1.290887730E-01 9.275702190E-01
 3.123475937E-01 7.770156055E-02 9.497693975E-01
 2.585217690E-01 1.081373703E-01 9.199748463E-01
 3.449892788E-01 1.239355397E-01 9.468898871E-01
 3.889992343E-01 1.593869780E-01 9.489570583E-01
 3.892765782E-01 1.193079465E-01 9.668618615E-01
 4.303517316E-01 1.316616935E-01 9.774459693E-01
 3.750158459E-01 8.046232624E-02 9.723302665E-01
 3.197542682E-01 1.028099909E-01 9.473536184E-01
 4.155048959E-01 1.076092458E-01 9.843534515E-01
 4.306239036E-01 9.056387007E-02 9.950960712E-01
 4.449899590E-01 1.035576606E-01 9.956259795E-01
 4.673096749E-01 9.433156804E-02 1.008103360E+00
 4.706598465E-01 1.290082601E-01 9.939044247E-01
 3.912953198E-01 9.273638181E-02 9.770809867E-01
 4.905479457E-01 9.928301563E-02 1.016703917E+00
 5.160848583E-01 7.661210718E-02 1.030687419E+00
 5.037534351E-01 8.095907799E-02 1.028167324E+00
 8.061054362E-02 6.749374255E-02 7.964677313E-01
 3.677870471E-01 9.796341503E-02 9.643183725E-01
 2.967946180E-01 7.403348886E-02 9.439085671E-01
 2.902792925E-01 9.225297113E-02 9.390918570E-01
 3.287422273E-01 8.526148958E-02 9.552017031E-01
 1.276164143E-01 5.430947966E-02 8.478134742E-01
 5.271671977E-01 7.832901084E-02 1.030043360E+00
 5.383592090E-01 9.079629419E-02 1.022444575E+00
 5.659120513E-01 7.855114404E-02 1.015632569E+00
 5.165292141E-01 9.721022563E-02 1.022419347E+00
 5.364212059E-01 1.139546706E-01 1.013641290E+00
 5.615151463E-01 1.026713642E-01 1.010155637E+00
 5.501406149E-01 1.376157837E-01 9.961130027E-01
 5.989714014E-01 1.176359056E-01 9.829939192E-01
 5.819809023E-01 1.756642862E-01 9.641983275E-01
 6.397169673E-01 1.507057112E-01 9.447988531E-01
 6.345896489E-01 2.178586739E-01 9.252334903E-01
 6.436544375E-01 1.081505821E-01 9.566000335E-01
 6.766764295E-01 1.216019052E-01 9.268127711E-01
 6.661547489E-01 9.089232156E-02 9.411983315E-01
 6.627511883E-01 7.016173373E-02 9.479110673E-01
 5.812618198E-01 9.006130459E-02 1.003046988E+00
 6.006655445E-01 8.923608700E-02 9.920115623E-01
 6.950981951E-01 9.115945809E-02 9.176596865E-01
 7.122871997E-01 6.113618934E-02 9.094272148E-01
 7.164982054E-01 1.252951528E-01 8.975308035E-01
 7.273373349E-01 8.831581559E-02 8.954171635E-01
 7.625931958E-01 1.124837094E-01 8.688185174E-01
 7.607747248E-01 5.706020166E-02 8.746586576E-01
 8.102449857E-01 1.636656566E-01 8.350153589E-01
 8.139039858E-01 9.930054722E-02 8.378194325E-01
 8.096053264E-01 4.694627657E-02 8.425157448E-01
 8.643219377E-01 1.287019255E-01 8.032033188E-01
 8.583090544E-01 8.195499894E-02 8.096676185E-01
 9.030803680E-01 1.000597050E-01 7.760516129E-01
 8.702387330E-01 4.041083234E-02 8.002626672E-01
 6.982825994E-01 6.235218429E-02 9.193531086E-01
 7.822478422E-01 8.425488139E-02 8.607521686E-01