TITLE     = "Visualization of the solution"
VARIABLES = "x"
"y"
"Mach"
ZONE T="Zone"
 STRANDID=0, SOLUTIONTIME=0
 Nodes=719, Elements=1223, ZONETYPE=FEQuadrilateral
 DATAPACKING=POINT
 DT=(DOUBLE DOUBLE DOUBLE )
 9.998319745E-01 5.078648101E-04 5.875491732E-01
 9.874702692E-01 2.813134342E-03 6.330662118E-01
 9.745644927E-01 5.254803225E-03 6.529853434E-01
 9.572654963E-01 8.409935050E-03 6.831170620E-01
 9.416701794E-01 1.128960215E-02 6.975901215E-01
 9.262396097E-01 1.417132281E-02 7.168587834E-01
 9.141171575E-01 1.641574875E-02 7.325239554E-01
 9.017450809E-01 1.870919205E-02 7.481387756E-01
 8.896073699E-01 2.088116109E-02 7.588818092E-01
 8.772971630E-01 2.301971614E-02 7.678920338E-01
 8.646701574E-01 2.518960834E-02 7.774469276E-01
 8.523727655E-01 2.728177793E-02 7.903435641E-01
 8.403193355E-01 2.930706553E-02 8.010014571E-01
 8.293539286E-01 3.105309233E-02 8.072276391E-01
 8.178499341E-01 3.286835551E-02 8.143432393E-01
 8.055189848E-01 3.478684276E-02 8.223319714E-01
 7.929520607E-01 3.668171540E-02 8.289795939E-01
 7.806736827E-01 3.850201517E-02 8.379740715E-01
 7.688600421E-01 4.026050121E-02 8.474847910E-01
 7.572460771E-01 4.191299900E-02 8.549635459E-01
 7.444180250E-01 4.371320456E-02 8.632358756E-01
 7.311276793E-01 4.553073272E-02 8.741455234E-01
 7.206960320E-01 4.693610966E-02 8.855234586E-01
 7.098170519E-01 4.836254939E-02 8.944531547E-01
 6.982608438E-01 4.980385676E-02 9.024427317E-01
 6.849667430E-01 5.143249035E-02 9.126662949E-01
 6.720770597E-01 5.295203626E-02 9.234703703E-01
 6.621077061E-01 5.407845601E-02 9.351275390E-01
 6.507146358E-01 5.535298958E-02 9.478158694E-01
 6.390286684E-01 5.657691136E-02 9.590247759E-01
 6.274709105E-01 5.772792548E-02 9.701581201E-01
 6.161602139E-01 5.881392956E-02 9.789541810E-01
 6.053824425E-01 5.975427106E-02 9.858193378E-01
 5.932199955E-01 6.078631803E-02 9.940079898E-01
 5.817782283E-01 6.168441102E-02 1.000843887E+00
 5.685702562E-01 6.261835247E-02 1.007556172E+00
 5.564498901E-01 6.343270838E-02 1.013947705E+00
 5.443682075E-01 6.413082778E-02 1.018488550E+00
 5.335752964E-01 6.471858919E-02 1.021845800E+00
 5.222270489E-01 6.525862962E-02 1.021824262E+00
 5.100017786E-01 6.575066596E-02 1.021259450E+00
 4.989007413E-01 6.615261734E-02 1.020018453E+00
 4.858871400E-01 6.653045118E-02 1.016576244E+00
 4.725630283E-01 6.682277471E-02 1.011881103E+00
 4.586078823E-01 6.703808904E-02 1.007721527E+00
 4.455038607E-01 6.716255099E-02 1.002848251E+00
 4.326824844E-01 6.718770415E-02 9.980527570E-01
 4.201043546E-01 6.716186553E-02 9.940181479E-01
 4.076710939E-01 6.705584377E-02 9.885696706E-01
 3.953941166E-01 6.689072400E-02 9.827821084E-01
 3.830582201E-01 6.665614992E-02 9.773663027E-01
 3.715093732E-01 6.636770815E-02 9.719718149E-01
 3.587124944E-01 6.599922478E-02 9.664667883E-01
 3.461576402E-01 6.555619091E-02 9.598519741E-01
 3.330511153E-01 6.501404196E-02 9.545680056E-01
 3.220280707E-01 6.452243030E-02 9.504271125E-01
 3.093584776E-01 6.387693435E-02 9.447525518E-01
 2.961289883E-01 6.312009692E-02 9.385670763E-01
 2.821238339E-01 6.223371997E-02 9.337138921E-01
 2.700185478E-01 6.141024828E-02 9.289840370E-01
 2.580885589E-01 6.051864475E-02 9.231384449E-01
 2.457169592E-01 5.952806398E-02 9.171820073E-01
 2.332017273E-01 5.844530091E-02 9.103808860E-01
 2.210257649E-01 5.730899423E-02 9.039058456E-01
 2.091237754E-01 5.611616373E-02 8.977133860E-01
 1.974269450E-01 5.487562343E-02 8.920081621E-01
 1.848847121E-01 5.345970020E-02 8.859505333E-01
 1.729334593E-01 5.201069266E-02 8.791844160E-01
 1.613548100E-01 5.052249506E-02 8.726551377E-01
 1.493694782E-01 4.888541624E-02 8.653574534E-01
 1.386040300E-01 4.731182009E-02 8.572891004E-01
 1.267998219E-01 4.549284652E-02 8.496471132E-01
 1.153204963E-01 4.359241948E-02 8.417943113E-01
 1.048067138E-01 4.173405468E-02 8.333775063E-01
 9.501231462E-02 3.989640996E-02 8.234653866E-01
 8.397109807E-02 3.768272325E-02 8.118851430E-01
 7.251622528E-02 3.519839421E-02 7.990351923E-01
 6.281328201E-02 3.292329982E-02 7.841145608E-01
 5.311914533E-02 3.044934012E-02 7.708273154E-01
 4.458295926E-02 2.806860954E-02 7.565889726E-01
 3.724992275E-02 2.584012784E-02 7.431483092E-01
 3.066663444E-02 2.365602739E-02 7.277696984E-01
 2.509574033E-02 2.163033187E-02 7.092425956E-01
 2.101026475E-02 2.000769787E-02 6.915312704E-01
 1.715886407E-02 1.834127679E-02 6.715270112E-01
 1.411672682E-02 1.690677181E-02 6.535539092E-01
 1.132579241E-02 1.547218952E-02 6.368575663E-01
 9.300222620E-03 1.433974411E-02 6.202223843E-01
 7.503408007E-03 1.324580424E-02 5.925718525E-01
 5.859071855E-03 1.214770880E-02 5.444028326E-01
 3.702419112E-03 1.052910928E-02 4.707560487E-01
 1.830414985E-03 8.848123252E-03 3.907596333E-01
 2.695849398E-04 7.094368804E-03 3.211154770E-01
 -1.217263867E-03 4.669234157E-03 1.388860393E-01
 -1.822471619E-03 2.847870113E-03 1.186104422E-01
 -1.994441263E-03 1.388729783E-03 1.203257016E-01
 -1.872402965E-03 -1.622338896E-04 2.250005718E-01
 -1.445299829E-03 -1.712828060E-03 2.721055322E-01
 -5.393512547E-04 -3.552261740E-03 3.825406824E-01
 8.125121240E-04 -5.422220565E-03 4.358141466E-01
 2.715045353E-03 -7.384930272E-03 4.810619395E-01
 4.461808130E-03 -8.851477876E-03 5.339622775E-01
 6.423153915E-03 -1.026964188E-02 5.750838050E-01
 8.023660630E-03 -1.130372472E-02 6.051260184E-01
 1.002462674E-02 -1.247887313E-02 6.201211173E-01
 1.232052222E-02 -1.370317396E-02 6.369647865E-01
 1.548393629E-02 -1.522359997E-02 6.585735227E-01
 1.831352338E-02 -1.645684801E-02 6.800510741E-01
 2.196387202E-02 -1.790547371E-02 7.026039867E-01
 2.718855813E-02 -1.977805421E-02 7.232884241E-01
 3.282804042E-02 -2.158537321E-02 7.391601124E-01
 3.968279064E-02 -2.356361598E-02 7.539421868E-01
 4.719539732E-02 -2.551664598E-02 7.649872859E-01
 5.591362342E-02 -2.756976523E-02 7.758012146E-01
 6.457473338E-02 -2.942486852E-02 7.882606788E-01
 7.449751347E-02 -3.138207644E-02 7.989539815E-01
 8.447972685E-02 -3.319683671E-02 8.062678293E-01
 9.477300942E-02 -3.494551405E-02 8.133023054E-01
 1.058023721E-01 -3.668788075E-02 8.185223203E-01
 1.171526238E-01 -3.836295381E-02 8.246870990E-01
 1.288839281E-01 -3.999025375E-02 8.312255854E-01
 1.397586018E-01 -4.140245169E-02 8.366904733E-01
 1.508590430E-01 -4.276849702E-02 8.431096833E-01
 1.630333662E-01 -4.418132454E-02 8.491718509E-01
 1.747966111E-01 -4.546019435E-02 8.558892494E-01
 1.868763268E-01 -4.669803753E-02 8.631582365E-01
 1.976974308E-01 -4.774031788E-02 8.703829668E-01
 2.091377079E-01 -4.877025262E-02 8.775814228E-01
 2.216777503E-01 -4.982854798E-02 8.844757462E-01
 2.344062030E-01 -5.080525205E-02 8.919943533E-01
 2.469455898E-01 -5.170331150E-02 9.002961851E-01
 2.594910860E-01 -5.250337347E-02 9.091013681E-01
 2.708744407E-01 -5.315089226E-02 9.168919243E-01
 2.837985456E-01 -5.380272120E-02 9.242600293E-01
 2.962748110E-01 -5.433757603E-02 9.311621133E-01
 3.092972636E-01 -5.479168519E-02 9.387609199E-01
 3.213516176E-01 -5.511919782E-02 9.474708205E-01
 3.340140581E-01 -5.535425991E-02 9.557519040E-01
 3.450928032E-01 -5.547275022E-02 9.616935087E-01
 3.566358685E-01 -5.550369993E-02 9.670359728E-01
 3.674651384E-01 -5.540563166E-02 9.686970967E-01
 3.785279095E-01 -5.525099486E-02 9.687062630E-01
 3.902440071E-01 -5.496104062E-02 9.672208677E-01
 4.032120407E-01 -5.450776219E-02 9.615669939E-01
 4.159239829E-01 -5.396155268E-02 9.558441056E-01
 4.287950695E-01 -5.324817821E-02 9.468339086E-01
 4.410687387E-01 -5.242761225E-02 9.331044708E-01
 4.530672729E-01 -5.152668059E-02 9.179562339E-01
 4.649026096E-01 -5.053670332E-02 9.033744459E-01
 4.771814346E-01 -4.940299317E-02 8.882906449E-01
 4.887164533E-01 -4.825321957E-02 8.732626396E-01
 5.011222959E-01 -4.691666737E-02 8.563106429E-01
 5.147123933E-01 -4.536128417E-02 8.393787641E-01
 5.279394388E-01 -4.378351942E-02 8.240347811E-01
 5.412197113E-01 -4.211388528E-02 8.097136668E-01
 5.536696911E-01 -4.050365835E-02 7.956263925E-01
 5.669057369E-01 -3.875823319E-02 7.826794522E-01
 5.794905424E-01 -3.703926504E-02 7.700385731E-01
 5.916211009E-01 -3.539443016E-02 7.577213538E-01
 6.039696336E-01 -3.366813064E-02 7.459814029E-01
 6.180340052E-01 -3.172108158E-02 7.347327474E-01
 6.324927211E-01 -2.973160334E-02 7.249169706E-01
 6.468282342E-01 -2.770940028E-02 7.137033692E-01
 6.597479582E-01 -2.590801567E-02 7.027527465E-01
 6.730147600E-01 -2.407661453E-02 6.950379234E-01
 6.853154302E-01 -2.239010669E-02 6.871906339E-01
 6.975179911E-01 -2.071624435E-02 6.774041484E-01
 7.117055058E-01 -1.878847927E-02 6.697853448E-01
 7.246346474E-01 -1.709390990E-02 6.624165705E-01
 7.366304398E-01 -1.552122179E-02 6.546315365E-01
 7.494961619E-01 -1.384968217E-02 6.461962086E-01
 7.618209124E-01 -1.230794657E-02 6.391022411E-01
 7.749029994E-01 -1.071128342E-02 6.330712003E-01
 7.867590785E-01 -9.331245907E-03 6.275245780E-01
 7.995589375E-01 -7.857168093E-03 6.202238423E-01
 8.102284074E-01 -6.659634411E-03 6.127180548E-01
 8.218001127E-01 -5.438872147E-03 6.054085754E-01
 8.349620104E-01 -4.170898814E-03 6.005548291E-01
 8.473921418E-01 -3.015540540E-03 5.954094437E-01
 8.596125245E-01 -2.001614776E-03 5.898107841E-01
 8.711749315E-01 -1.120569301E-03 5.850053533E-01
 8.829512000E-01 -3.379011468E-04 5.809768967E-01
 8.962179422E-01 3.863137390E-04 5.781821771E-01
 9.068333507E-01 8.396363701E-04 5.763850009E-01
 9.174019694E-01 1.199712860E-03 5.755951879E-01
 9.269695878E-01 1.432723599E-03 5.751884728E-01
 9.358920455E-01 1.570949913E-03 5.753516702E-01
 9.479750395E-01 1.641271170E-03 5.774005413E-01
 9.609544873E-01 1.577988383E-03 5.767410009E-01
 9.755805135E-01 1.338078640E-03 5.784591798E-01
 9.878084660E-01 9.848879417E-04 5.828272849E-01
 -5.000000000E-01 -1.000000000E+00 7.130041645E-01
 3.500000000E+00 -1.000000000E+00 7.304668649E-01
 3.500000000E+00 1.000000000E+00 7.277655491E-01
 -5.000000000E-01 1.000000000E+00 7.127687482E-01
 -5.000000000E-01 5.000000000E-01 6.991615708E-01
 -5.000000000E-01 2.752797990E-12 6.868013365E-01
 -5.000000000E-01 -5.000000000E-01 6.990166870E-01
 -9.421907698E-13 -1.000000000E+00 7.248625414E-01
 5.000000000E-01 -1.000000000E+00 7.420285231E-01
 1.000000000E+00 -1.000000000E+00 7.275546725E-01
 1.500000000E+00 -1.000000000E+00 7.185084023E-01
 2.000000000E+00 -1.000000000E+00 7.217701162E-01
 2.500000000E+00 -1.000000000E+00 7.256449928E-01
 3.000000000E+00 -1.000000000E+00 7.277174981E-01
 3.500000000E+00 -5.000000000E-01 7.334234384E-01
 3.500000000E+00 -2.752797990E-12 7.353618310E-01
 3.500000000E+00 5.000000000E-01 7.324106129E-01
 3.000000000E+00 1.000000000E+00 7.252794649E-01
 2.500000000E+00 1.000000000E+00 7.279315991E-01
 2.000000000E+00 1.000000000E+00 7.333851158E-01
 1.500000000E+00 1.000000000E+00 7.473972448E-01
 1.000000000E+00 1.000000000E+00 7.720769847E-01
 5.000000000E-01 1.000000000E+00 7.744531006E-01
 1.733724275E-12 1.000000000E+00 7.299002939E-01
 6.791976017E-01 -3.313531796E-02 6.980333402E-01
 7.814803095E-01 -2.288971309E-02 6.399197526E-01
 9.036851106E-01 -1.041858643E-02 5.872914859E-01
 5.880305639E-01 -4.546661891E-02 7.662769681E-01
 7.062481835E-01 6.001015765E-02 8.966463225E-01
 2.742656846E-01 7.426803360E-02 9.290008468E-01
 3.658142412E-01 7.674597358E-02 9.681320969E-01
 2.884072045E-01 -6.616618052E-02 9.295873724E-01
 9.090268794E-01 3.190917658E-02 7.428421184E-01
 8.144305494E-01 4.525755270E-02 8.177596414E-01
 1.910872877E-01 -5.886493471E-02 8.728815873E-01
 6.106777524E-01 7.069470465E-02 9.793111107E-01
 4.610084636E-01 -5.997205110E-02 9.086833004E-01
 5.165056863E-01 7.522631353E-02 1.017307767E+00
 1.709339981E+00 -5.252667832E-01 7.261913802E-01
 1.761161457E+00 5.894523038E-01 7.441002553E-01
 3.031156552E+00 2.156929542E-01 7.383908159E-01
 7.584218961E-01 -5.408047774E-01 7.348265762E-01
 3.738069632E-01 -6.902801900E-02 9.668413189E-01
 7.631772027E-01 5.223805867E-01 8.225435156E-01
 3.334512582E-01 6.151679045E-01 8.047192889E-01
 1.203794283E-01 5.624302465E-02 8.415054373E-01
 1.786267674E-01 6.442760052E-02 8.805010114E-01
 4.404192007E-01 7.704383131E-02 9.980147144E-01
 2.734894509E+00 -5.326449311E-01 7.332633765E-01
 1.161496007E+00 6.863188832E-01 7.660756291E-01
 9.875053728E-01 3.251566370E-01 7.567093356E-01
 1.229009668E+00 -5.963750900E-01 7.154991002E-01
 1.517371017E+00 -2.233383301E-01 7.265005360E-01
 2.180355109E-01 -6.231819320E-01 7.559470419E-01
 7.791946018E-02 -4.092072872E-02 8.067515272E-01
 2.227808617E+00 -5.762066569E-01 7.310419171E-01
 2.002218541E+00 -2.151488082E-01 7.356313034E-01
 2.412966177E+00 -1.849357407E-01 7.377929231E-01
 2.184776722E+00 1.585963122E-01 7.412553992E-01
 1.848729544E+00 9.694922845E-02 7.385026725E-01
 -2.710302205E-01 -2.546282919E-01 6.820839691E-01
 -1.823902162E-01 -5.678888297E-01 7.100785359E-01
 -2.534147137E-01 2.500000000E-01 6.786018689E-01
 -1.552758239E-01 6.946586446E-01 7.194412441E-01
 2.629365082E-02 3.295348871E-01 7.359083349E-01
 4.313635756E-02 4.109198707E-02 7.347210893E-01
 2.207707505E+00 5.810929093E-01 7.395061708E-01
 2.740773928E+00 6.005045301E-01 7.355707101E-01
 -2.509925130E-01 -9.938124277E-04 6.599426500E-01
 -1.421415311E-01 -1.288688350E-01 6.528182501E-01
 3.216277650E-02 -2.831990332E-02 7.297686121E-01
 1.888476271E-02 -3.693341936E-01 7.322573468E-01
 1.364384856E-01 -5.123727713E-02 8.431960061E-01
 2.917186549E-01 -2.984465197E-01 8.325222121E-01
 -1.393133263E-01 9.898037605E-02 6.452218243E-01
 -1.264760869E-01 -1.619984972E-03 6.179894808E-01
 -5.738465104E-02 -6.633530049E-02 6.061262223E-01
 -5.031965413E-02 -1.500301755E-01 6.655041765E-01
 2.338958206E-03 -9.358039587E-02 6.789406541E-01
 2.495099435E-02 -1.998894238E-01 7.265698971E-01
 -1.458933437E-02 -5.286764608E-02 6.004885934E-01
 1.928800119E-02 -2.119800343E-02 6.846572220E-01
 8.512801721E-03 -1.606025410E-02 5.933788723E-01
 -5.494325909E-02 -1.266758320E-02 5.438810380E-01
 6.601240520E-02 -1.069122670E-01 7.750694929E-01
 1.146073986E-01 -1.577073522E-01 8.014864181E-01
 2.398948871E-01 -6.475851984E-02 9.007269154E-01
 1.201612600E-01 -9.735146971E-02 8.322940611E-01
 1.756428207E-01 -1.237463617E-01 8.561937232E-01
 1.879675569E-01 -1.891341775E-01 8.347696019E-01
 2.366203599E-01 -1.469348774E-01 8.786702768E-01
 1.204887960E-01 -2.637437626E-01 7.792537351E-01
 1.564938401E-01 -8.584927751E-02 8.603424327E-01
 1.659494284E-01 -5.381925963E-02 8.572503058E-01
 2.230288942E-01 -1.057158389E-01 8.926727157E-01
 2.141929209E-01 -6.224794937E-02 8.859718323E-01
 2.714810465E-01 -1.075374821E-01 9.151739632E-01
 2.941580361E-01 -1.525627657E-01 8.993553950E-01
 3.390923021E-01 -7.029694751E-02 9.575244875E-01
 2.650605312E-01 -6.534989873E-02 9.165047699E-01
 3.186807234E-01 -1.099587566E-01 9.347959803E-01
 3.460302323E-01 -1.514759715E-01 9.157934934E-01
 4.082695214E-01 -6.778783894E-02 9.565398213E-01
 3.161869187E-01 -6.436577204E-02 9.455121183E-01
 3.617567469E-01 -1.108003540E-01 9.461719627E-01
 3.950204526E-01 -1.450635418E-01 9.207527292E-01
 5.239926353E-01 -5.811980533E-02 8.319329561E-01
 4.981029683E-01 -6.146334594E-02 8.635879904E-01
 5.501284408E-01 -5.357436885E-02 8.042502654E-01
 3.883715702E-01 -1.904132169E-01 8.919825614E-01
 4.504172722E-01 -1.882223759E-01 8.729540781E-01
 4.038491689E-01 -2.788241424E-01 8.457736469E-01
 5.162167554E-01 -2.460033699E-01 8.131268479E-01
 4.905012996E-01 -3.659920102E-01 8.020275068E-01
 5.580241331E-01 -1.703264557E-01 8.009116372E-01
 6.136838961E-01 -2.149130228E-01 7.648857202E-01
 6.387109504E-01 -1.397634409E-01 7.525742580E-01
 7.330519994E-01 -2.547044144E-02 6.654943326E-01
 6.965736634E-01 -1.843311781E-01 7.262844251E-01
 8.424940159E-01 -1.700677135E-02 6.092305069E-01
 8.161526245E-01 -1.503249782E-02 6.170102222E-01
 7.579016300E-01 -2.421623964E-02 6.515181736E-01
 8.652101954E-01 -1.291393920E-02 5.986653926E-01
 6.429806074E-01 -4.187268290E-02 7.248235246E-01
 7.174004222E-01 -1.111025298E-01 7.078706653E-01
 7.756094933E-01 -1.610770428E-01 6.936526045E-01
 7.892409759E-01 -9.552109368E-02 6.733774438E-01
 7.668107870E-01 -2.595555269E-01 7.108080327E-01
 8.575170650E-01 -2.313111910E-01 6.868585551E-01
 9.680884471E-01 -9.457897642E-03 5.922138388E-01
 9.413317451E-01 -9.332051937E-03 5.863185521E-01
 4.831945861E-01 -1.304215276E-01 8.686003980E-01
 5.844371913E-01 -1.133460552E-01 7.865586068E-01
 4.358411772E-01 -1.091112573E-01 9.187277728E-01
 4.352013291E-01 -6.583766071E-02 9.378336190E-01
 6.681085927E-01 -8.794198753E-02 7.294405706E-01
 8.438177861E-01 -3.597737713E-01 7.072473391E-01
 9.686154012E-01 -2.788740275E-01 6.885290421E-01
 9.959333843E-01 -1.578043465E-01 6.689872005E-01
 1.091742658E+00 -2.127069994E-01 6.939328155E-01
 1.105195505E+00 -9.180661281E-02 6.852024097E-01
 1.225921225E+00 -1.474554521E-01 7.086296743E-01
 1.210815336E+00 -2.794521930E-02 7.000006771E-01
 1.113276363E+00 1.702070386E-02 6.841653983E-01
 1.230488628E+00 1.183595205E-01 7.157163280E-01
 1.025942563E+00 -8.337698135E-02 6.622636085E-01
 1.359734131E+00 -3.110025670E-02 7.180190374E-01
 1.394203334E+00 2.202403122E-01 7.339508547E-01
 8.889660497E-01 -1.163802427E-01 6.540196388E-01
 9.768844725E-01 -4.740368991E-01 7.089625067E-01
 7.515701630E-01 -7.171579048E-02 6.801492043E-01
 1.085112020E+00 1.730580062E-01 7.214187543E-01
 9.697217904E-01 2.053140096E-02 6.683508153E-01
 1.229114604E+00 -3.244680597E-01 7.109193892E-01
 1.046108156E+00 8.604764493E-02 6.934121883E-01
 3.109386570E+00 -2.612339424E-01 7.368659603E-01
 3.773753059E-02 -7.240990093E-02 7.457786329E-01
 5.889418778E-02 -3.702936135E-02 7.846879314E-01
 1.300299965E-02 -5.133157906E-02 6.751063992E-01
 9.607148671E-01 1.945547080E-01 7.506921571E-01
 8.615109970E-01 3.789871344E-02 7.840451802E-01
 8.568929292E-01 2.726427793E-01 7.952737743E-01
 8.547912464E-01 1.593076611E-01 7.966946531E-01
 7.503540846E-01 5.640824286E-02 8.614920252E-01
 7.775460701E-01 5.101694927E-02 8.423103657E-01
 7.576834567E-01 2.142506087E-01 8.483914969E-01
 6.561887737E-01 6.346858333E-02 9.407868746E-01
 9.252869798E-01 1.182605164E-01 7.527476891E-01
 7.741842112E-01 1.370201670E-01 8.431085725E-01
 6.912387834E-01 1.641954354E-01 8.987821134E-01
 6.775940645E-01 2.303572825E-01 8.991213329E-01
 5.625485566E-01 7.791186297E-02 1.005460644E+00
 6.052749527E-01 1.836626893E-01 9.445326302E-01
 5.863955211E-01 2.727293512E-01 9.162900700E-01
 5.124672732E-01 2.067189452E-01 9.527107297E-01
 4.808164951E-01 7.824201809E-02 1.010078472E+00
 4.813051113E-01 3.128164958E-01 9.095900902E-01
 4.037115766E-01 2.333755299E-01 9.267241433E-01
 6.408116050E-01 1.249193439E-01 9.427569957E-01
 5.853456562E-01 1.309739251E-01 9.749600086E-01
 4.462211266E-01 1.596098769E-01 9.663804563E-01
 4.013896074E-01 7.760545811E-02 9.830195875E-01
 3.619315827E-01 1.707617855E-01 9.339090580E-01
 3.162298572E-01 7.742090767E-02 9.458058043E-01
 3.390976201E-01 8.036182787E-02 9.548560612E-01
 3.118063188E-01 2.419692863E-01 8.898305646E-01
 2.244582214E-01 7.172737096E-02 9.051473508E-01
 2.704210670E-01 1.720915695E-01 8.968901491E-01
 2.254260774E-01 2.307372934E-01 8.546753125E-01
 1.701911925E-01 1.679527797E-01 8.413576698E-01
 5.035129390E-01 1.375883973E-01 9.873727255E-01
 6.870208212E-01 1.115941516E-01 9.093546061E-01
 6.804624572E-01 6.173452129E-02 9.164583701E-01
 8.237883259E-01 1.040804805E-01 8.153344431E-01
 3.643970140E-01 3.274174638E-01 8.849576044E-01
 2.386741646E-01 3.719727804E-01 8.215629216E-01
 4.014444255E-01 1.299159226E-01 9.655173778E-01
 3.199718955E-01 1.317948962E-01 9.319476239E-01
 2.262822401E-01 1.269910651E-01 8.879644769E-01
 1.173305497E+00 3.444078814E-01 7.434305245E-01
 5.965085538E-01 4.079762546E-01 8.720917979E-01
 7.855417573E-01 9.231179669E-02 8.395089942E-01
 7.479357462E-01 9.894801181E-02 8.628090539E-01
 7.272143810E-01 5.764581782E-02 8.804186746E-01
 4.661365572E-01 1.177515849E-01 9.900696408E-01
 6.096310536E-01 1.030741953E-01 9.704953335E-01
 5.893248760E-01 7.001087256E-02 9.934598051E-01
 6.404035098E-01 9.274026574E-02 9.518941115E-01
 6.362234757E-01 7.184793828E-02 9.589100458E-01
 4.316996020E-01 1.123588467E-01 9.829585421E-01
 1.436011701E+00 5.305113014E-01 7.477285165E-01
 7.305372516E-01 3.299232769E-01 8.500203798E-01
 6.661865706E-01 9.059660592E-02 9.310163548E-01
 -2.872958397E-02 -2.870253435E-02 5.319768690E-01
 1.284447187E-03 -9.255263523E-03 4.569574115E-01
 2.573525736E-01 -2.089651706E-01 8.589141497E-01
 4.714421805E-01 -9.603058861E-02 8.932312487E-01
 4.995078375E-01 -1.006015653E-01 8.616153309E-01
 6.926550252E-01 6.286729996E-02 9.064935396E-01
 7.034034064E-01 7.325541286E-02 8.994286491E-01
 5.988620910E-01 6.920038482E-02 9.875881986E-01
 7.182484530E-01 6.977702053E-02 8.885183803E-01
 7.369383909E-01 7.124371913E-02 8.731605468E-01
 7.592255003E-01 7.490095702E-02 8.558254874E-01
 6.264405989E-01 -4.490125568E-02 7.372363462E-01
 6.406994903E-01 -6.431782481E-02 7.380910118E-01
 6.135642155E-01 -6.177465080E-02 7.545040016E-01
 6.585713886E-01 -5.320316295E-02 7.219645970E-01
 6.251509184E-01 -9.185228278E-02 7.576287916E-01
 6.912867998E-01 -6.623065185E-02 7.095569786E-01
 7.046317365E-01 -2.991518719E-02 6.820077666E-01
 7.202204840E-01 -6.132040966E-02 6.931033971E-01
 5.905803153E-01 -7.944302054E-02 7.783336981E-01
 5.554250154E-01 -8.567572905E-02 8.086170813E-01
 5.665740818E-01 -6.435898367E-02 7.927800539E-01
 6.127177808E-01 -4.508973271E-02 7.456287420E-01
 4.918670498E-01 1.071114296E-01 1.001298581E+00
 5.413955951E-01 1.144019744E-01 9.958590392E-01
 5.385754817E-01 7.336013594E-02 1.016223217E+00
 5.488277527E-01 1.550344429E-01 9.774685508E-01
 6.549776074E-01 -3.760524084E-02 7.136438317E-01
 4.708888625E-01 -5.883974014E-02 8.975096016E-01
 8.002435224E-01 4.795496631E-02 8.264272610E-01
 8.118292817E-01 6.874110170E-02 8.209911652E-01
 8.377049555E-01 4.144386378E-02 8.031281397E-01
 8.413655251E-01 7.396999648E-02 8.024595066E-01
 8.681406673E-01 1.028369847E-01 7.847044289E-01
 9.064069300E-01 7.780949587E-02 7.563403475E-01
 8.849158393E-01 3.485206435E-02 7.649839685E-01
 9.506847227E-01 7.659098151E-02 7.199922298E-01
 9.366706021E-01 2.792258470E-02 7.113782277E-01
 7.904592228E-01 6.287413424E-02 8.350359441E-01
 8.274926247E-01 5.569045116E-02 8.091348168E-01
 6.670686701E-01 -3.751750405E-02 7.071320047E-01
 4.637500213E-01 7.997997724E-02 1.005047775E+00
 3.024088862E-01 -6.538016374E-02 9.380622720E-01
 2.962280634E-01 -8.477970699E-02 9.352222891E-01
 2.754736851E-01 -7.816355797E-02 9.243586969E-01
 2.524374294E-01 -8.107619861E-02 9.109827697E-01
 2.767228814E-01 -6.332665014E-02 9.225299442E-01
 9.022258959E-02 -7.844708696E-02 8.205944071E-01
 1.065417060E-01 -4.686783938E-02 8.258637008E-01
 7.455183461E-01 -2.663004421E-02 6.596863660E-01
 7.376602070E-01 -4.225599620E-02 6.745307018E-01
 7.718718923E-01 -5.073570419E-02 6.628494441E-01
 8.148307765E-01 -6.107164092E-02 6.492943705E-01
 8.455348977E-01 -9.319246463E-02 6.544826881E-01
 8.560379288E-01 -5.101351300E-02 6.308649725E-01
 9.175995455E-01 -7.439934136E-02 6.345858049E-01
 8.900303395E-01 -4.522060762E-02 6.203629014E-01
 8.352804950E-01 -3.344268136E-02 6.261028641E-01
 1.257413160E-01 2.475112932E-01 7.897813949E-01
 8.742522401E-02 1.666678411E-01 7.745395417E-01
 7.544825292E-02 4.543783861E-02 7.912603855E-01
 1.277578729E-01 1.210196914E-01 8.267729918E-01
 7.127986351E-02 1.067369357E-01 7.698833851E-01
 1.495979752E-02 1.447274077E-01 6.998475831E-01
 2.235407676E-02 2.566555898E-02 6.823734892E-01
 1.745785203E-02 8.460191418E-02 6.749522864E-01
 1.769009664E-01 1.063654371E-01 8.685556748E-01
 1.477714291E-01 8.716749303E-02 8.539778960E-01
 1.416800244E-01 5.655390598E-02 8.570747742E-01
 1.129647758E-01 8.828366640E-02 8.256892364E-01
 9.711900508E-02 5.001985883E-02 8.217090252E-01
 5.111344489E-01 -5.772041517E-02 8.470685051E-01
 6.462583176E-01 6.573533025E-02 9.500644205E-01
 6.222395615E-01 8.263817026E-02 9.687466877E-01
 6.047648600E-01 -3.335112033E-01 7.665084928E-01
 5.960086658E-01 8.390859012E-02 9.843724089E-01
 5.746132515E-01 9.651071510E-02 9.921861432E-01
 -5.699418966E-03 -3.267821573E-02 5.662567301E-01
 6.679715933E-01 6.717640622E-02 9.281756247E-01
 7.190580562E-01 -3.488499212E-02 6.774375952E-01
 5.407143712E-01 -6.717511628E-02 8.177484425E-01
 5.177419518E-01 -7.674097307E-02 8.425078108E-01
 1.529869235E-01 6.465035690E-02 8.641574183E-01
 5.623854301E-01 -4.914348187E-02 7.907734989E-01
 6.225543828E-01 6.834453364E-02 9.716512593E-01
 2.526369915E-01 -6.263339970E-02 9.082439434E-01
 4.507312785E-01 7.714049113E-02 1.002083918E+00
 8.495668671E-01 3.774347741E-02 7.951983923E-01
 8.518263506E-01 5.316494446E-02 7.934886143E-01
 8.729540347E-01 4.783899380E-02 7.757560827E-01
 6.928663179E-01 -3.212090326E-02 6.913012194E-01
 6.534971308E-02 -6.868531682E-02 7.993230269E-01
 4.340267737E-02 -5.036814447E-02 7.626785936E-01
 2.292247966E-02 -3.682577058E-02 7.141204192E-01
 4.273374574E-01 8.422458852E-02 9.919147696E-01
 8.764461166E-01 -9.986292391E-03 5.925437100E-01
 1.321546484E-01 5.553068050E-02 8.503710241E-01
 8.066694817E-01 -1.569527587E-02 6.225069059E-01
 8.127042994E-01 -2.876200558E-02 6.311762660E-01
 7.906938455E-01 -4.027357374E-02 6.484368987E-01
 7.963109920E-01 -2.080149705E-02 6.320451676E-01
 1.671188680E-01 6.174065975E-02 8.740708425E-01
 1.686333354E-01 7.710862895E-02 8.723799685E-01
 2.012013967E-01 6.778496219E-02 8.920793737E-01
 1.875865328E-01 7.786317312E-02 8.831388476E-01
 2.082165930E-01 8.603465013E-02 8.939092445E-01
 2.394278750E-01 8.933019698E-02 9.092885277E-01
 2.651976083E-01 1.150498362E-01 9.159465286E-01
 2.512020095E-01 7.265306571E-02 9.185978834E-01
 2.963723908E-01 1.023719722E-01 9.321706070E-01
 1.899798502E-01 6.414402871E-02 8.868823320E-01
 6.008364160E-01 -4.710712374E-02 7.566004238E-01
 5.746492002E-01 -4.852216528E-02 7.786294044E-01
 2.385307424E-01 6.972001434E-02 9.127634951E-01
 5.367989195E-01 -5.295333903E-02 8.179330640E-01
 8.691662462E-02 -5.526039418E-02 8.195153377E-01
 7.164448203E-01 5.654633101E-02 8.895162073E-01
 2.555612441E+00 2.090789807E-01 7.407123881E-01
 4.135257814E-01 7.786351358E-02 9.887851948E-01
 4.102420559E-01 9.571691043E-02 9.825884134E-01
 3.860554619E-01 9.233313301E-02 9.738436313E-01
 8.759398248E-01 -2.590510228E-02 6.073180882E-01
 8.548557372E-01 -2.554711426E-02 6.135694590E-01
 8.253663984E-01 4.126266310E-02 8.102425345E-01
 7.883749117E-01 4.740595608E-02 8.337195651E-01
 1.929910451E-01 -9.032588803E-02 8.790542215E-01
 1.487950262E-01 -6.431890382E-02 8.565387021E-01
 7.642803825E-01 5.497799225E-02 8.515705787E-01
 5.824882667E-02 7.317974186E-02 7.593947212E-01
 9.544895567E-01 -1.059911338E-02 5.887253377E-01
 9.612803643E-01 -2.724207309E-02 6.064924489E-01
 9.838506529E-01 -2.504979316E-02 6.035992375E-01
 9.714924619E-01 -4.574159932E-02 6.229931235E-01
 9.459629907E-01 -4.779727325E-02 6.199662151E-01
 9.638303463E-01 -8.145049459E-02 6.427262700E-01
 9.452810715E-01 -2.419689527E-02 6.010237548E-01
 9.231789783E-01 -8.199448673E-03 5.839930508E-01
 9.210533112E-01 -3.653448552E-02 6.103285775E-01
 9.138926922E-01 -7.216889260E-03 5.834483655E-01
 2.128051503E-01 6.779442825E-02 8.983061654E-01
 9.888088560E-01 1.173283029E-01 7.150928170E-01
 9.941599564E-01 4.587535630E-02 6.746611695E-01
 1.038638997E+00 2.501827951E-02 6.531263661E-01
 1.039818537E+00 -2.436017236E-02 6.436077104E-01
 1.298873695E-01 -7.012332289E-02 8.483938223E-01
 6.783810029E-01 -5.126875269E-02 7.086895940E-01
 1.094299360E-02 -3.203652918E-02 6.454709167E-01
 3.210313425E-01 9.253381112E-02 9.450066311E-01
 3.482135031E-01 9.893229832E-02 9.546057251E-01
 2.983001420E-01 8.219230006E-02 9.380322296E-01
 3.706333357E-01 1.196709441E-01 9.570777480E-01
 8.587022799E-02 7.842906778E-02 8.020659554E-01
 5.843565772E-02 5.262713986E-02 7.637466367E-01
 8.889408234E-01 -1.211539378E-02 5.913829552E-01
 8.996689103E-01 -2.494998934E-02 6.015486870E-01
 4.289864786E-01 4.365463108E-01 8.610597086E-01
 5.870081738E-01 6.251956555E-01 8.305910078E-01
 3.394128325E-01 -9.145396684E-02 9.542321366E-01
 2.240371014E-02 -2.778195577E-02 6.931620713E-01
 4.729742347E-01 9.491329917E-02 1.002101798E+00
 4.935733820E-01 8.861157432E-02 1.009744321E+00
 5.155495187E-01 9.628225402E-02 1.008324980E+00
 -4.790776865E-02 1.048558669E-01 6.306921960E-01
 -2.771283081E-02 6.061247158E-02 5.788569942E-01
 8.288001761E-03 5.334817732E-02 6.211888296E-01
 -1.271872432E-02 3.451595937E-02 5.331491190E-01
 1.086025587E-02 1.851761168E-02 6.195763451E-01
 -1.383014613E-03 1.186593716E-02 3.929211806E-01
 -4.421775371E-02 2.912973883E-02 5.201450135E-01
 -7.148759699E-02 2.139858119E-01 6.817018751E-01
 -1.591477987E-02 5.462936692E-03 3.604141226E-01
 7.135546521E-01 -3.776437848E-01 7.337646450E-01
 1.005406810E+00 -4.702057061E-02 6.352587018E-01
 1.000985696E+00 -2.373450579E-02 6.153137253E-01
 7.011962797E-01 -4.692644614E-02 6.948854738E-01
 8.583619716E-01 4.041453398E-01 7.961202818E-01
 1.193969328E-02 -2.249704326E-02 6.435113457E-01
 3.120911131E-04 -2.102089036E-02 5.398698243E-01
 6.176645177E-03 -1.211207453E-02 5.574229798E-01
 -1.263119040E-02 -1.289669728E-02 3.967429727E-01
 -1.224895703E-03 -5.795152771E-03 3.908938904E-01
 -5.431507349E-03 -1.000454064E-02 3.768483503E-01
 8.968815684E-01 5.076717023E-02 7.583138836E-01
 9.254827863E-01 4.765241569E-02 7.321590547E-01
 1.978659417E-03 -1.416703888E-02 5.075969014E-01
 9.306622830E-01 -1.762985189E-02 5.933380850E-01
 9.555393335E-01 4.228222761E-02 7.003654859E-01
 1.778399574E-01 -7.015770522E-02 8.703259647E-01
 2.005219310E-01 -7.136928431E-02 8.829759983E-01
 9.153568809E-01 -1.749154185E-02 5.934750136E-01
 8.296348104E-01 -1.559432764E-02 6.147930260E-01
 5.000000000E-01 -7.113248654E-01 7.563119804E-01
 5.760032872E-01 -4.719754052E-01 7.673123689E-01
 7.712567075E-01 -3.429380398E-02 6.526673171E-01
 3.543813283E-01 8.028797188E-02 9.621285513E-01
 1.317794807E-01 6.901739889E-02 8.470703289E-01
 1.057150329E-01 6.602722521E-02 8.257356209E-01