TITLE     = "Visualization of the solution"
VARIABLES = "x"
"y"
"Mach"
ZONE T="Zone"
 STRANDID=0, SOLUTIONTIME=0
 Nodes=705, Elements=1195, ZONETYPE=FEQuadrilateral
 DATAPACKING=POINT
 DT=(DOUBLE DOUBLE DOUBLE )
 9.998994470E-01 5.010460154E-04 5.792248855E-01
 9.882811904E-01 2.731001470E-03 6.166257764E-01
 9.751675725E-01 5.183912814E-03 6.477052288E-01
 9.574402571E-01 8.479373530E-03 6.781853202E-01
 9.416636825E-01 1.147046778E-02 6.940182388E-01
 9.258644581E-01 1.451370586E-02 7.097139463E-01
 9.133080840E-01 1.685454324E-02 7.218463108E-01
 9.008184671E-01 1.919883117E-02 7.342985074E-01
 8.885809779E-01 2.146367170E-02 7.485195304E-01
 8.765796423E-01 2.367503010E-02 7.613731624E-01
 8.637626171E-01 2.593570389E-02 7.708363405E-01
 8.511676192E-01 2.813228779E-02 7.820456270E-01
 8.389157057E-01 3.025950864E-02 7.933699452E-01
 8.280648589E-01 3.206972405E-02 7.992299290E-01
 8.164033890E-01 3.395767882E-02 8.051596967E-01
 8.042078018E-01 3.595625237E-02 8.152597205E-01
 7.918851972E-01 3.791416809E-02 8.256610398E-01
 7.796598673E-01 3.982882202E-02 8.339100284E-01
 7.675465345E-01 4.162353650E-02 8.411399106E-01
 7.562224865E-01 4.332701489E-02 8.498870897E-01
 7.433347106E-01 4.517294839E-02 8.586021685E-01
 7.301054001E-01 4.704430327E-02 8.692288507E-01
 7.197350860E-01 4.848761111E-02 8.808122691E-01
 7.090042830E-01 4.993557930E-02 8.899141591E-01
 6.976116896E-01 5.140520632E-02 8.994355620E-01
 6.844812036E-01 5.306844786E-02 9.099364695E-01
 6.716402173E-01 5.461185426E-02 9.211931976E-01
 6.618536711E-01 5.577062815E-02 9.323502851E-01
 6.504031420E-01 5.705352500E-02 9.441333375E-01
 6.386936903E-01 5.832579359E-02 9.577288337E-01
 6.272718310E-01 5.950304866E-02 9.707457226E-01
 6.158708334E-01 6.060463563E-02 9.802982241E-01
 6.052157283E-01 6.156791002E-02 9.891691971E-01
 5.929806232E-01 6.261248142E-02 9.989323355E-01
 5.817274451E-01 6.352173537E-02 1.007784841E+00
 5.688124895E-01 6.447105855E-02 1.015344151E+00
 5.567335486E-01 6.527791172E-02 1.021616868E+00
 5.449498296E-01 6.598766893E-02 1.025633311E+00
 5.342375636E-01 6.657587737E-02 1.025545931E+00
 5.228025317E-01 6.710924953E-02 1.023967867E+00
 5.106660128E-01 6.762487441E-02 1.024180536E+00
 4.996659458E-01 6.804671139E-02 1.019751951E+00
 4.864587486E-01 6.842231750E-02 1.012160419E+00
 4.729619920E-01 6.872554123E-02 1.008805334E+00
 4.593152404E-01 6.897291541E-02 1.006344020E+00
 4.464038610E-01 6.911051273E-02 9.997018453E-01
 4.337463975E-01 6.915467232E-02 9.917336982E-01
 4.214114249E-01 6.913314760E-02 9.858538710E-01
 4.092157781E-01 6.905311346E-02 9.814484555E-01
 3.969937265E-01 6.890293956E-02 9.761747424E-01
 3.846337795E-01 6.867741048E-02 9.707414765E-01
 3.728914559E-01 6.840056181E-02 9.658858227E-01
 3.600483239E-01 6.804243475E-02 9.605560227E-01
 3.473358750E-01 6.759635359E-02 9.547615221E-01
 3.342177868E-01 6.708882749E-02 9.489753769E-01
 3.229552805E-01 6.657245010E-02 9.427429840E-01
 3.101111948E-01 6.591637433E-02 9.384994358E-01
 2.968426347E-01 6.518208981E-02 9.342576526E-01
 2.827912271E-01 6.429054588E-02 9.283339767E-01
 2.706997693E-01 6.345602870E-02 9.222424198E-01
 2.587154210E-01 6.254643202E-02 9.167979812E-01
 2.464161068E-01 6.155852228E-02 9.108681359E-01
 2.340359837E-01 6.046444923E-02 9.055482214E-01
 2.217816114E-01 5.932395905E-02 8.996323525E-01
 2.098039091E-01 5.810767040E-02 8.937174625E-01
 1.979561895E-01 5.683596060E-02 8.880947408E-01
 1.854303926E-01 5.538661405E-02 8.811519927E-01
 1.734039485E-01 5.389596894E-02 8.723646633E-01
 1.618995517E-01 5.238211527E-02 8.654074410E-01
 1.498346776E-01 5.069228634E-02 8.572234919E-01
 1.390575171E-01 4.908523709E-02 8.472510899E-01
 1.271995604E-01 4.719922319E-02 8.375679258E-01
 1.158172414E-01 4.526746646E-02 8.281088529E-01
 1.052397266E-01 4.333424941E-02 8.172595925E-01
 9.535536915E-02 4.142871499E-02 8.065676808E-01
 8.430758864E-02 3.913871944E-02 7.937788973E-01
 7.285337150E-02 3.657484800E-02 7.822057290E-01
 6.309201568E-02 3.420069069E-02 7.688121609E-01
 5.337144062E-02 3.163681179E-02 7.515619205E-01
 4.492647573E-02 2.920188755E-02 7.330553382E-01
 3.761560097E-02 2.690299228E-02 7.089683018E-01
 3.107572533E-02 2.466299012E-02 6.896802954E-01
 2.549988590E-02 2.257890813E-02 6.735266680E-01
 2.145946585E-02 2.092872933E-02 6.614378456E-01
 1.760809310E-02 1.922653988E-02 6.464971267E-01
 1.451404672E-02 1.773873344E-02 6.323649651E-01
 1.162525266E-02 1.622739621E-02 6.092380336E-01
 9.525661357E-03 1.502346061E-02 5.934357868E-01
 7.699827198E-03 1.389271021E-02 5.770474331E-01
 6.037043408E-03 1.276849397E-02 5.499203156E-01
 3.847103799E-03 1.109946519E-02 4.889951786E-01
 1.917942660E-03 9.346347302E-03 4.848160048E-01
 3.185656096E-04 7.528239861E-03 3.396451859E-01
 -1.238155994E-03 4.931365140E-03 1.572701831E-01
 -1.833290677E-03 3.026705934E-03 3.847825680E-02
 -1.977341948E-03 1.500403625E-03 9.999198093E-02
 -1.809595269E-03 -8.523563884E-05 1.230842673E-01
 -1.363641815E-03 -1.600685879E-03 1.991275178E-01
 -4.354594857E-04 -3.440956352E-03 2.829391292E-01
 9.329660679E-04 -5.311143585E-03 3.776007507E-01
 2.840182511E-03 -7.280273363E-03 4.607734113E-01
 4.586451221E-03 -8.751223795E-03 5.112409064E-01
 6.546338554E-03 -1.018303633E-02 5.499723239E-01
 8.168169297E-03 -1.124079246E-02 5.958079861E-01
 1.020392496E-02 -1.244411897E-02 6.261949148E-01
 1.249869727E-02 -1.367993839E-02 6.493873553E-01
 1.571905054E-02 -1.524121966E-02 6.687709846E-01
 1.855062321E-02 -1.648282260E-02 6.904009980E-01
 2.222444676E-02 -1.796751283E-02 7.128878959E-01
 2.746586315E-02 -1.986788958E-02 7.351794788E-01
 3.311361745E-02 -2.170426026E-02 7.576617022E-01
 3.999444842E-02 -2.371101268E-02 7.723538125E-01
 4.761343822E-02 -2.572121471E-02 7.854579259E-01
 5.653212592E-02 -2.784767747E-02 8.011636544E-01
 6.535555422E-02 -2.976805903E-02 8.122625316E-01
 7.530153543E-02 -3.175364807E-02 8.227092989E-01
 8.532182872E-02 -3.359954432E-02 8.296830096E-01
 9.556731582E-02 -3.535327688E-02 8.372425632E-01
 1.065688655E-01 -3.711492196E-02 8.431810936E-01
 1.179334000E-01 -3.881229460E-02 8.496139839E-01
 1.297217309E-01 -4.045860097E-02 8.557237947E-01
 1.406920999E-01 -4.190693051E-02 8.613299270E-01
 1.518283933E-01 -4.328648746E-02 8.671497377E-01
 1.639846414E-01 -4.470226914E-02 8.731758367E-01
 1.756409556E-01 -4.598006979E-02 8.795454956E-01
 1.876856983E-01 -4.721547663E-02 8.860451791E-01
 1.984672844E-01 -4.825621098E-02 8.928505282E-01
 2.097477913E-01 -4.927930608E-02 8.994118546E-01
 2.221435755E-01 -5.031864345E-02 9.065465256E-01
 2.350580692E-01 -5.132855475E-02 9.148884546E-01
 2.474271953E-01 -5.218998715E-02 9.230718778E-01
 2.597166002E-01 -5.296586454E-02 9.299686837E-01
 2.710889578E-01 -5.361292511E-02 9.372925155E-01
 2.838946879E-01 -5.426307768E-02 9.462006134E-01
 2.964343131E-01 -5.478633195E-02 9.548539413E-01
 3.092620671E-01 -5.522260815E-02 9.620027774E-01
 3.212189376E-01 -5.552698672E-02 9.679154977E-01
 3.340227902E-01 -5.575444177E-02 9.743045710E-01
 3.451900482E-01 -5.586123466E-02 9.809688888E-01
 3.566825688E-01 -5.586046353E-02 9.860066253E-01
 3.675975204E-01 -5.577363074E-02 9.877226572E-01
 3.786208630E-01 -5.559731275E-02 9.890134384E-01
 3.904291987E-01 -5.530373380E-02 9.890256178E-01
 4.035612941E-01 -5.482706055E-02 9.837804609E-01
 4.162514210E-01 -5.423086137E-02 9.738673022E-01
 4.291505516E-01 -5.350825191E-02 9.628577730E-01
 4.416185915E-01 -5.267190188E-02 9.512306135E-01
 4.533834755E-01 -5.178102478E-02 9.373076342E-01
 4.650972784E-01 -5.078139156E-02 9.201155405E-01
 4.773422778E-01 -4.966752976E-02 9.046628555E-01
 4.889222682E-01 -4.850655049E-02 8.896848007E-01
 5.014341474E-01 -4.714852199E-02 8.707237874E-01
 5.151095986E-01 -4.561411217E-02 8.529447980E-01
 5.283735991E-01 -4.403306916E-02 8.381739614E-01
 5.417327881E-01 -4.236303270E-02 8.233757274E-01
 5.541157126E-01 -4.079117626E-02 8.105593754E-01
 5.676376224E-01 -3.902732208E-02 7.988287274E-01
 5.803560615E-01 -3.730741888E-02 7.855816252E-01
 5.923747420E-01 -3.567893058E-02 7.745038222E-01
 6.049790382E-01 -3.397016227E-02 7.648598159E-01
 6.191452742E-01 -3.197138011E-02 7.523672293E-01
 6.337096691E-01 -2.997786738E-02 7.410841115E-01
 6.484389901E-01 -2.790898271E-02 7.306816783E-01
 6.614607573E-01 -2.611242607E-02 7.214295954E-01
 6.749026179E-01 -2.427874878E-02 7.136324437E-01
 6.869847775E-01 -2.258236334E-02 7.042847817E-01
 6.995432973E-01 -2.089428902E-02 6.948538872E-01
 7.138063908E-01 -1.897721924E-02 6.868399578E-01
 7.268040776E-01 -1.725758426E-02 6.792627883E-01
 7.390218973E-01 -1.566734165E-02 6.723343272E-01
 7.522638440E-01 -1.395226736E-02 6.647036263E-01
 7.645395994E-01 -1.243071165E-02 6.580878799E-01
 7.777695060E-01 -1.081810705E-02 6.517414977E-01
 7.890315056E-01 -9.445345961E-03 6.436748336E-01
 8.021079898E-01 -7.966279052E-03 6.370714288E-01
 8.128319979E-01 -6.774415728E-03 6.309353688E-01
 8.245218396E-01 -5.548321642E-03 6.245107968E-01
 8.372629881E-01 -4.276321735E-03 6.175105305E-01
 8.495248556E-01 -3.126298310E-03 6.109390502E-01
 8.618776202E-01 -2.104157116E-03 6.055687488E-01
 8.732677102E-01 -1.230306341E-03 6.008898316E-01
 8.852506876E-01 -4.494957975E-04 5.964813385E-01
 8.981283307E-01 2.773996093E-04 5.927675680E-01
 9.084062576E-01 7.333823014E-04 5.900380223E-01
 9.189361334E-01 1.100825146E-03 5.899774039E-01
 9.286247492E-01 1.337410766E-03 5.899265164E-01
 9.372299314E-01 1.480314997E-03 5.910624582E-01
 9.490132332E-01 1.560069621E-03 5.911955803E-01
 9.616464972E-01 1.512821531E-03 5.941068930E-01
 9.757059216E-01 1.299388590E-03 5.903524803E-01
 9.874792695E-01 9.749579476E-04 6.048525467E-01
 -5.000000000E-01 -1.000000000E+00 7.116557613E-01
 3.500000000E+00 -1.000000000E+00 7.307209681E-01
 3.500000000E+00 1.000000000E+00 7.280224506E-01
 -5.000000000E-01 1.000000000E+00 7.114801828E-01
 -5.000000000E-01 5.000000000E-01 6.981551376E-01
 -5.000000000E-01 2.752797990E-12 6.869007531E-01
 -5.000000000E-01 -5.000000000E-01 6.986099867E-01
 -9.421907698E-13 -1.000000000E+00 7.236136176E-01
 5.000000000E-01 -1.000000000E+00 7.406501286E-01
 1.000000000E+00 -1.000000000E+00 7.276403727E-01
 1.500000000E+00 -1.000000000E+00 7.193292126E-01
 2.000000000E+00 -1.000000000E+00 7.218183915E-01
 2.500000000E+00 -1.000000000E+00 7.259312690E-01
 3.000000000E+00 -1.000000000E+00 7.281542762E-01
 3.500000000E+00 -5.000000000E-01 7.334698476E-01
 3.500000000E+00 -2.752797990E-12 7.353021995E-01
 3.500000000E+00 5.000000000E-01 7.325017536E-01
 3.000000000E+00 1.000000000E+00 7.256240372E-01
 2.500000000E+00 1.000000000E+00 7.282419769E-01
 2.000000000E+00 1.000000000E+00 7.334376770E-01
 1.500000000E+00 1.000000000E+00 7.471854694E-01
 1.000000000E+00 1.000000000E+00 7.730271905E-01
 5.000000000E-01 1.000000000E+00 7.742880495E-01
 1.733724275E-12 1.000000000E+00 7.296019810E-01
 6.833522709E-01 -3.265648511E-02 7.098092612E-01
 7.836868497E-01 -2.140963993E-02 6.515179802E-01
 9.044920032E-01 -7.317748825E-03 5.977938455E-01
 5.888142448E-01 -4.571625167E-02 7.795005230E-01
 7.064934517E-01 6.575605774E-02 8.952375865E-01
 2.755707574E-01 -6.567954022E-02 9.389047780E-01
 2.717819930E-01 7.522496342E-02 9.245046876E-01
 3.703825683E-01 8.276079443E-02 9.649861728E-01
 9.103637755E-01 2.930836037E-02 7.289737942E-01
 7.988318081E-01 5.078480927E-02 8.239043304E-01
 6.125016935E-01 7.017891092E-02 9.834211170E-01
 4.369718698E-01 -6.435384753E-02 9.509429733E-01
 5.183240429E-01 7.879962030E-02 1.022696390E+00
 1.785538180E+00 -5.300061453E-01 7.281039038E-01
 1.766930782E+00 5.977352440E-01 7.446443844E-01
 3.031160207E+00 2.156912333E-01 7.383782645E-01
 7.518929808E-01 -6.240992127E-01 7.378849100E-01
 7.414198031E-01 5.059126291E-01 8.344762957E-01
 2.468108466E-01 6.883054929E-01 7.737580904E-01
 1.186714337E-01 5.771617276E-02 8.341034877E-01
 1.792022523E-01 6.602380889E-02 8.792717209E-01
 4.401128853E-01 7.995461047E-02 9.948016320E-01
 2.734885519E+00 -5.326539424E-01 7.334429180E-01
 1.158637475E+00 6.207056884E-01 7.658309192E-01
 9.959746188E-01 3.482247732E-01 7.584519392E-01
 1.277039572E+00 -6.043755653E-01 7.166562143E-01
 1.504727737E+00 -2.680981932E-01 7.272050862E-01
 2.232969239E-01 -6.003281567E-01 7.617546868E-01
 7.871674885E-02 -4.133455777E-02 8.256864676E-01
 1.374417606E-01 -5.176514888E-02 8.613216254E-01
 1.918540215E-01 -5.929857507E-02 8.893757930E-01
 3.623751175E-01 -6.759697816E-02 9.816514432E-01
 2.240500438E+00 -5.770088512E-01 7.310745692E-01
 2.021539961E+00 -1.930306860E-01 7.355476009E-01
 2.420359427E+00 -1.842051055E-01 7.377277790E-01
 2.184746444E+00 1.585246101E-01 7.412629940E-01
 1.789953410E+00 8.050890541E-02 7.369074364E-01
 -2.709900094E-01 -2.545956081E-01 6.820665632E-01
 -1.598458576E-01 -5.745862957E-01 7.124417871E-01
 -2.575383258E-01 2.298336982E-01 6.776842544E-01
 -1.310999031E-01 6.794499342E-01 7.225235214E-01
 2.519021923E-02 3.298684226E-01 7.318813713E-01
 4.709003339E-02 3.970849022E-02 7.413280819E-01
 2.208038229E+00 5.815022439E-01 7.400392018E-01
 2.740830707E+00 6.005720214E-01 7.359423323E-01
 -2.509834455E-01 -9.842608963E-04 6.592876105E-01
 -1.420707424E-01 -1.287849197E-01 6.524040171E-01
 3.166807163E-02 -3.010355565E-02 7.546281801E-01
 3.229714996E-02 -3.714532058E-01 7.366340597E-01
 2.783728174E-01 -3.164381549E-01 8.247750125E-01
 5.068643097E-01 -5.865555791E-02 8.649277045E-01
 -1.295003847E-01 1.257926013E-01 6.452067672E-01
 -1.220790063E-01 -3.057103094E-03 6.125929763E-01
 -5.670558533E-02 -6.644656256E-02 5.992872320E-01
 -5.013122963E-02 -1.499299122E-01 6.643604491E-01
 2.323187688E-03 -9.347666919E-02 6.748200471E-01
 2.682479625E-02 -1.998670775E-01 7.260312690E-01
 1.679314903E-02 -1.903416749E-02 6.801693639E-01
 6.594320804E-02 -1.068880058E-01 7.728493319E-01
 1.145249774E-01 -1.571580473E-01 8.012046285E-01
 -1.531555532E-02 -5.244222940E-02 5.994170563E-01
 -6.065628485E-02 -4.428775388E-03 5.462863331E-01
 1.172291333E-01 -1.000821041E-01 8.333916060E-01
 1.073804132E-01 -4.766469057E-02 8.444365428E-01
 1.742746944E-01 -1.236269362E-01 8.566472241E-01
 2.404058006E-01 -6.305852869E-02 9.186264921E-01
 1.874936498E-01 -1.877814686E-01 8.359695659E-01
 2.347599986E-01 -1.455700626E-01 8.801742262E-01
 3.142509105E-01 -6.825059585E-02 9.620220747E-01
 1.229887281E-01 -2.629544573E-01 7.823880667E-01
 2.199093303E-01 -1.032070017E-01 8.952679188E-01
 2.139869404E-01 -6.203072970E-02 9.022275902E-01
 2.628975613E-01 -1.072450548E-01 9.170744742E-01
 2.898350999E-01 -1.507004873E-01 9.016474784E-01
 3.074427685E-01 -1.073905275E-01 9.384763761E-01
 3.405513889E-01 -1.448812997E-01 9.218736599E-01
 3.986612412E-01 -6.475160626E-02 9.815832914E-01
 3.489072087E-01 -1.065336451E-01 9.526101395E-01
 3.857163979E-01 -1.336221291E-01 9.340735976E-01
 3.841907477E-01 -1.755602294E-01 9.047522728E-01
 4.408149407E-01 -1.641840686E-01 8.914059928E-01
 4.728729060E-01 -6.059334612E-02 9.054572001E-01
 4.246656815E-01 -2.340291993E-01 8.626352456E-01
 5.133555503E-01 -2.124028622E-01 8.228059938E-01
 4.924149014E-01 -3.254094594E-01 8.130522684E-01
 6.005890048E-01 -2.688836712E-01 7.681666719E-01
 6.199664546E-01 -1.690683299E-01 7.613159304E-01
 7.337921537E-01 -2.760167839E-02 6.803200020E-01
 6.988025350E-01 -2.168033329E-01 7.254476980E-01
 8.443898714E-01 -1.432039880E-02 6.196526574E-01
 7.611768787E-01 -2.525898168E-02 6.649320127E-01
 5.504352417E-01 -5.103713990E-02 8.155088925E-01
 6.442515751E-01 -4.101015187E-02 7.362254827E-01
 7.138567892E-01 -1.279349335E-01 7.097138407E-01
 7.798294728E-01 -1.714676896E-01 6.904127424E-01
 9.673779024E-01 -1.045254563E-02 6.034888761E-01
 9.444119317E-01 -9.085163843E-03 5.989372543E-01
 7.899757237E-01 -1.005877423E-01 6.727029310E-01
 8.553834769E-01 -1.413768777E-01 6.632513091E-01
 8.636976232E-01 -2.091366400E-01 6.790177822E-01
 9.446883139E-01 -1.771767652E-01 6.659417224E-01
 9.425577160E-01 -2.856972358E-01 6.897080936E-01
 1.052902330E+00 -2.389116195E-01 6.878229319E-01
 9.149165051E-01 -9.895083744E-02 6.433742812E-01
 3.389007436E-01 -6.856098536E-02 9.734125806E-01
 5.493400408E-01 -1.396434801E-01 8.069678575E-01
 8.680807030E-01 -8.013960573E-02 6.441850429E-01
 8.152370791E-01 -5.913206422E-02 6.550460663E-01
 8.073771896E-01 -1.882839993E-02 6.390500889E-01
 4.882634022E-01 -1.321528406E-01 8.641087629E-01
 6.456017778E-01 -1.137506229E-01 7.450974697E-01
 7.369534669E-01 -8.414314015E-02 6.947517615E-01
 9.034050104E-01 -5.021433982E-02 6.258241284E-01
 8.799189346E-01 -1.096476210E-02 6.068471490E-01
 9.482007799E-01 -5.193073958E-02 6.268593052E-01
 9.722607488E-01 -1.029629120E-01 6.480549100E-01
 9.952705246E-01 -5.200720461E-02 6.378414232E-01
 1.022983704E+00 -8.424537883E-02 6.588262399E-01
 1.050571068E+00 -4.208119845E-02 6.621168865E-01
 1.073715046E+00 -4.210641651E-01 7.057105177E-01
 1.229008535E+00 -2.856305396E-01 7.121878495E-01
 1.196898355E+00 -1.220150430E-01 7.021036822E-01
 1.084384858E+00 -9.915769753E-02 6.817088102E-01
 1.123186311E+00 -2.636186970E-02 6.828369003E-01
 1.220540826E+00 1.068597035E-02 7.032213679E-01
 1.072517129E+00 2.226574942E-02 6.638307411E-01
 9.746546028E-01 2.084537546E-02 6.550046402E-01
 1.332983202E+00 -1.112466290E-01 7.171676731E-01
 1.362208736E+00 5.945656301E-02 7.210370473E-01
 1.218913974E+00 1.513463360E-01 7.191350832E-01
 1.393130951E+00 2.497382149E-01 7.362371479E-01
 1.212221016E+00 3.623029218E-01 7.402914538E-01
 1.018225501E+00 -2.667106266E-02 6.388711040E-01
 1.442405662E+00 5.261665700E-01 7.481891275E-01
 9.248096190E-01 -3.213310598E-02 6.140981717E-01
 9.236753784E-01 -1.178711213E-02 6.010739483E-01
 1.004769943E+00 -6.225861013E-01 7.166874433E-01
 8.739055585E-01 -4.737754421E-02 6.305496904E-01
 1.560903095E-01 -8.617964846E-02 8.642257619E-01
 1.687061907E-01 -5.543583362E-02 8.764609531E-01
 5.213368179E-01 -1.006841069E-01 8.409555600E-01
 5.571179486E-01 -9.392537534E-02 8.099828834E-01
 3.109381535E+00 -2.612418492E-01 7.368019025E-01
 1.538654079E+00 -4.487469186E-02 7.280029490E-01
 7.245662336E-01 -3.768326021E-01 7.314363291E-01
 2.540748362E-01 -2.107458868E-01 8.594181021E-01
 9.834253698E-01 -9.170192094E-03 6.063381348E-01
 9.741019223E-01 -2.850118852E-02 6.138166679E-01
 9.552799421E-01 -2.382568246E-02 6.121510723E-01
 7.948521047E-01 -1.815078172E-02 6.443792117E-01
 7.957774604E-01 -3.358934446E-02 6.509842618E-01
 7.752765575E-01 -3.353921454E-02 6.608304614E-01
 7.846514066E-01 -5.364848565E-02 6.663915797E-01
 3.753159692E-02 -7.310245309E-02 7.428973148E-01
 6.048828084E-02 -3.761922572E-02 8.078110597E-01
 1.528512233E-02 -5.066964090E-02 6.854209314E-01
 9.950570151E-01 -2.362076676E-02 6.251848578E-01
 3.820967443E-01 -9.602271661E-02 9.643406098E-01
 4.204764833E-01 -1.110686625E-01 9.367715188E-01
 4.568548361E-01 -9.652719582E-02 9.123649126E-01
 9.555459013E-01 -8.058100157E-03 5.999493355E-01
 8.922260045E-01 -9.590572729E-03 6.024901224E-01
 8.873827320E-01 -2.581326688E-02 6.154431212E-01
 -2.769525806E-02 -2.387408580E-02 5.141421388E-01
 4.275724026E-03 -1.124511520E-02 5.255118904E-01
 7.724898783E-01 -2.069133097E-02 6.579534641E-01
 7.566427582E-01 -4.308330167E-02 6.726978883E-01
 7.353116793E-01 -4.930700705E-02 6.867697564E-01
 7.059451640E-01 -7.129637621E-02 7.079762019E-01
 7.081620139E-01 -3.100037091E-02 6.957982394E-01
 6.665669376E-01 -7.340775078E-02 7.297801026E-01
 7.463682019E-01 -2.914509630E-02 6.740121946E-01
 5.870952123E-01 -4.515891932E-01 7.693953130E-01
 4.978403900E-01 -6.283152411E-01 7.680928534E-01
 3.857269572E-01 -7.131532820E-02 9.813714613E-01
 6.277114456E-01 -4.507350061E-02 7.487619014E-01
 6.418505587E-01 -5.947815390E-02 7.428030192E-01
 6.166291874E-01 -6.043604775E-02 7.609343935E-01
 6.615475951E-01 -4.928829540E-02 7.275306790E-01
 6.137151896E-01 -4.337080092E-02 7.598937960E-01
 2.904278042E-01 -6.691625257E-02 9.484736819E-01
 2.833837987E-01 -8.438326366E-02 9.392459737E-01
 2.630830002E-01 -7.840302175E-02 9.293851206E-01
 3.035246591E-01 -7.970756891E-02 9.526093644E-01
 3.275996384E-01 -8.279327000E-02 9.619415630E-01
 6.713682762E-01 -3.634388724E-02 7.182856419E-01
 5.610442966E-01 -4.933174264E-02 8.058952831E-01
 8.319584801E-01 -1.559070961E-02 6.266131552E-01
 8.415366835E-01 -2.865064747E-02 6.295406787E-01
 8.208986202E-01 -3.081684476E-02 6.389019038E-01
 9.139695685E-01 -7.633425426E-03 5.973655582E-01
 9.090549623E-01 -2.044472809E-02 6.078254174E-01
 -4.585264825E-03 -3.257007612E-02 5.763929964E-01
 4.897989356E-01 -9.267003766E-02 8.775507450E-01
 5.319164518E-01 -7.396545755E-02 8.329804073E-01
 4.902195866E-01 -6.919248943E-02 8.839697796E-01
 4.524572863E-01 -7.355317082E-02 9.321162370E-01
 4.104226812E-01 -6.551893323E-02 9.726792586E-01
 4.036378323E-01 -8.149951431E-02 9.697797604E-01
 4.256678851E-01 -8.011059948E-02 9.517866924E-01
 8.575928815E-01 -1.160731789E-02 6.131739296E-01
 4.608027835E-01 -6.301123813E-02 9.240431838E-01
 5.388645957E-01 -5.581356200E-02 8.281492446E-01
 5.217299874E-01 -5.958357013E-02 8.459384297E-01
 9.341097232E-01 -7.363413654E-03 5.973727550E-01
 3.027799508E-01 -6.497667149E-02 9.564222156E-01
 5.570711691E-01 -6.397316974E-02 8.110658262E-01
 5.813306454E-01 -7.590722844E-02 7.900395418E-01
 5.986391262E-01 -1.083676892E-01 7.765988540E-01
 8.672968529E-01 -1.053178105E-02 6.093612695E-01
 8.195176255E-01 -1.551173833E-02 6.317217817E-01
 7.225341435E-01 -3.157351936E-02 6.874451508E-01
 1.728082673E+00 -1.911001622E-01 7.330423371E-01
 4.157120498E-01 -4.501699246E-01 8.020873101E-01
 5.760073275E-01 -5.323910680E-02 7.927499605E-01
 6.937132482E-01 -3.103521260E-02 7.024534859E-01
 6.897855889E-01 -4.740412522E-02 7.105647077E-01
 6.001110027E-01 -4.540291384E-02 7.700089395E-01
 2.523922210E-01 -6.615095674E-02 9.255174353E-01
 2.643703073E-01 -6.336246167E-02 9.322380068E-01
 2.556900650E+00 2.092618688E-01 7.407888228E-01
 4.490468013E-01 -6.107423663E-02 9.400458992E-01
 9.000618561E-02 -7.939596995E-02 8.229588416E-01
 6.558690843E-02 -6.914317829E-02 8.015956635E-01
 4.561529157E-02 -5.108852412E-02 7.769615178E-01
 2.099670632E-02 -3.287989628E-02 7.198232527E-01
 2.402034840E-02 -2.380257907E-02 7.242828898E-01
 8.757348349E-02 -5.589215105E-02 8.306555298E-01
 8.805067817E-01 -4.331822907E-01 7.113146319E-01
 3.307522693E-01 -2.118060233E-01 8.784399416E-01
 1.862406865E-01 -9.170386914E-02 8.802378875E-01
 1.519108313E-01 -6.373508996E-02 8.700329276E-01
 1.324178858E-01 -6.998023102E-02 8.573554283E-01
 1.094872379E-01 -6.710949206E-02 8.444409883E-01
 1.036970515E+00 8.840237787E-03 6.387659466E-01
 1.026711555E+00 7.438758486E-02 6.828782180E-01
 9.373966508E-01 -1.994792635E-02 6.060284579E-01
 8.333466092E-01 -8.977996023E-02 6.559840728E-01
 2.408113333E-01 -7.949222604E-02 9.163353917E-01
 3.883835439E-01 -3.075705523E-01 8.446926264E-01
 1.623513747E+00 3.265173509E-01 7.437818757E-01
 7.123477179E-01 -4.611627975E-02 6.968912450E-01
 1.118282329E+00 6.846582414E-02 6.929987407E-01
 1.071207705E+00 1.953631923E-01 7.224978120E-01
 8.914472349E-01 2.250323285E-01 7.787521007E-01
 8.463237545E-01 4.363688686E-02 7.904183172E-01
 8.747251406E-01 3.964527692E-02 7.658615894E-01
 8.280845884E-01 3.481289717E-01 8.068735691E-01
 7.329080233E-01 2.402221126E-01 8.609119148E-01
 6.571000420E-01 6.685992975E-02 9.379767200E-01
 7.521908408E-01 5.584880521E-02 8.558902064E-01
 8.049550884E-01 1.543257912E-01 8.182245915E-01
 6.845547239E-01 3.364473445E-01 8.705840795E-01
 5.894483473E-01 2.621184576E-01 9.294936554E-01
 5.627351090E-01 7.661936712E-02 1.017351285E+00
 6.574253865E-01 1.757314431E-01 9.185836934E-01
 5.530914069E-01 3.946244547E-01 8.854742628E-01
 4.170816450E-01 3.076151520E-01 8.986852868E-01
 5.093300451E-01 2.024724825E-01 9.636231196E-01
 4.810477763E-01 8.070087546E-02 1.009675434E+00
 9.541356925E-01 1.379966713E-01 7.357490059E-01
 9.274342021E-01 5.168989842E-01 7.899624677E-01
 3.592318318E-01 4.645920904E-01 8.401039358E-01
 2.742860085E-01 3.119859933E-01 8.482913621E-01
 3.459356783E-01 2.172845664E-01 9.092825687E-01
 3.168030530E-01 7.660340088E-02 9.438254973E-01
 3.392009702E-01 8.105414594E-02 9.524212252E-01
 2.085478406E-01 2.238850314E-01 8.479749103E-01
 2.151398460E-01 6.903020570E-02 8.979027991E-01
 2.426853917E-01 7.301525381E-02 9.109109750E-01
 2.901101945E-01 1.609624264E-01 9.112399865E-01
 1.456206837E-01 2.881783766E-01 7.960622804E-01
 9.215796302E-02 1.884905123E-01 7.602096462E-01
 1.634895628E-01 1.456671838E-01 8.519231643E-01
 -5.760552021E-02 2.208736871E-01 6.861414385E-01
 1.382810264E-02 1.317539803E-01 6.929218307E-01
 1.848715676E-02 2.362957490E-02 6.497012287E-01
 7.550764746E-02 4.948044043E-02 7.863451576E-01
 8.342298624E-02 1.175048859E-01 7.794365149E-01
 1.281770749E-01 1.104580551E-01 8.340122285E-01
 1.503676328E-01 6.417296400E-02 8.616150468E-01
 4.277479454E-02 8.789134702E-02 7.238166623E-01
 -1.050490571E-02 8.540496992E-02 6.264379538E-01
 1.189822061E-01 4.651734288E-01 7.652487775E-01
 1.675520656E-02 6.070720187E-02 6.656120089E-01
 3.350517511E-02 3.181403512E-02 7.051367898E-01
 -6.655741982E-03 3.351343548E-02 5.288757891E-01
 -6.163029058E-02 5.492376452E-02 5.762800133E-01
 9.137749132E-03 2.064303206E-02 5.823274661E-01
 -2.468624750E-02 9.489915880E-03 4.333804174E-01
 7.580570980E-02 8.381942553E-02 7.855553222E-01
 9.809432181E-02 5.291095238E-02 8.136947504E-01
 1.084075633E-01 8.387911132E-02 8.206255871E-01
 5.522680690E-01 6.358262542E-01 8.304496237E-01
 1.371985376E-01 8.046718819E-02 8.523457289E-01
 1.643647156E-01 9.767632723E-02 8.674839962E-01
 2.066616760E-01 1.173915638E-01 8.875011468E-01
 2.551168744E-01 1.186344398E-01 9.122009152E-01
 3.003837639E-01 1.162558040E-01 9.330954702E-01
 3.380212577E-01 1.431369619E-01 9.389596281E-01
 4.058116030E-01 8.266836603E-02 9.793806543E-01
 3.937949609E-01 1.651834799E-01 9.500392021E-01
 3.823585384E-01 1.228732760E-01 9.622885909E-01
 4.220717110E-01 1.228439544E-01 9.773778636E-01
 4.538917328E-01 1.613553165E-01 9.729640116E-01
 5.043665950E-01 1.335001846E-01 9.987487190E-01
 5.609355008E-01 1.629750873E-01 9.798781654E-01
 6.123164683E-01 1.406601718E-01 9.653515354E-01
 5.468467533E-01 1.136979311E-01 1.010915260E+00
 5.401967398E-01 7.761784530E-02 1.023429224E+00
 5.846048251E-01 1.090241548E-01 9.962716721E-01
 5.871650866E-01 7.478771031E-02 1.003194842E+00
 4.596424220E-01 1.188219202E-01 9.939566212E-01
 6.184410700E-01 1.045822165E-01 9.751906683E-01
 6.505552232E-01 1.186198022E-01 9.381909869E-01
 6.368466889E-01 6.899043091E-02 9.611029952E-01
 7.022766344E-01 1.489057577E-01 8.911567802E-01
 6.886755281E-01 1.003120464E-01 9.103709693E-01
 7.303819237E-01 1.040079982E-01 8.759005480E-01
 6.799831402E-01 6.530720524E-02 9.172282402E-01
 5.742980996E-01 7.379057896E-02 1.011101699E+00
 1.928113131E-01 9.221679929E-02 8.873135796E-01
 3.305036745E-01 1.138298588E-01 9.466929529E-01
 3.015292705E-01 8.964241677E-02 9.384044878E-01
 7.085277660E-01 8.401214218E-02 8.946632258E-01
 7.252922137E-01 5.614735282E-02 8.774291040E-01
 7.366441525E-01 5.752364150E-02 8.676130730E-01
 7.475055964E-01 7.466161627E-02 8.630858961E-01
 7.670425786E-01 6.553326188E-02 8.482777514E-01
 7.753852760E-01 5.283103829E-02 8.397376531E-01
 7.878177775E-01 6.647216931E-02 8.342204358E-01
 8.113950041E-01 6.740803888E-02 8.172662090E-01
 7.759030331E-01 9.688316946E-02 8.424504304E-01
 8.224463422E-01 4.192089280E-02 8.047217582E-01
 8.353778582E-01 6.299741899E-02 8.015476398E-01
 8.627228710E-01 5.938542446E-02 7.814900314E-01
 8.406528588E-01 8.635513532E-02 8.008087656E-01
 8.923243576E-01 8.607216811E-02 7.600627143E-01
 8.686802635E-01 1.324742545E-01 7.844310070E-01
 9.479623146E-01 7.703239200E-02 7.141504845E-01
 9.401318963E-01 3.003611377E-02 7.023071635E-01
 8.319607446E-01 4.469803836E-02 8.003075444E-01
 8.123200489E-01 4.788857850E-02 8.128352929E-01
 7.867159852E-01 4.956620140E-02 8.320477535E-01
 5.195195812E-01 1.059254877E-01 1.015763538E+00
 7.636775433E-01 5.183273135E-02 8.471027298E-01
 2.791873761E-01 9.349182482E-02 9.279817114E-01
 2.567961918E-01 8.571050159E-02 9.177229685E-01
 2.333612717E-01 9.628626588E-02 9.073510711E-01
 7.156020217E-01 5.834437085E-02 8.853621343E-01
 6.918048168E-01 7.692510388E-02 9.090448929E-01
 6.586846162E-01 9.367596443E-02 9.383928484E-01
 6.400647596E-01 9.528057430E-02 9.567861559E-01
 6.014018145E-01 8.683517289E-02 9.929771388E-01
 1.934448066E-01 7.417847413E-02 8.877633248E-01
 6.920856180E-01 6.318412733E-02 9.063292643E-01
 3.527877437E-01 1.017073642E-01 9.566094793E-01
 6.254323093E-01 8.045862870E-02 9.715423631E-01
 8.142754425E-01 1.136180204E-01 8.180849152E-01
 5.727232540E-01 8.931372534E-02 1.009780558E+00
 5.506509484E-01 8.738971564E-02 1.019262936E+00
 8.736599689E-02 6.427824440E-02 8.024249592E-01
 6.294598214E-02 6.527392721E-02 7.693570272E-01
 7.567462899E-01 1.587673608E-01 8.486617980E-01
 3.810137559E-01 9.953377454E-02 9.681579332E-01
 6.702296908E-01 7.803092910E-02 9.279650831E-01
 1.346885413E-01 5.997360684E-02 8.485966240E-01
 6.074054073E-02 4.687222246E-02 7.663935913E-01
 4.365471781E-02 5.775581563E-02 7.351035797E-01
 1.619132535E-02 3.899956642E-02 6.418553865E-01
 8.597404005E-01 3.934711598E-02 7.781309751E-01
 3.539510962E-01 8.023221858E-02 9.584376075E-01
 6.472105793E-01 7.906625961E-02 9.493726490E-01
 3.713280710E-01 -7.670287226E-02 9.787126297E-01
 6.819081283E-01 -1.049262584E-01 7.250920056E-01
 5.998176447E-01 7.210406962E-02 9.939015619E-01
 4.516024156E-01 -1.259831919E-01 9.049733469E-01
 9.115981548E-01 5.353397109E-02 7.389406749E-01
 7.243495894E-01 7.149331137E-02 8.808358999E-01
 -9.756894409E-03 -1.916946185E-02 5.013585121E-01
 -3.365815013E-03 -6.644587505E-03 3.458282737E-01
 3.271986041E-01 -6.617725594E-02 9.677421943E-01
 4.013334709E-01 1.013309704E-01 9.755354554E-01
 4.198642688E-01 9.247786178E-02 9.841597904E-01
 4.402159519E-01 9.501929043E-02 9.925282027E-01