TITLE     = "Visualization of the solution"
VARIABLES = "x"
"y"
"Mach"
ZONE T="Zone"
 STRANDID=0, SOLUTIONTIME=0
 Nodes=713, Elements=1211, ZONETYPE=FEQuadrilateral
 DATAPACKING=POINT
 DT=(DOUBLE DOUBLE DOUBLE )
 9.999598861E-01 5.086130113E-04 5.778739298E-01
 9.887478948E-01 2.650050446E-03 6.319538604E-01
 9.759951234E-01 4.991533700E-03 6.539711779E-01
 9.591432810E-01 8.169730194E-03 6.836262295E-01
 9.440041184E-01 1.102825161E-02 6.998158453E-01
 9.283444285E-01 1.394553296E-02 7.202357102E-01
 9.165102839E-01 1.618471369E-02 7.351782843E-01
 9.042103887E-01 1.847369969E-02 7.496411649E-01
 8.920851946E-01 2.063528076E-02 7.635828871E-01
 8.804059625E-01 2.275994420E-02 7.775315037E-01
 8.677256703E-01 2.490770817E-02 7.845490264E-01
 8.550969958E-01 2.699993365E-02 7.939755077E-01
 8.429931998E-01 2.904979698E-02 8.056261076E-01
 8.318629265E-01 3.079520538E-02 8.111385282E-01
 8.202235103E-01 3.260277212E-02 8.173476221E-01
 8.081403375E-01 3.447072953E-02 8.268941266E-01
 7.956910729E-01 3.635015339E-02 8.350174372E-01
 7.831637859E-01 3.816597536E-02 8.428997717E-01
 7.712387443E-01 3.989903629E-02 8.512402449E-01
 7.593077421E-01 4.154598340E-02 8.587009311E-01
 7.462540269E-01 4.333941638E-02 8.683206126E-01
 7.327685952E-01 4.512529448E-02 8.773762229E-01
 7.219381332E-01 4.651825875E-02 8.847876230E-01
 7.108984590E-01 4.789993167E-02 8.927789075E-01
 6.994400620E-01 4.931383580E-02 9.033691194E-01
 6.861724854E-01 5.089081451E-02 9.149393254E-01
 6.732898355E-01 5.235219747E-02 9.245618559E-01
 6.632061005E-01 5.344539881E-02 9.331684682E-01
 6.516832709E-01 5.466680974E-02 9.423411465E-01
 6.397295594E-01 5.585278198E-02 9.520356322E-01
 6.281434894E-01 5.696720630E-02 9.625912932E-01
 6.166259646E-01 5.801107362E-02 9.721022717E-01
 6.059723496E-01 5.892428756E-02 9.815102340E-01
 5.936162472E-01 5.993051082E-02 9.911767739E-01
 5.821445584E-01 6.078753993E-02 9.984661116E-01
 5.690393448E-01 6.170040369E-02 1.002834324E+00
 5.567105412E-01 6.245125830E-02 1.005300985E+00
 5.448986292E-01 6.311620027E-02 1.008945044E+00
 5.339749455E-01 6.367059797E-02 1.011262834E+00
 5.226777792E-01 6.418505311E-02 1.010395505E+00
 5.101020336E-01 6.465836614E-02 1.008946347E+00
 4.988589883E-01 6.503957510E-02 1.007639513E+00
 4.858902097E-01 6.539628655E-02 1.005477478E+00
 4.725106061E-01 6.566946954E-02 1.001532062E+00
 4.584830105E-01 6.587388366E-02 9.967093182E-01
 4.455714524E-01 6.597344577E-02 9.931526086E-01
 4.329647124E-01 6.600715965E-02 9.892968416E-01
 4.205553830E-01 6.596498936E-02 9.839759027E-01
 4.082544148E-01 6.585380435E-02 9.785653210E-01
 3.961251974E-01 6.568664312E-02 9.752360956E-01
 3.839330673E-01 6.546195596E-02 9.726378274E-01
 3.726055324E-01 6.520225108E-02 9.681066655E-01
 3.597989380E-01 6.482142210E-02 9.620049718E-01
 3.473666310E-01 6.439717859E-02 9.557137307E-01
 3.344357908E-01 6.387322396E-02 9.502664374E-01
 3.233986795E-01 6.338521838E-02 9.460720188E-01
 3.106796741E-01 6.275714189E-02 9.418051965E-01
 2.976059318E-01 6.202511862E-02 9.366930994E-01
 2.838171124E-01 6.118650362E-02 9.306014102E-01
 2.713789642E-01 6.033950672E-02 9.251829634E-01
 2.596212626E-01 5.949417874E-02 9.200270353E-01
 2.473673671E-01 5.853114277E-02 9.145844377E-01
 2.348887175E-01 5.747513101E-02 9.089196708E-01
 2.225376219E-01 5.635973066E-02 9.027834586E-01
 2.107819468E-01 5.521301925E-02 8.965142554E-01
 1.989082247E-01 5.398989841E-02 8.900007783E-01
 1.862289011E-01 5.258914083E-02 8.833505724E-01
 1.741229743E-01 5.115808919E-02 8.765557330E-01
 1.625945419E-01 4.971170053E-02 8.698215410E-01
 1.504391283E-01 4.808240011E-02 8.626644359E-01
 1.394892931E-01 4.653339088E-02 8.545819845E-01
 1.277320981E-01 4.475121945E-02 8.466674990E-01
 1.161414683E-01 4.288835078E-02 8.390154042E-01
 1.054351702E-01 4.104945436E-02 8.307890320E-01
 9.536065906E-02 3.921215236E-02 8.213561920E-01
 8.415596932E-02 3.701592237E-02 8.083881577E-01
 7.259036601E-02 3.456385806E-02 7.971265235E-01
 6.262116879E-02 3.227220103E-02 7.853342700E-01
 5.286753178E-02 2.983875200E-02 7.686138656E-01
 4.430224374E-02 2.749374509E-02 7.522883690E-01
 3.697282448E-02 2.530710399E-02 7.356072222E-01
 3.043125570E-02 2.317298017E-02 7.212393678E-01
 2.485180087E-02 2.118114009E-02 7.000841467E-01
 2.078863047E-02 1.958952658E-02 6.790790734E-01
 1.695466600E-02 1.795855537E-02 6.591653524E-01
 1.389187574E-02 1.653962210E-02 6.391650154E-01
 1.109632757E-02 1.511610765E-02 6.229255945E-01
 9.051479399E-03 1.397604123E-02 6.151947875E-01
 7.263899315E-03 1.289621647E-02 6.019096053E-01
 5.645938683E-03 1.182513963E-02 5.392803895E-01
 3.507451387E-03 1.022497844E-02 4.322684864E-01
 1.651525963E-03 8.566170000E-03 3.681591555E-01
 1.085896947E-04 6.819477305E-03 2.987456064E-01
 -1.365829026E-03 4.371984862E-03 1.576678742E-01
 -1.931655454E-03 2.558779204E-03 1.791104153E-02
 -2.065856475E-03 1.104682451E-03 6.242778311E-02
 -1.895952853E-03 -4.304338945E-04 1.367958363E-01
 -1.422029454E-03 -1.956782537E-03 2.909297754E-01
 -4.729203065E-04 -3.734229831E-03 3.637905218E-01
 9.222287335E-04 -5.542870611E-03 4.271948197E-01
 2.850201447E-03 -7.426114287E-03 4.905301935E-01
 4.635772202E-03 -8.851660416E-03 5.606309644E-01
 6.617513020E-03 -1.020980719E-02 5.806565704E-01
 8.238767274E-03 -1.120598707E-02 6.052589686E-01
 1.025711652E-02 -1.233252138E-02 6.268834850E-01
 1.254169270E-02 -1.348938234E-02 6.450955510E-01
 1.572319120E-02 -1.494392008E-02 6.686727449E-01
 1.853119396E-02 -1.610704884E-02 6.902425880E-01
 2.210901305E-02 -1.746474952E-02 7.060731106E-01
 2.723957598E-02 -1.921313815E-02 7.229513859E-01
 3.288645297E-02 -2.094957232E-02 7.408361467E-01
 3.968647122E-02 -2.282368764E-02 7.542041495E-01
 4.722417518E-02 -2.469548211E-02 7.686673586E-01
 5.602731928E-02 -2.668279037E-02 7.816260448E-01
 6.487419456E-02 -2.849941887E-02 7.914795892E-01
 7.477137446E-02 -3.037673421E-02 8.000572158E-01
 8.458516002E-02 -3.208665550E-02 8.052731404E-01
 9.492875636E-02 -3.377209976E-02 8.099633561E-01
 1.058782265E-01 -3.544173390E-02 8.154363674E-01
 1.174464002E-01 -3.709683195E-02 8.212791124E-01
 1.291503310E-01 -3.865595534E-02 8.283566443E-01
 1.402906179E-01 -4.005711153E-02 8.341255514E-01
 1.515862644E-01 -4.140272364E-02 8.392415205E-01
 1.637681872E-01 -4.276659340E-02 8.450499013E-01
 1.754915267E-01 -4.400115088E-02 8.516804484E-01
 1.877957582E-01 -4.521688074E-02 8.577693492E-01
 1.987943500E-01 -4.624102637E-02 8.640326345E-01
 2.103614360E-01 -4.725579172E-02 8.712452564E-01
 2.228556871E-01 -4.826619476E-02 8.785728579E-01
 2.359143198E-01 -4.924836010E-02 8.873042768E-01
 2.485027611E-01 -5.010265484E-02 8.949445728E-01
 2.611378431E-01 -5.088036880E-02 9.018185346E-01
 2.724358141E-01 -5.149181560E-02 9.083331836E-01
 2.852557003E-01 -5.211386830E-02 9.155126740E-01
 2.978673279E-01 -5.264125392E-02 9.254496805E-01
 3.107625544E-01 -5.305954441E-02 9.329752765E-01
 3.227526248E-01 -5.336004123E-02 9.386634464E-01
 3.353707194E-01 -5.357939005E-02 9.455658087E-01
 3.466229141E-01 -5.367329344E-02 9.519820212E-01
 3.581573665E-01 -5.368453264E-02 9.553934389E-01
 3.689585626E-01 -5.357948318E-02 9.559737777E-01
 3.798258007E-01 -5.342436954E-02 9.567066878E-01
 3.915236592E-01 -5.312770605E-02 9.567058950E-01
 4.043910801E-01 -5.267181247E-02 9.524884774E-01
 4.170055985E-01 -5.209683254E-02 9.452312671E-01
 4.298346937E-01 -5.138757080E-02 9.352382490E-01
 4.418580234E-01 -5.058366433E-02 9.219781088E-01
 4.534747005E-01 -4.973917082E-02 9.100250737E-01
 4.651464522E-01 -4.876213893E-02 8.969827358E-01
 4.771420956E-01 -4.766366631E-02 8.823349578E-01
 4.887734056E-01 -4.651703686E-02 8.673684869E-01
 5.011471510E-01 -4.520602152E-02 8.513221362E-01
 5.143868923E-01 -4.371743649E-02 8.346547214E-01
 5.274804235E-01 -4.217646644E-02 8.191261052E-01
 5.407354832E-01 -4.054962471E-02 8.055131484E-01
 5.531009436E-01 -3.899341449E-02 7.936235153E-01
 5.663310289E-01 -3.727613762E-02 7.810915521E-01
 5.789064169E-01 -3.561116755E-02 7.688965626E-01
 5.907603502E-01 -3.402313590E-02 7.573786199E-01
 6.029536128E-01 -3.236790001E-02 7.466445639E-01
 6.170762777E-01 -3.047853522E-02 7.368904230E-01
 6.314135194E-01 -2.851767465E-02 7.262662843E-01
 6.460422873E-01 -2.650316805E-02 7.138034923E-01
 6.588160396E-01 -2.475902624E-02 7.039156130E-01
 6.720348001E-01 -2.297927625E-02 6.951879108E-01
 6.843745112E-01 -2.131795324E-02 6.872234014E-01
 6.968204975E-01 -1.967656426E-02 6.798459401E-01
 7.110949159E-01 -1.779324934E-02 6.714124078E-01
 7.238636613E-01 -1.613517292E-02 6.629724009E-01
 7.358729243E-01 -1.461604517E-02 6.568316719E-01
 7.491274476E-01 -1.298733894E-02 6.507981616E-01
 7.609731555E-01 -1.150689926E-02 6.422318653E-01
 7.740756869E-01 -9.943404235E-03 6.348528131E-01
 7.858948708E-01 -8.608955890E-03 6.286272636E-01
 7.988810539E-01 -7.162200753E-03 6.233661304E-01
 8.101432323E-01 -5.984874908E-03 6.183145133E-01
 8.218930960E-01 -4.789609462E-03 6.115980220E-01
 8.345801234E-01 -3.564344486E-03 6.042122654E-01
 8.474053144E-01 -2.428499050E-03 5.977293214E-01
 8.596227169E-01 -1.436135382E-03 5.924576528E-01
 8.716784120E-01 -5.864645937E-04 5.881909407E-01
 8.835116029E-01 1.703087473E-04 5.847778751E-01
 8.969225287E-01 8.660484455E-04 5.815661359E-01
 9.076421261E-01 1.293846522E-03 5.793161410E-01
 9.185927510E-01 1.626168960E-03 5.782989890E-01
 9.286860824E-01 1.829326269E-03 5.777434241E-01
 9.376378059E-01 1.930970233E-03 5.787444117E-01
 9.497104883E-01 1.950533828E-03 5.786709207E-01
 9.622483253E-01 1.833354123E-03 5.828458695E-01
 9.763774276E-01 1.537180156E-03 5.748407580E-01
 9.883817434E-01 1.130373450E-03 5.907871820E-01
 -5.000000000E-01 -1.000000000E+00 7.130078013E-01
 3.500000000E+00 -1.000000000E+00 7.303401161E-01
 3.500000000E+00 1.000000000E+00 7.275665391E-01
 -5.000000000E-01 1.000000000E+00 7.125305695E-01
 -5.000000000E-01 5.000000000E-01 7.007965991E-01
 -5.000000000E-01 2.752797990E-12 6.884060552E-01
 -5.000000000E-01 -5.000000000E-01 7.001108652E-01
 -9.421907698E-13 -1.000000000E+00 7.241606144E-01
 5.000000000E-01 -1.000000000E+00 7.390198818E-01
 1.000000000E+00 -1.000000000E+00 7.246933287E-01
 1.500000000E+00 -1.000000000E+00 7.167798271E-01
 2.000000000E+00 -1.000000000E+00 7.205006063E-01
 2.500000000E+00 -1.000000000E+00 7.250526177E-01
 3.000000000E+00 -1.000000000E+00 7.274184339E-01
 3.500000000E+00 -5.000000000E-01 7.332649749E-01
 3.500000000E+00 -2.752797990E-12 7.351686433E-01
 3.500000000E+00 5.000000000E-01 7.323307146E-01
 3.000000000E+00 1.000000000E+00 7.246551481E-01
 2.500000000E+00 1.000000000E+00 7.272029330E-01
 2.000000000E+00 1.000000000E+00 7.320854655E-01
 1.500000000E+00 1.000000000E+00 7.443767582E-01
 1.000000000E+00 1.000000000E+00 7.705291253E-01
 5.000000000E-01 1.000000000E+00 7.727336499E-01
 1.733724275E-12 1.000000000E+00 7.283521058E-01
 6.808452033E-01 -3.481477129E-02 6.989712933E-01
 7.800760509E-01 -2.131338347E-02 6.406718515E-01
 9.030359599E-01 -1.183153929E-02 5.909862602E-01
 5.878381418E-01 -4.651186033E-02 7.663361735E-01
 4.974597020E-01 -5.858421495E-02 8.595725058E-01
 6.940589592E-01 6.064152954E-02 9.105891153E-01
 2.771080044E-01 -6.166755209E-02 9.142642662E-01
 2.776445848E-01 7.196695668E-02 9.268300637E-01
 3.645507340E-01 7.674001763E-02 9.630050341E-01
 9.141582079E-01 2.691852699E-02 7.414340747E-01
 7.909580020E-01 4.781742622E-02 8.398627179E-01
 1.817764888E-01 -5.606746882E-02 8.619725100E-01
 6.016941057E-01 6.858977216E-02 9.833863304E-01
 3.744679218E-01 -6.588649841E-02 9.551438721E-01
 5.058360133E-01 7.509222330E-02 1.005619098E+00
 1.838562096E+00 -5.958991033E-01 7.270079269E-01
 1.763640544E+00 6.064801945E-01 7.447751821E-01
 3.031167304E+00 2.156878610E-01 7.384518648E-01
 7.500000000E-01 -5.669872981E-01 7.331109485E-01
 7.577568179E-01 5.387124358E-01 8.253727484E-01
 3.361453970E-01 6.376123376E-01 7.986043318E-01
 1.190844589E-01 5.571906169E-02 8.403140787E-01
 1.774585909E-01 6.350615455E-02 8.779285460E-01
 2.734868374E+00 -5.326711972E-01 7.330862054E-01
 1.148048464E+00 5.931697229E-01 7.676585770E-01
 1.027492224E+00 3.550068415E-01 7.561342098E-01
 8.517924531E-01 3.686116331E-02 7.994028402E-01
 1.242787871E+00 -6.556585777E-01 7.157191203E-01
 1.502950108E+00 -2.779091475E-01 7.262052766E-01
 2.100979409E-01 -5.509619272E-01 7.586563796E-01
 7.635975447E-02 -4.102812575E-02 8.054019863E-01
 2.249322734E+00 -5.880143715E-01 7.306375522E-01
 1.990892526E+00 -2.099183080E-01 7.347167060E-01
 2.414636391E+00 -1.860902863E-01 7.374432155E-01
 2.184689343E+00 1.583876681E-01 7.412362476E-01
 1.775468481E+00 1.871850987E-01 7.400660210E-01
 -2.710346931E-01 -2.546365229E-01 6.838632610E-01
 -1.617528983E-01 -5.675593735E-01 7.121426622E-01
 -2.533700836E-01 2.500000000E-01 6.799880404E-01
 -1.204411241E-01 6.424993272E-01 7.239781036E-01
 2.687222669E-02 3.293121757E-01 7.308752017E-01
 4.562552139E-02 3.641343560E-02 7.440196934E-01
 2.214590938E+00 5.743218108E-01 7.400253474E-01
 2.741926127E+00 5.993738398E-01 7.358588202E-01
 -2.510294169E-01 -1.030398202E-03 6.621325833E-01
 -1.421524798E-01 -1.288808839E-01 6.559981599E-01
 3.622260449E-02 -2.961936908E-02 7.499804692E-01
 3.865320978E-02 -3.666565046E-01 7.349429368E-01
 2.793203996E-01 -3.154220385E-01 8.180218718E-01
 4.375643705E-01 -6.256141344E-02 9.272633539E-01
 -1.361092414E-01 1.014679195E-01 6.471135411E-01
 -1.265332388E-01 -1.641739529E-03 6.211126352E-01
 -5.732974291E-02 -6.629416633E-02 6.081576166E-01
 -5.018706693E-02 -1.500300124E-01 6.673304876E-01
 2.770262741E-03 -9.342298227E-02 6.796053193E-01
 1.212562397E-01 -5.028410697E-02 8.337140018E-01
 2.793014050E-02 -1.998378854E-01 7.267777777E-01
 1.652043811E-02 -1.804623896E-02 6.798608259E-01
 -1.528773021E-02 -5.240685796E-02 6.027733789E-01
 -5.667748989E-02 -8.750313775E-03 5.485951633E-01
 6.729596557E-02 -1.067593033E-01 7.746997763E-01
 1.158269963E-01 -1.587742033E-01 7.988325633E-01
 2.273946737E-01 -6.088038174E-02 8.879067762E-01
 1.213062219E-01 -9.704262407E-02 8.289464883E-01
 1.779820119E-01 -1.252775344E-01 8.507837824E-01
 1.893012271E-01 -1.915828568E-01 8.286632915E-01
 2.395925405E-01 -1.499510612E-01 8.707720591E-01
 3.300505725E-01 -6.256680471E-02 9.436727542E-01
 3.057890056E-01 -6.872645470E-02 9.321838637E-01
 1.232958549E-01 -2.570072398E-01 7.785202286E-01
 2.261966686E-01 -1.028586742E-01 8.864481507E-01
 2.740816560E-01 -1.098390148E-01 9.061592053E-01
 2.988905358E-01 -1.568067541E-01 8.886662363E-01
 3.230804755E-01 -1.143670523E-01 9.238177551E-01
 3.522602646E-01 -1.572446338E-01 9.019104562E-01
 3.701718794E-01 -1.100876292E-01 9.343661808E-01
 4.040185134E-01 -1.510283175E-01 9.035383808E-01
 3.959646108E-01 -1.990668562E-01 8.782690293E-01
 4.603563192E-01 -1.966841270E-01 8.569832867E-01
 4.113407315E-01 -2.811543657E-01 8.331871613E-01
 5.397644826E-01 -2.702412159E-01 7.883572471E-01
 5.653378130E-01 -1.638026398E-01 7.901506759E-01
 6.380266110E-01 -2.094925319E-01 7.503987455E-01
 5.340431421E-01 -5.150191353E-02 8.174860622E-01
 5.640220128E-01 -5.240271880E-02 7.894809543E-01
 6.634351743E-01 -1.435910539E-01 7.359614178E-01
 7.260435396E-01 -1.950745937E-01 7.110064730E-01
 8.428045504E-01 -1.585073778E-02 6.106817466E-01
 7.304409563E-01 -2.654125865E-02 6.674162652E-01
 8.186770138E-01 -2.011045789E-02 6.241666105E-01
 8.659088101E-01 -1.371879357E-02 6.017671019E-01
 6.271892834E-01 -3.974068948E-02 7.350493533E-01
 7.502251500E-01 -1.195388271E-01 6.931107488E-01
 8.079945970E-01 -1.694100859E-01 6.830663096E-01
 9.677995012E-01 -1.114833978E-02 5.913141977E-01
 9.447581401E-01 -9.590042397E-03 5.885254103E-01
 8.276895806E-01 -9.849016009E-02 6.609804876E-01
 8.854964927E-01 -1.452287932E-01 6.630108347E-01
 8.767422213E-01 -2.470902630E-01 6.848670844E-01
 9.752159576E-01 -2.089402604E-01 6.742895285E-01
 9.750485930E-01 -3.145270751E-01 6.913387613E-01
 1.096613244E+00 -2.704890115E-01 6.946820883E-01
 1.118031263E+00 -1.264680557E-01 6.898781725E-01
 9.038935195E-01 -8.485514681E-02 6.408024254E-01
 4.989722213E-01 -3.892150996E-01 7.894581256E-01
 4.768829927E-01 -1.286670146E-01 8.630877355E-01
 1.012252814E+00 -1.120254118E-01 6.656958548E-01
 6.129029915E-01 -1.177115115E-01 7.657520287E-01
 6.965560344E-01 -9.114790639E-02 7.134825390E-01
 7.811792276E-01 -8.588794293E-02 6.724333043E-01
 8.596367143E-01 -6.007810598E-02 6.354025681E-01
 4.110052575E-01 -1.036413976E-01 9.288574764E-01
 3.971111331E-01 -6.544068229E-02 9.529601978E-01
 1.212429885E+00 -1.999239349E-01 7.079015026E-01
 1.244373993E+00 -6.981734894E-02 7.072298090E-01
 1.119250217E+00 6.952768131E-03 6.852983670E-01
 1.259490342E+00 5.404636186E-02 7.138253889E-01
 1.380364214E+00 -6.288983479E-03 7.210114721E-01
 1.408038162E+00 1.942744601E-01 7.307387090E-01
 1.143716528E+00 1.556456334E-01 7.193921168E-01
 7.054866124E-01 -3.038719768E-01 7.292916677E-01
 1.060932094E+00 7.863042280E-02 6.997491029E-01
 9.745423819E-01 1.891807493E-02 6.636697621E-01
 1.217969055E+00 3.358868308E-01 7.393652297E-01
 3.109371952E+00 -2.612570354E-01 7.367033584E-01
 1.015013496E+00 1.932481273E-01 7.324818256E-01
 9.758766205E-01 1.101270960E-01 7.240392252E-01
 9.210366937E-01 1.677602930E-01 7.645186857E-01
 9.137692238E-01 9.798860487E-02 7.609394019E-01
 8.597318296E-01 1.317958536E-01 7.979497576E-01
 7.400935956E-01 5.605134737E-02 8.751422911E-01
 7.168745427E-01 5.854680292E-02 8.910139039E-01
 8.441865289E-01 2.077983980E-01 8.054768167E-01
 7.555656890E-01 1.801337732E-01 8.549263450E-01
 6.478740943E-01 6.636754795E-02 9.459863996E-01
 6.685755941E-01 6.389303918E-02 9.290167414E-01
 7.622920292E-01 2.729895318E-01 8.402688943E-01
 6.825435384E-01 2.206295399E-01 8.933030780E-01
 6.954205538E-01 1.410368391E-01 8.996446799E-01
 6.183073978E-01 1.643368163E-01 9.438602324E-01
 4.405271919E-01 7.592249298E-02 9.898878690E-01
 4.669564345E-01 7.848011476E-02 9.969506538E-01
 5.505625361E-01 7.482112720E-02 1.003761320E+00
 5.296819079E-01 7.563135723E-02 1.006806084E+00
 6.016750058E-01 2.333154976E-01 9.266124276E-01
 5.293685397E-01 1.873836353E-01 9.564231019E-01
 5.092584706E-01 2.762519837E-01 9.162699228E-01
 4.335702370E-01 2.111852555E-01 9.335561470E-01
 4.032686418E-01 3.174373093E-01 8.865985924E-01
 3.239157324E-01 2.363473017E-01 8.963821046E-01
 2.255475564E-01 6.958212900E-02 9.037328740E-01
 2.049476287E-01 6.415003077E-02 8.933329804E-01
 5.212780378E-01 4.052886613E-01 8.734944096E-01
 3.668606854E-01 1.601503227E-01 9.377931347E-01
 3.158769680E-01 7.962478616E-02 9.416795423E-01
 3.414665750E-01 7.661769896E-02 9.522861647E-01
 3.996892899E-01 7.491019741E-02 9.752934706E-01
 2.834992818E-01 1.795372741E-01 8.999409249E-01
 2.417461702E-01 2.226736842E-01 8.630199366E-01
 1.754280346E-01 1.719079366E-01 8.431646065E-01
 4.248320170E-01 1.455072408E-01 9.623075264E-01
 7.509856608E-01 1.172226568E-01 8.639354743E-01
 5.596009119E-01 1.357537716E-01 9.798800876E-01
 5.081043331E-01 1.304464117E-01 9.846448624E-01
 6.465724300E-01 1.109287418E-01 9.429046583E-01
 2.753570288E-01 3.303123980E-01 8.443273867E-01
 2.308740648E-01 1.249951521E-01 8.936668578E-01
 3.197062678E-01 1.298448273E-01 9.300083186E-01
 6.395930708E-01 3.229744468E-01 8.798327188E-01
 8.651403760E-01 8.603850520E-02 7.951248634E-01
 8.747644971E-01 3.563307694E-02 7.820524022E-01
 8.249237411E-01 9.516528573E-02 8.213329796E-01
 8.168698122E-01 4.729735517E-02 8.235983227E-01
 3.876817928E-01 1.173944695E-01 9.625346785E-01
 3.533564456E-01 1.109865885E-01 9.511501826E-01
 6.834963868E-01 9.547161747E-02 9.159906682E-01
 7.243629329E-01 9.400533095E-02 8.860813190E-01
 1.653462853E-01 4.814804460E-01 7.771950054E-01
 5.351436619E-01 1.077666858E-01 9.950874142E-01
 9.558146503E-01 6.996099227E-02 7.206591938E-01
 9.402130977E-01 2.602513008E-02 7.128510025E-01
 1.003305925E+00 5.434273999E-02 6.828743857E-01
 7.548930232E-01 5.518200301E-02 8.643460376E-01
 7.462681897E-01 7.244697727E-02 8.715472205E-01
 7.682735721E-01 6.808194686E-02 8.571040761E-01
 3.841236629E-02 -7.208371413E-02 7.489101787E-01
 6.127896339E-02 -3.678372388E-02 7.908250222E-01
 1.329602812E-02 -5.111385884E-02 6.798612632E-01
 1.568614368E-01 -8.663836015E-02 8.548885994E-01
 1.460284350E-01 -4.984215144E-02 8.434190121E-01
 1.048633730E+00 2.866927599E-02 6.633525550E-01
 1.060428981E+00 -5.992608182E-02 6.667782860E-01
 3.456839494E-01 -9.022109453E-02 9.445062797E-01
 3.505055650E-01 -6.896311881E-02 9.515266542E-01
 2.500051421E-01 -8.183591295E-02 9.044588736E-01
 2.563062715E-01 -6.411210569E-02 9.045075119E-01
 -2.699690885E-02 -2.511650684E-02 5.303400308E-01
 3.688712427E-03 -1.314286373E-02 5.527904473E-01
 4.212859908E-01 1.025410459E-01 9.766928288E-01
 4.606357656E-01 1.175730814E-01 9.816168545E-01
 4.713021785E-01 1.584191249E-01 9.673176407E-01
 5.664212512E-01 1.009685345E-01 9.915108301E-01
 5.740028247E-01 7.821313035E-02 9.960485342E-01
 6.020129205E-01 1.119146795E-01 9.734992123E-01
 6.241368254E-01 9.344182939E-02 9.643080914E-01
 6.237793331E-01 7.261744506E-02 9.655448492E-01
 4.894881104E-01 1.045301321E-01 9.939525307E-01
 4.839551181E-01 8.534381737E-02 9.998446952E-01
 8.934674665E-01 6.540439969E-02 7.713007714E-01
 5.171766432E-01 7.720345861E-02 1.005681723E+00
 5.070420209E-01 9.299107940E-02 9.997071764E-01
 3.786421391E-01 7.740401058E-02 9.692197797E-01
 3.711350008E-01 9.358671223E-02 9.633342335E-01
 3.933009001E-01 8.900586558E-02 9.721403111E-01
 9.553509695E-01 2.423480411E-02 6.983805842E-01
 1.480112618E+00 4.384346628E-01 7.477855314E-01
 3.527321821E-01 8.782352172E-02 9.562662565E-01
 3.315434579E-01 9.393333943E-02 9.460623144E-01
 3.016031375E-01 1.018990128E-01 9.334048390E-01
 2.984546868E-01 8.207733357E-02 9.352780945E-01
 2.753213390E-01 8.867694070E-02 9.239797492E-01
 2.534326807E-01 6.833148900E-02 9.166516693E-01
 1.884072943E-01 -8.743371385E-02 8.711205272E-01
 2.000254870E-01 -5.637416511E-02 8.708057324E-01
 1.404286518E-01 2.474174205E-01 7.966353448E-01
 9.616502691E-02 1.675450133E-01 7.833751442E-01
 7.484895465E-02 4.888801771E-02 7.917180192E-01
 1.353978858E-01 1.189080783E-01 8.338310904E-01
 7.686154563E-02 1.042552421E-01 7.798572414E-01
 2.294108089E-02 1.462963644E-01 7.090876557E-01
 2.066002115E-02 2.499461562E-02 6.712336234E-01
 2.682044463E-02 8.618169784E-02 6.941230091E-01
 8.339818166E-01 6.025515327E-02 8.140264958E-01
 1.683688418E-01 -5.251301096E-02 8.547643838E-01
 2.458213022E-01 1.016041328E-01 9.085117200E-01
 1.011702039E+00 -5.314865404E-02 6.426654556E-01
 9.597688363E-01 -7.663058565E-02 6.385331308E-01
 8.960099617E-02 -7.757021710E-02 8.173922798E-01
 9.886368702E-02 -4.600871682E-02 8.187853410E-01
 1.036791189E+00 -4.680874383E-01 7.079453355E-01
 8.411599790E-01 4.176624584E-02 8.073598708E-01
 -4.531565739E-03 -3.271208164E-02 5.714243227E-01
 4.132144283E-01 -6.471488635E-02 9.463330975E-01
 7.664859527E-01 5.083378555E-02 8.560827160E-01
 4.258950796E-01 -6.152624282E-02 9.385291863E-01
 4.281425248E-01 -7.718833431E-02 9.328659164E-01
 4.596144891E-01 -6.134873116E-02 9.049399749E-01
 8.996229062E-01 3.119104754E-02 7.580417236E-01
 4.939914790E-01 7.598527608E-02 1.004090082E+00
 2.575004923E-01 -2.150484331E-01 8.494287901E-01
 5.615755643E-01 7.293784533E-02 1.001395066E+00
 5.886899216E-01 9.043975515E-02 9.877797181E-01
 2.698406504E-01 1.285836683E-01 9.118859968E-01
 2.163570480E-01 1.017995817E-01 8.933145203E-01
 2.668874673E-01 -6.132582590E-02 9.094665836E-01
 2.724570550E-01 -7.743324454E-02 9.150285354E-01
 2.979732130E-01 -8.681240652E-02 9.265447468E-01
 3.206237997E-01 -8.373255286E-02 9.381611117E-01
 1.124281115E-01 8.974397520E-02 8.270645996E-01
 1.397042728E-01 6.033614927E-02 8.546536690E-01
 9.802652825E-02 5.215117776E-02 8.225910525E-01
 9.081261495E-01 4.590961241E-02 7.533433940E-01
 8.616286502E-01 3.530689023E-02 7.901453667E-01
 8.601388261E-01 5.180162240E-02 7.931118287E-01
 8.896382397E-01 4.510387342E-02 7.721250585E-01
 4.479189644E-01 -7.254990600E-02 9.152834026E-01
 4.688799020E-01 -7.397810984E-02 8.924737077E-01
 4.487343910E-01 -9.742465289E-02 9.045451351E-01
 5.073790446E-01 -9.727192322E-02 8.477711579E-01
 6.507813035E-02 -6.737625122E-02 7.976703518E-01
 4.366328819E-02 -4.681048308E-02 7.653678502E-01
 2.083998301E-02 -3.447697167E-02 7.098280946E-01
 2.451105658E-02 -2.344660307E-02 7.126611461E-01
 1.931343324E-01 6.568092041E-02 8.866439759E-01
 1.839790594E-01 8.044293344E-02 8.795672531E-01
 1.635136658E-01 7.476039280E-02 8.689250404E-01
 1.686781067E-01 9.810309774E-02 8.649014915E-01
 1.426369933E-01 8.166869597E-02 8.512213929E-01
 1.077966534E-01 6.411767912E-02 8.298545953E-01
 8.744044472E-02 6.641425836E-02 8.075905886E-01
 6.038880316E-02 6.852167780E-02 7.686537881E-01
 7.284471549E-01 6.865919843E-02 8.847015527E-01
 5.222884584E-01 -5.445861124E-02 8.316419846E-01
 5.313714605E-01 -6.928883366E-02 8.248846241E-01
 5.098455176E-01 -6.837205429E-02 8.473580896E-01
 5.377812476E-01 -9.810485969E-02 8.184936379E-01
 5.617438953E-01 -7.445411402E-02 7.980519101E-01
 5.294138339E-01 -1.314521631E-01 8.239615709E-01
 3.405370551E-01 -6.356090248E-02 9.484502719E-01
 3.639995697E-01 -8.023860936E-02 9.519894093E-01
 3.861166103E-01 -8.107852482E-02 9.505273562E-01
 4.071179908E-01 -7.841276506E-02 9.469898672E-01
 1.543324585E-01 6.249635814E-02 8.635739271E-01
 2.419595764E-01 -6.379652913E-02 8.965807733E-01
 6.120900236E-01 6.769398182E-02 9.759294749E-01
 9.473255241E-01 -1.255360396E-01 6.546689254E-01
 9.228512398E-01 -4.714282876E-02 6.181348344E-01
 9.242645888E-01 -1.012311314E-02 5.884060989E-01
 9.606927956E-01 -4.205597581E-02 6.164765125E-01
 9.896392467E-01 -3.177519786E-02 6.170067553E-01
 3.284492247E-01 7.421410626E-02 9.473207117E-01
 5.407615528E-01 9.020740129E-02 1.001314838E+00
 4.709467399E-01 -5.778320155E-02 8.916652908E-01
 4.824284428E-01 -5.989151842E-02 8.775619915E-01
 4.914376209E-01 -7.587496823E-02 8.681941656E-01
 6.363659156E-01 6.647131968E-02 9.554024651E-01
 6.398225525E-01 8.120908205E-02 9.526277507E-01
 6.600388761E-01 7.954063582E-02 9.359473975E-01
 6.795221209E-01 6.069196148E-02 9.203503298E-01
 5.758975251E-01 -4.656342612E-02 7.768171795E-01
 5.816484110E-01 -6.007400848E-02 7.776709147E-01
 6.001741877E-01 -5.873815169E-02 7.621625839E-01
 9.931802843E-01 2.325697770E-02 6.534514412E-01
 4.888327011E-02 -3.291836970E-02 7.747509787E-01
 1.664044463E-01 6.032653904E-02 8.714549160E-01
 9.270363368E-01 3.706293367E-02 7.312732244E-01
 5.399759143E-01 7.348933679E-02 1.007085150E+00
 8.795881888E-02 4.729467270E-02 8.105316579E-01
 8.873033600E-01 3.106464457E-02 7.712633063E-01
 3.632177971E-01 -6.447044848E-02 9.547849395E-01
 2.414082054E-01 7.092534259E-02 9.108424022E-01
 9.561525779E-01 -1.996493798E-02 6.009475758E-01
 4.480861096E-01 -5.935657715E-02 9.159433336E-01
 1.299120645E-01 5.566970804E-02 8.479743215E-01
 4.290910874E-01 8.004641138E-02 9.848559354E-01
 2.654342917E-01 7.221907861E-02 9.217924511E-01
 1.281186109E+00 -3.605838879E-01 7.135477185E-01
 2.557205257E+00 2.075161022E-01 7.407703037E-01
 4.120295110E-01 7.972038566E-02 9.788933133E-01
 8.288196089E-01 4.254334636E-02 8.142837491E-01
 7.778303073E-01 5.142074484E-02 8.490456712E-01
 7.856146510E-01 6.396224344E-02 8.459110433E-01
 8.058017500E-01 6.331788243E-02 8.330901972E-01
 7.850595480E-01 9.154313644E-02 8.465830624E-01
 3.899714648E-01 7.538973761E-02 9.731553980E-01
 2.147278241E-01 6.561168939E-02 8.982870849E-01
 9.368797963E-01 -2.286581210E-02 6.000019736E-01
 9.160324980E-01 -2.109959875E-02 5.991021859E-01
 8.959060793E-01 -2.691905962E-02 6.060866629E-01
 8.888081183E-01 -1.378649236E-02 5.955630355E-01
 8.760904367E-01 -2.892139128E-02 6.112333486E-01
 8.557575711E-01 -2.860674483E-02 6.164545707E-01
 8.354466094E-01 -3.368140902E-02 6.273260210E-01
 8.122695242E-01 -3.936971263E-02 6.395323301E-01
 8.020878050E-01 -2.426254141E-02 6.321645494E-01
 7.896393174E-01 -3.583578724E-02 6.468547789E-01
 7.575194213E-01 -2.425516097E-02 6.541641650E-01
 8.290142164E-01 -6.179527895E-02 6.456765154E-01
 7.695234287E-01 -3.331984624E-02 6.537662912E-01
 7.521981242E-01 -4.176244465E-02 6.669637320E-01
 7.318088055E-01 -4.338748589E-02 6.781520422E-01
 7.043861958E-01 -3.127811763E-02 6.843221692E-01
 7.500909945E-01 -6.937228160E-02 6.801647003E-01
 1.092968558E-01 5.118514474E-02 8.329935745E-01
 9.562360470E-01 -7.158417953E-03 5.880671683E-01
 -4.155578325E-02 1.081239073E-01 6.369075548E-01
 -2.229798121E-02 6.382546540E-02 5.945926845E-01
 -6.565519940E-02 2.160057167E-01 6.859309601E-01
 1.548015912E-02 5.532417721E-02 6.521240958E-01
 3.018514643E-02 3.183968765E-02 7.041046898E-01
 -4.133010355E-03 3.155431614E-02 5.414098557E-01
 -1.968032185E-03 1.172491140E-02 3.868040595E-01
 6.597899197E-03 1.659837823E-02 5.786555780E-01
 -4.154437055E-02 3.132933410E-02 5.382860345E-01
 3.894967651E-02 5.872751956E-02 7.256321968E-01
 1.949668928E-02 4.003082475E-02 6.512177882E-01
 -1.481322007E-02 2.940624289E-03 3.285866976E-01
 5.740774342E-02 4.720207956E-02 7.612333629E-01
 7.048592221E-01 5.814505258E-02 8.998114979E-01
 7.032637318E-01 7.398437623E-02 9.022578073E-01
 1.672465341E-01 -6.726460648E-02 8.613959955E-01
 8.916755979E-01 -4.958330649E-02 6.226561901E-01
 7.280244043E-01 5.498018039E-02 8.826544366E-01
 6.582755872E-01 6.358268630E-02 9.375588334E-01
 6.058490977E-01 8.227363018E-02 9.779398133E-01
 9.460170565E-01 4.483413476E-02 7.181509980E-01
 2.320296523E-01 8.605758671E-02 9.051245180E-01
 1.596270143E+00 -7.755635709E-02 7.291946190E-01
 9.713685446E-01 3.925795396E-02 6.881284100E-01
 8.714763017E-01 3.275249631E-01 7.910513992E-01
 8.456607456E-02 -5.508762123E-02 8.146385286E-01
 1.077015641E-01 -6.232173865E-02 8.307436794E-01
 1.292884936E-01 -6.914042332E-02 8.442352054E-01
 9.240384806E-01 6.019344628E-02 7.428779903E-01
 1.042619976E+00 -1.442387573E-02 6.465984356E-01
 2.324417713E-01 -7.652881925E-02 8.949953811E-01