TITLE     = "Visualization of the solution"
VARIABLES = "x"
"y"
"Mach"
ZONE T="Zone"
 STRANDID=0, SOLUTIONTIME=0
 Nodes=688, Elements=1161, ZONETYPE=FEQuadrilateral
 DATAPACKING=POINT
 DT=(DOUBLE DOUBLE DOUBLE )
 1.000050902E+00 5.166441551E-04 5.378262023E-01
 9.862720370E-01 3.223599633E-03 5.931006743E-01
 9.732831717E-01 5.776623730E-03 6.334695230E-01
 9.581636190E-01 8.820069954E-03 6.541403278E-01
 9.439919591E-01 1.156038605E-02 6.743440166E-01
 9.310397506E-01 1.410030387E-02 6.894117768E-01
 9.198901057E-01 1.623722911E-02 7.035965203E-01
 9.080166817E-01 1.849013008E-02 7.170742983E-01
 8.965467811E-01 2.063399740E-02 7.303256808E-01
 8.845638633E-01 2.283735760E-02 7.427417871E-01
 8.722561598E-01 2.500941977E-02 7.538334528E-01
 8.602688909E-01 2.709215507E-02 7.653795852E-01
 8.479424715E-01 2.916236222E-02 7.737287218E-01
 8.364881277E-01 3.101641499E-02 7.798905340E-01
 8.247476816E-01 3.287690878E-02 7.876005924E-01
 8.122652769E-01 3.486485779E-02 7.977659589E-01
 7.994050384E-01 3.682602197E-02 8.057821963E-01
 7.874639034E-01 3.862184286E-02 8.129549472E-01
 7.753068805E-01 4.040186852E-02 8.204574336E-01
 7.636721730E-01 4.208942875E-02 8.297714783E-01
 7.509307861E-01 4.390465096E-02 8.393230852E-01
 7.373102903E-01 4.576829448E-02 8.477977615E-01
 7.266779542E-01 4.720352963E-02 8.569974192E-01
 7.155460715E-01 4.867343605E-02 8.650958716E-01
 7.037850618E-01 5.016466230E-02 8.731422150E-01
 6.903023124E-01 5.183982477E-02 8.851129423E-01
 6.774635315E-01 5.339562893E-02 8.959700475E-01
 6.669824719E-01 5.458593369E-02 9.052872846E-01
 6.552686691E-01 5.589209124E-02 9.128387686E-01
 6.439062953E-01 5.709687248E-02 9.209577592E-01
 6.320583820E-01 5.830356479E-02 9.305354431E-01
 6.206974387E-01 5.941757187E-02 9.406944417E-01
 6.097646356E-01 6.042507663E-02 9.502691312E-01
 5.974344015E-01 6.149794906E-02 9.622169215E-01
 5.857892036E-01 6.246912479E-02 9.732045856E-01
 5.720004439E-01 6.347431242E-02 9.833648989E-01
 5.592722893E-01 6.435555220E-02 9.921690748E-01
 5.465921164E-01 6.514410675E-02 9.967719538E-01
 5.353907347E-01 6.574862450E-02 9.971410594E-01
 5.233703256E-01 6.633993983E-02 1.000003628E+00
 5.106511116E-01 6.691040099E-02 1.002062109E+00
 4.995415807E-01 6.732081622E-02 9.998664939E-01
 4.862794876E-01 6.773137301E-02 9.959192064E-01
 4.729057252E-01 6.804507971E-02 9.934361424E-01
 4.585801959E-01 6.829853356E-02 9.906083428E-01
 4.447311759E-01 6.844159961E-02 9.865591263E-01
 4.314563870E-01 6.848760694E-02 9.799402053E-01
 4.180701971E-01 6.843859702E-02 9.742353998E-01
 4.055134356E-01 6.834194809E-02 9.699539523E-01
 3.925797045E-01 6.814713776E-02 9.644420316E-01
 3.800198436E-01 6.788092852E-02 9.585994240E-01
 3.685016036E-01 6.758882850E-02 9.528249590E-01
 3.550620675E-01 6.715528667E-02 9.473156510E-01
 3.426156938E-01 6.669906527E-02 9.415606745E-01
 3.296658695E-01 6.612981111E-02 9.355995682E-01
 3.189529479E-01 6.560700387E-02 9.290365690E-01
 3.065668941E-01 6.493103504E-02 9.221455933E-01
 2.933725417E-01 6.414324790E-02 9.159124789E-01
 2.793458104E-01 6.320191920E-02 9.093238629E-01
 2.668304443E-01 6.227951869E-02 9.030763748E-01
 2.548132241E-01 6.132340059E-02 8.977044081E-01
 2.422792315E-01 6.025967747E-02 8.919370652E-01
 2.296677679E-01 5.910215899E-02 8.861436586E-01
 2.175255269E-01 5.790364742E-02 8.784682297E-01
 2.056987286E-01 5.665088817E-02 8.703286476E-01
 1.942579895E-01 5.536414310E-02 8.635569309E-01
 1.820287108E-01 5.390754715E-02 8.550469655E-01
 1.703662276E-01 5.242204666E-02 8.465054884E-01
 1.588317454E-01 5.085951090E-02 8.385377595E-01
 1.472800523E-01 4.921463877E-02 8.322992904E-01
 1.367310882E-01 4.761026055E-02 8.236349638E-01
 1.254993528E-01 4.580226541E-02 8.128021174E-01
 1.144428700E-01 4.390290380E-02 8.009796467E-01
 1.039675549E-01 4.200207442E-02 7.887948348E-01
 9.440840781E-02 4.015925527E-02 7.764559069E-01
 8.376843482E-02 3.796784207E-02 7.623406567E-01
 7.231437415E-02 3.542267904E-02 7.483577591E-01
 6.278621405E-02 3.313780949E-02 7.364838176E-01
 5.323078483E-02 3.066392057E-02 7.232654836E-01
 4.444817454E-02 2.817091160E-02 7.093509604E-01
 3.687663004E-02 2.583173290E-02 6.951635665E-01
 3.029708005E-02 2.361269854E-02 6.809864378E-01
 2.460706420E-02 2.149964124E-02 6.772056477E-01
 2.047003806E-02 1.982013509E-02 6.651264343E-01
 1.653795876E-02 1.807440817E-02 6.325610233E-01
 1.363034453E-02 1.666112244E-02 5.926613174E-01
 1.104806084E-02 1.529500727E-02 5.758592429E-01
 9.128878824E-03 1.419367082E-02 5.498200914E-01
 7.407961879E-03 1.312416513E-02 5.205908359E-01
 5.796110258E-03 1.202038396E-02 5.002462279E-01
 3.710148623E-03 1.041008998E-02 4.334183704E-01
 1.927096746E-03 8.766589686E-03 4.262887028E-01
 4.363828921E-04 7.057156879E-03 2.811058045E-01
 -1.008673687E-03 4.709430970E-03 1.757246158E-01
 -1.654309803E-03 2.911663149E-03 1.718064955E-01
 -1.896454720E-03 1.460334519E-03 1.128370407E-01
 -1.868653577E-03 -2.466237929E-04 1.247621548E-01
 -1.472010743E-03 -2.131207846E-03 2.039836920E-01
 -5.418772344E-04 -4.325104412E-03 3.179455751E-01
 9.522265755E-04 -6.634914316E-03 4.429790666E-01
 3.058127593E-03 -9.041944519E-03 4.911288928E-01
 4.932824057E-03 -1.078748144E-02 5.367118060E-01
 7.110016886E-03 -1.254176535E-02 5.495129313E-01
 8.761731908E-03 -1.373758353E-02 5.560010237E-01
 1.083972398E-02 -1.510951202E-02 5.655741636E-01
 1.326285955E-02 -1.656886376E-02 5.885608226E-01
 1.652727649E-02 -1.835400797E-02 6.211935950E-01
 1.961824670E-02 -1.988880336E-02 6.437122184E-01
 2.359826304E-02 -2.168828622E-02 6.610832925E-01
 2.903987095E-02 -2.391508035E-02 6.835297586E-01
 3.480097279E-02 -2.603366785E-02 7.025403461E-01
 4.197244346E-02 -2.840224281E-02 7.221291318E-01
 4.954092577E-02 -3.065713122E-02 7.411350438E-01
 5.834530666E-02 -3.303709626E-02 7.577130369E-01
 6.700116396E-02 -3.517394140E-02 7.740594689E-01
 7.721777260E-02 -3.747968748E-02 7.858392994E-01
 8.715967089E-02 -3.954099119E-02 7.966803762E-01
 9.770240635E-02 -4.158136621E-02 8.070851159E-01
 1.087365672E-01 -4.354203120E-02 8.174623274E-01
 1.201985404E-01 -4.545216635E-02 8.269603325E-01
 1.317368895E-01 -4.724339768E-02 8.379301780E-01
 1.420824677E-01 -4.874043167E-02 8.461902273E-01
 1.531402022E-01 -5.025561526E-02 8.519618620E-01
 1.650328785E-01 -5.177811533E-02 8.605579490E-01
 1.766449064E-01 -5.317005143E-02 8.688242115E-01
 1.883548051E-01 -5.448576808E-02 8.758718552E-01
 1.988800317E-01 -5.558056384E-02 8.829515222E-01
 2.101153284E-01 -5.668146536E-02 8.908303254E-01
 2.223570794E-01 -5.778225884E-02 8.993383782E-01
 2.348158807E-01 -5.882146209E-02 9.087339859E-01
 2.468766421E-01 -5.972369388E-02 9.179254389E-01
 2.592491508E-01 -6.055570021E-02 9.264202457E-01
 2.702803314E-01 -6.121095270E-02 9.359653344E-01
 2.830112875E-01 -6.187140197E-02 9.447538713E-01
 2.954539061E-01 -6.241157278E-02 9.534114331E-01
 3.083392978E-01 -6.284247339E-02 9.610170397E-01
 3.199633360E-01 -6.314888597E-02 9.681658577E-01
 3.325420916E-01 -6.335140765E-02 9.758535380E-01
 3.432857990E-01 -6.343527883E-02 9.817855233E-01
 3.547392190E-01 -6.340963393E-02 9.854241324E-01
 3.657396734E-01 -6.329145283E-02 9.889938784E-01
 3.765226901E-01 -6.307893991E-02 9.924450155E-01
 3.880862594E-01 -6.274216622E-02 9.942765879E-01
 4.009824097E-01 -6.221081689E-02 9.886060349E-01
 4.132251441E-01 -6.158993021E-02 9.783313551E-01
 4.263499975E-01 -6.078234315E-02 9.640853464E-01
 4.389681816E-01 -5.985624716E-02 9.474155503E-01
 4.518455565E-01 -5.880010873E-02 9.307036415E-01
 4.642101824E-01 -5.766562745E-02 9.152402957E-01
 4.766849577E-01 -5.640977249E-02 8.987197904E-01
 4.885507524E-01 -5.509854108E-02 8.791356848E-01
 5.009992719E-01 -5.363092944E-02 8.580966711E-01
 5.148875713E-01 -5.191939324E-02 8.380857362E-01
 5.285921693E-01 -5.014518648E-02 8.218482543E-01
 5.417415500E-01 -4.837055132E-02 8.058192355E-01
 5.551845431E-01 -4.648462310E-02 7.893825189E-01
 5.683302283E-01 -4.462856054E-02 7.750891541E-01
 5.816184282E-01 -4.268143699E-02 7.599811909E-01
 5.940574408E-01 -4.083012417E-02 7.456152202E-01
 6.068164110E-01 -3.896379843E-02 7.352962997E-01
 6.202941537E-01 -3.690142930E-02 7.231414188E-01
 6.344805360E-01 -3.477992862E-02 7.104666774E-01
 6.484472752E-01 -3.267300129E-02 7.002378613E-01
 6.617981195E-01 -3.068332560E-02 6.944941248E-01
 6.752958298E-01 -2.865327336E-02 6.853221868E-01
 6.877225637E-01 -2.679639310E-02 6.761813105E-01
 7.000862360E-01 -2.494764328E-02 6.654857200E-01
 7.149413824E-01 -2.281855978E-02 6.577633087E-01
 7.279853225E-01 -2.092456818E-02 6.492644800E-01
 7.395133972E-01 -1.927086338E-02 6.406675052E-01
 7.522586584E-01 -1.745867729E-02 6.330430787E-01
 7.649141550E-01 -1.572425663E-02 6.247996066E-01
 7.778970003E-01 -1.397031732E-02 6.175301134E-01
 7.900230885E-01 -1.239861082E-02 6.113239288E-01
 8.027192354E-01 -1.078499109E-02 6.042759646E-01
 8.135021925E-01 -9.435584769E-03 5.965146590E-01
 8.251357675E-01 -8.086505346E-03 5.907930213E-01
 8.372511268E-01 -6.676423363E-03 5.836960544E-01
 8.495216966E-01 -5.371321924E-03 5.768830138E-01
 8.618662357E-01 -4.172956105E-03 5.716494263E-01
 8.729588389E-01 -3.126681084E-03 5.648019461E-01
 8.849431872E-01 -2.168931067E-03 5.601600877E-01
 8.976696730E-01 -1.246837899E-03 5.570557364E-01
 9.079383612E-01 -6.315478822E-04 5.539379114E-01
 9.179970026E-01 -1.028897605E-04 5.519082999E-01
 9.274675250E-01 2.947253233E-04 5.502247226E-01
 9.366502166E-01 5.891842302E-04 5.495985591E-01
 9.490864277E-01 8.546753088E-04 5.488718370E-01
 9.623544216E-01 9.891532827E-04 5.491108773E-01
 9.770678878E-01 9.540279279E-04 5.450194372E-01
 9.897807240E-01 7.656516973E-04 5.713623893E-01
 -5.000000000E-01 -1.000000000E+00 7.093927101E-01
 3.500000000E+00 -1.000000000E+00 7.316083090E-01
 3.500000000E+00 1.000000000E+00 7.281759407E-01
 -5.000000000E-01 1.000000000E+00 7.111692166E-01
 -5.000000000E-01 5.000000000E-01 6.956667184E-01
 -5.000000000E-01 2.752797990E-12 6.832565481E-01
 -5.000000000E-01 -5.000000000E-01 6.957829524E-01
 -9.421907698E-13 -1.000000000E+00 7.240585510E-01
 5.000000000E-01 -1.000000000E+00 7.462169451E-01
 1.000000000E+00 -1.000000000E+00 7.319009687E-01
 1.500000000E+00 -1.000000000E+00 7.218084506E-01
 2.000000000E+00 -1.000000000E+00 7.245583118E-01
 2.500000000E+00 -1.000000000E+00 7.284425663E-01
 3.000000000E+00 -1.000000000E+00 7.302488372E-01
 3.500000000E+00 -5.000000000E-01 7.336949117E-01
 3.500000000E+00 -2.752797990E-12 7.355561554E-01
 3.500000000E+00 5.000000000E-01 7.329549016E-01
 3.000000000E+00 1.000000000E+00 7.251893743E-01
 2.500000000E+00 1.000000000E+00 7.272304172E-01
 2.000000000E+00 1.000000000E+00 7.316770592E-01
 1.500000000E+00 1.000000000E+00 7.452275493E-01
 1.000000000E+00 1.000000000E+00 7.710466195E-01
 5.000000000E-01 1.000000000E+00 7.726768359E-01
 1.733724275E-12 1.000000000E+00 7.284066137E-01
 6.831132342E-01 -3.845947585E-02 6.864051581E-01
 7.889947754E-01 -2.496950783E-02 6.246998767E-01
 9.035500341E-01 -1.273883520E-02 5.699929267E-01
 7.004229919E-01 6.497627023E-02 8.839680352E-01
 2.737081756E-01 -7.526413833E-02 9.442461388E-01
 2.853095319E-01 7.670747666E-02 9.182046920E-01
 9.165570542E-01 3.010480147E-02 7.198143149E-01
 7.943069176E-01 4.941803581E-02 8.164440929E-01
 5.760486756E-01 -5.707210241E-02 7.781573476E-01
 5.933577850E-01 7.189012122E-02 9.696630616E-01
 4.096238781E-01 -7.477622748E-02 9.830668893E-01
 4.097139326E-01 8.107121651E-02 9.758815346E-01
 1.788706612E+00 -5.287719713E-01 7.283580307E-01
 1.793188197E+00 6.304093203E-01 7.453354441E-01
 3.031185551E+00 2.156793885E-01 7.388652757E-01
 7.385546322E-01 -5.205224691E-01 7.394475663E-01
 4.804841753E-01 -6.579485506E-02 8.959440182E-01
 3.108037515E-01 -6.429723444E-01 7.692576152E-01
 1.251810529E-01 -5.850539323E-02 8.416745093E-01
 1.926692975E-01 -6.414827957E-02 8.852822159E-01
 7.350336078E-01 5.134511914E-01 8.350491396E-01
 4.919769990E-01 7.986682869E-02 1.002181893E+00
 3.334270478E-01 6.151539266E-01 8.132859663E-01
 1.205598590E-01 5.805805935E-02 8.162752831E-01
 1.863586185E-01 6.829708717E-02 8.682839553E-01
 2.734823256E+00 -5.327163341E-01 7.334686911E-01
 1.148321877E+00 6.124989251E-01 7.654154544E-01
 1.027226138E+00 3.449670554E-01 7.553715720E-01
 8.555669656E-01 3.954099773E-02 7.759298388E-01
 1.248362343E+00 -6.650492571E-01 7.170098281E-01
 1.515557645E+00 -2.666411834E-01 7.255134211E-01
 2.240973937E+00 -5.768883490E-01 7.314438621E-01
 2.025764033E+00 -1.914054389E-01 7.337236894E-01
 2.420087611E+00 -1.843830617E-01 7.364138802E-01
 2.184536820E+00 1.580278728E-01 7.416326390E-01
 1.777466752E+00 1.254925915E-01 7.371783092E-01
 -2.710083170E-01 -2.367158694E-01 6.735026035E-01
 -6.885933150E-02 -6.055845574E-01 7.240057664E-01
 1.028006529E-01 -3.639330905E-01 7.603370537E-01
 3.393572686E-01 -7.291798131E-02 9.805439999E-01
 6.988948577E-02 -4.876936767E-02 7.824466262E-01
 -2.590663148E-01 2.221032540E-01 6.761245657E-01
 -1.534617264E-01 7.024089983E-01 7.184155217E-01
 4.344732606E-02 3.484420065E-01 7.397476174E-01
 4.682294540E-02 3.652145581E-02 7.118513901E-01
 2.227007363E+00 5.660490511E-01 7.412516306E-01
 2.744003714E+00 5.979914558E-01 7.369205448E-01
 -2.443106676E-01 -4.145026773E-03 6.550491053E-01
 -1.105893130E-01 -1.269541858E-01 6.438413455E-01
 -7.064320610E-02 -3.204548853E-01 6.999642906E-01
 2.511049853E-03 -1.823363042E-01 7.020529155E-01
 4.052518412E-02 -3.466094478E-02 7.179186058E-01
 1.592863576E-01 -2.320140467E-01 8.204512729E-01
 -2.591847346E-02 -1.038582714E-01 6.416422512E-01
 -1.135317455E-01 -1.069657307E-02 6.049776591E-01
 3.800051230E-02 -1.100749799E-01 7.364660924E-01
 3.109346678E+00 -2.612965644E-01 7.362744763E-01
 -5.289069333E-02 -5.010331386E-02 5.862009457E-01
 -5.808074552E-03 -6.137303120E-02 6.158911332E-01
 9.687941298E-03 -1.885033744E-02 5.521651281E-01
 1.987598267E-02 -2.703245363E-02 6.364086679E-01
 3.040194949E-02 -6.863848717E-02 7.100581675E-01
 5.478257902E-02 -4.335087292E-02 7.547160159E-01
 -1.992065052E-02 -3.086872084E-02 4.638893542E-01
 -2.292446014E-02 1.006836601E-02 3.860245991E-01
 4.682346962E-03 -1.499400122E-02 5.157442099E-01
 2.560486288E+00 2.060994769E-01 7.414765645E-01
 1.647378994E-03 -3.890196018E-02 5.559307522E-01
 1.781878745E-02 -4.840185010E-02 6.500661861E-01
 8.459267682E-02 -1.756485565E-01 7.841984948E-01
 1.034728497E-01 -1.176644856E-01 8.264651668E-01
 1.574511604E-01 -6.390229621E-02 8.642270658E-01
 5.843912450E-02 -2.629289631E-01 7.480723078E-01
 2.552198008E-01 -3.000251196E-01 8.374353786E-01
 2.999586746E-01 -1.997173086E-01 9.064610067E-01
 3.830706097E-01 -2.570881323E-01 8.831871370E-01
 3.792177384E-01 -1.679697255E-01 9.395806982E-01
 4.654375951E-01 -1.977995088E-01 8.843997531E-01
 4.495527987E-01 -6.977928823E-02 9.346205136E-01
 3.673629384E-01 -7.303139234E-02 9.885977968E-01
 4.808008539E-01 -3.073823730E-01 8.345573244E-01
 5.632370312E-01 -2.341869648E-01 8.040938017E-01
 6.291651301E-01 -4.772865113E-02 7.309624176E-01
 5.391308444E-01 -1.465386812E-01 8.350404015E-01
 6.273062244E-01 -1.597776112E-01 7.685047366E-01
 5.357118976E-01 -6.235204519E-02 8.221217493E-01
 6.577068671E-01 -2.346411960E-01 7.487953933E-01
 7.220857786E-01 -1.671824729E-01 7.211914971E-01
 8.456638403E-01 -1.812970168E-02 5.943448530E-01
 8.204722294E-01 -1.857444039E-02 6.050240008E-01
 8.674336356E-01 -1.519786938E-02 5.826995133E-01
 7.372229310E-01 -2.951377105E-02 6.525757017E-01
 7.610288372E-01 -2.866812068E-02 6.405401519E-01
 7.560433234E-01 -2.514933862E-01 7.127212758E-01
 8.531132773E-01 -1.695825968E-01 6.765686368E-01
 9.689882947E-01 -1.138598404E-02 5.665347668E-01
 9.446861796E-01 -1.190790280E-02 5.664180418E-01
 8.829204131E-01 -2.850719224E-01 6.909598914E-01
 9.491251785E-01 -1.782923274E-01 6.683448222E-01
 9.088990985E-01 -1.184076455E-01 6.518412332E-01
 9.930114721E-01 -9.940034986E-02 6.496582261E-01
 1.048262262E+00 -1.795246267E-01 6.809723601E-01
 1.099275055E+00 -9.482775397E-02 6.802805691E-01
 8.183227256E-01 -9.926755692E-02 6.666672981E-01
 2.069498342E-01 -1.497365920E-01 8.838846408E-01
 2.405734151E-01 -7.356231116E-02 9.199021292E-01
 1.037758124E+00 -5.923231213E-02 6.478363252E-01
 6.814881309E-01 -1.121972192E-01 7.306072226E-01
 8.663452478E-01 -6.762790351E-02 6.355408110E-01
 9.455273356E-01 -6.866559342E-02 6.235467526E-01
 3.179791209E-01 -1.388080286E-01 9.493351593E-01
 4.785841032E-01 -1.335575314E-01 9.007816279E-01
 5.901860458E-01 -1.139764569E-01 7.949359844E-01
 1.019484705E+00 -3.014738047E-01 6.898147192E-01
 1.142105351E+00 -2.835924416E-01 7.000225544E-01
 7.549560402E-01 -1.048225610E-01 6.930628051E-01
 7.141981077E-01 -7.707499842E-02 7.009612447E-01
 7.090915204E-01 -3.489118591E-02 6.702433071E-01
 6.425888359E-01 -3.439395822E-01 7.612895747E-01
 9.312639362E-01 -4.486148704E-01 7.072537367E-01
 3.558385182E-01 -1.173980881E-01 9.728274481E-01
 4.072071452E-01 -1.243361201E-01 9.687870428E-01
 5.143197885E-01 -1.065602139E-01 8.657774626E-01
 5.110156654E-01 -6.600544719E-02 8.523492832E-01
 9.852216164E-01 -9.434544888E-03 5.638151919E-01
 9.804822749E-01 -2.798884914E-02 5.809536198E-01
 9.574891163E-01 -3.004647032E-02 5.902527987E-01
 9.320363986E-01 -2.895878336E-02 5.868990667E-01
 9.231049140E-01 -1.211432039E-02 5.666959326E-01
 9.122175107E-01 -2.322572723E-02 5.819049154E-01
 8.931041332E-01 -2.580033000E-02 5.883898166E-01
 9.098925212E-01 -4.419710593E-02 6.073951970E-01
 5.174909154E-01 -4.781659808E-01 7.912917776E-01
 4.435925518E-01 -1.106302003E-01 9.418837255E-01
 9.565208880E-01 -1.029930571E-02 5.652359735E-01
 3.254677513E-01 -1.041352852E-01 9.697257575E-01
 3.019592580E-01 -7.354296529E-02 9.617432325E-01
 2.938327582E-01 -1.074600814E-01 9.563446663E-01
 3.840673425E-01 -1.020277523E-01 9.867646725E-01
 3.127673948E-01 -7.230317226E-02 9.664974926E-01
 3.094030345E-01 -8.700325619E-02 9.674085879E-01
 4.775416985E-01 -9.752088798E-02 9.048988919E-01
 7.241876722E-01 -3.078788855E-02 6.611413604E-01
 7.271145766E-01 -4.644900822E-02 6.740446002E-01
 7.486611610E-01 -3.936703552E-02 6.560861840E-01
 7.682672660E-01 -4.559930398E-02 6.544467011E-01
 7.919121848E-01 -4.535322538E-02 6.420719703E-01
 8.019637587E-01 -2.982145715E-02 6.247848071E-01
 8.208423232E-01 -3.760467782E-02 6.247589906E-01
 7.812836258E-01 -7.154956543E-02 6.667188964E-01
 7.490801295E-01 -6.414374543E-02 6.772197035E-01
 8.315432353E-01 -2.055338973E-02 6.026788338E-01
 8.383913345E-01 -3.278039604E-02 6.130388347E-01
 8.585220806E-01 -3.162645482E-02 6.055080377E-01
 8.351982305E-01 -5.657492555E-02 6.351768839E-01
 5.512096564E-01 -6.034042676E-02 8.049345514E-01
 5.476621392E-01 -7.403572484E-02 8.203554744E-01
 5.249639411E-01 -7.775653136E-02 8.414635910E-01
 5.653647271E-01 -7.149214868E-02 8.002514302E-01
 5.879709585E-01 -7.523065587E-02 7.834733201E-01
 6.242470672E-01 -9.199177116E-02 7.617795432E-01
 6.032418410E-01 -4.967100279E-02 7.482493541E-01
 6.613674111E-01 -7.330086208E-02 7.310573749E-01
 6.543752451E-01 -5.001596818E-02 7.156519411E-01
 6.878646844E-01 -6.521617286E-02 7.134722604E-01
 6.140197049E-01 -4.797463791E-02 7.396783214E-01
 6.105809886E-01 -6.660830788E-02 7.555966296E-01
 6.417050561E-01 -4.570204274E-02 7.190475053E-01
 6.379346872E-01 -6.318442115E-02 7.377122972E-01
 8.808297432E-01 -1.383754506E-02 5.768345363E-01
 8.767662060E-01 -2.663707427E-02 5.934214073E-01
 3.831018755E-01 -7.932702615E-02 9.909908369E-01
 3.967048927E-01 -7.420259160E-02 9.907799935E-01
 4.017300407E-01 -9.195672125E-02 9.879773852E-01
 5.230342490E-01 -6.163572069E-02 8.351386766E-01
 8.094591922E-01 -2.081635357E-02 6.117063272E-01
 9.129615645E-01 -9.762664093E-03 5.651314679E-01
 5.922530555E-01 -5.534893835E-02 7.622084654E-01
 1.463724777E-01 -1.484828904E-01 8.498079102E-01
 1.816949193E-01 -1.142429897E-01 8.885595465E-01
 2.203814501E-01 -1.093243367E-01 9.151666006E-01
 2.148405058E-01 -7.095856536E-02 9.021432560E-01
 2.600114464E-01 -1.371411342E-01 9.237523455E-01
 9.543854328E-01 -6.526219757E-01 7.221947133E-01
 5.566931192E-01 -9.635811177E-02 8.220786158E-01
 3.819324944E-01 -3.786789314E-01 8.286562550E-01
 2.405803061E-01 -4.654346909E-01 7.820092605E-01
 4.226470925E-01 -9.077107555E-02 9.683108833E-01
 9.731661235E-01 -5.302291368E-02 6.171138439E-01
 1.003102158E+00 -4.609560815E-02 6.210493538E-01
 9.327890468E-01 -1.041941940E-02 5.639769331E-01
 6.702057887E-01 -7.157137950E-01 7.556530570E-01
 8.091463585E-01 -6.621982236E-02 6.512779321E-01
 8.920193541E-01 -1.115849585E-02 5.708728405E-01
 7.940213731E-01 -3.799947562E-01 7.167366712E-01
 7.809042290E-01 -1.584697148E-01 6.956100699E-01
 6.724023688E-01 -5.416173911E-02 7.065829513E-01
 9.966139134E-01 -1.915329869E-02 5.805221020E-01
 6.991243897E-01 -4.874288909E-02 6.894010378E-01
 1.987005379E-01 -8.298462746E-02 8.978738998E-01
 1.664311775E-01 -8.504275546E-02 8.806460061E-01
 1.430888541E-01 -1.048046041E-01 8.652611798E-01
 2.260595790E-01 -8.601275545E-02 9.153421183E-01
 2.463097708E-01 -9.637829594E-02 9.326446994E-01
 2.709653875E-01 -9.427247195E-02 9.471747017E-01
 2.582804105E-01 -7.442393774E-02 9.331865244E-01
 2.897619725E-01 -8.026084113E-02 9.559389953E-01
 1.777519190E-01 -6.697698605E-02 8.773409909E-01
 8.828597501E-01 -4.461631634E-02 6.100144958E-01
 7.755023698E-01 -2.904745530E-02 6.345944221E-01
 1.742812464E+00 -1.419097157E-01 7.301294670E-01
 1.517021822E+00 -1.027523118E-02 7.242311184E-01
 1.338915121E+00 -1.165569755E-01 7.131626684E-01
 1.290330778E+00 8.887702406E-02 7.138020885E-01
 1.489566486E+00 2.250242240E-01 7.378340360E-01
 1.248612962E+00 3.235594205E-01 7.411508498E-01
 1.475540873E+00 5.220202673E-01 7.498081522E-01
 1.107336463E+00 1.717999823E-01 7.211296354E-01
 9.673522542E-01 1.701742983E-02 6.563661297E-01
 9.610820492E-01 1.903779614E-01 7.534391109E-01
 8.634763059E-01 2.837532414E-01 7.996033642E-01
 8.079749658E-01 1.895327277E-01 8.317639626E-01
 7.432209979E-01 2.472784760E-01 8.636756779E-01
 6.504668598E-01 6.625525680E-02 9.204381751E-01
 7.450813525E-01 5.797212399E-02 8.506913380E-01
 7.223145391E-01 6.025289675E-02 8.667425206E-01
 7.099007589E-01 1.601973458E-01 8.919694261E-01
 6.330103892E-01 2.229173157E-01 9.196839545E-01
 5.404440012E-01 7.437970816E-02 9.997865378E-01
 5.668654816E-01 7.962597040E-02 9.925483202E-01
 8.975750592E-01 1.238085346E-01 7.762116172E-01
 6.446838064E-01 1.476916836E-01 9.334726849E-01
 7.689630750E-01 1.265605380E-01 8.555755049E-01
 6.437128211E-01 3.107755871E-01 8.905509683E-01
 5.428569462E-01 3.005826406E-01 9.154360211E-01
 3.470638104E-01 7.630630395E-02 9.484024205E-01
 1.022159246E+00 1.120596481E-01 7.100534975E-01
 6.845123550E-01 1.152285076E-01 9.114795130E-01
 5.655071165E-01 4.459589178E-01 8.655882639E-01
 4.105185305E-01 3.659546058E-01 8.810659393E-01
 3.787715859E-01 2.359047664E-01 9.262802197E-01
 5.024692877E-01 1.913080862E-01 9.740070264E-01
 4.499704622E-01 8.271255870E-02 9.927517680E-01
 2.876544248E-01 2.963760747E-01 8.695949097E-01
 2.337046028E-01 7.407117660E-02 8.976375943E-01
 3.021269869E-01 1.839165868E-01 9.158131347E-01
 1.947978390E-01 2.194798970E-01 8.563481982E-01
 3.652074923E-01 1.590595441E-01 9.562885818E-01
 2.310971741E-01 1.492904014E-01 8.984345645E-01
 1.383405817E-01 1.568130928E-01 8.339277362E-01
 1.511444761E-01 6.334915429E-02 8.408705209E-01
 3.282385993E-01 1.277235995E-01 9.477789819E-01
 3.108834487E-01 7.834717835E-02 9.313228100E-01
 1.882913039E-01 1.177783212E-01 8.790351070E-01
 6.458337095E-01 1.058450250E-01 9.330130181E-01
 6.148615625E-01 6.851795109E-02 9.487620007E-01
 6.051973904E-01 1.194343350E-01 9.625244116E-01
 5.905777018E-01 1.710387940E-01 9.620769940E-01
 5.559117611E-01 1.309445407E-01 9.910645738E-01
 1.152427168E+00 4.949589271E-02 6.851722229E-01
 1.069643133E+00 5.038394863E-02 6.747759216E-01
 1.013447121E+00 5.676874802E-02 6.716368987E-01
 9.621274587E-01 9.525894654E-02 7.256023124E-01
 9.140586709E-01 7.215042052E-02 7.484146376E-01
 8.912164367E-01 3.480915932E-02 7.463272222E-01
 8.673915770E-01 8.017482346E-02 7.851545529E-01
 9.494734540E-01 5.055523050E-02 7.054283189E-01
 9.393409013E-01 2.763061824E-02 6.959607254E-01
 3.614937429E-01 1.194369735E-01 9.635351838E-01
 3.863015707E-01 8.022905806E-02 9.661598019E-01
 3.987650009E-01 1.223739076E-01 9.765820729E-01
 3.367340468E-01 7.560935675E-02 9.436761205E-01
 3.405183367E-01 9.273850346E-02 9.528096879E-01
 3.598249610E-01 7.999458936E-02 9.553304701E-01
 3.740872230E-01 9.580061240E-02 9.660140335E-01
 4.374055626E-01 1.739861430E-01 9.711791272E-01
 4.456478704E-01 1.261759732E-01 9.925435413E-01
 4.950544752E-01 1.331374938E-01 9.968327307E-01
 5.258974966E-01 1.060046739E-01 1.006576885E+00
 5.190118952E-01 8.212526637E-02 1.005566318E+00
 5.044450128E-01 7.781549052E-02 1.004672772E+00
 5.027118352E-01 9.558905085E-02 1.006914390E+00
 4.822964286E-01 9.512263237E-02 1.003484326E+00
 1.201571497E+00 -4.980137820E-02 6.870751162E-01
 1.678522420E-01 3.404843497E-01 8.044922311E-01
 4.669714206E-01 8.265124285E-02 9.969140130E-01
 4.584151720E-01 1.017553067E-01 9.995808918E-01
 4.382435274E-01 9.518063862E-02 9.913299225E-01
 6.712267975E-01 9.260124691E-02 9.143914937E-01
 6.734683352E-01 6.191658709E-02 9.036130006E-01
 6.935313253E-01 8.368184808E-02 8.970031204E-01
 6.850757216E-01 6.246092812E-02 8.957954386E-01
 7.143342566E-01 7.389073738E-02 8.789088056E-01
 7.344625333E-01 7.374734134E-02 8.656843279E-01
 7.554137679E-01 7.294446038E-02 8.516774938E-01
 7.718982425E-01 5.016688640E-02 8.289890996E-01
 7.216248580E-01 1.038492072E-01 8.830918254E-01
 7.988742365E-01 9.095031346E-02 8.330536207E-01
 8.360252851E-01 1.185225053E-01 8.133254519E-01
 5.534884794E-01 9.652688770E-02 1.001351132E+00
 5.792847966E-01 9.805235783E-02 9.870306591E-01
 1.038516015E+00 2.136906589E-02 6.279489086E-01
 1.024474046E+00 -1.287696295E-02 6.037846480E-01
 1.081453270E+00 -1.036192033E-02 6.480204066E-01
 9.547214957E-01 2.475735008E-02 6.771398208E-01
 5.505765403E-01 7.833733687E-02 9.993066653E-01
 6.623863583E-01 6.629327950E-02 9.126625537E-01
 7.609727057E-01 5.537350662E-02 8.393537939E-01
 9.776492772E-01 5.300050416E-02 6.858775150E-01
 9.950654061E-01 1.435339226E-02 6.176128809E-01
 9.819885881E-01 1.574879906E-02 6.294461471E-01
 3.258607064E-01 7.946034132E-02 9.398280992E-01
 3.184095888E-01 9.833019437E-02 9.421669677E-01
 2.850313482E-01 1.163124373E-01 9.272230721E-01
 2.443588372E-01 1.103867331E-01 9.116320548E-01
 2.594898085E-01 7.520126266E-02 9.072860193E-01
 2.957295565E-01 9.001439340E-02 9.283659846E-01
 2.167953459E-01 9.589912371E-02 8.984674436E-01
 2.096933208E-01 7.150330074E-02 8.852684519E-01
 4.381336250E-01 7.996090765E-02 9.869095547E-01
 7.815631712E-01 4.875442457E-02 8.224055442E-01
 7.788399119E-01 6.516348926E-02 8.334432334E-01
 5.298722047E-01 7.603916883E-02 1.001650857E+00
 9.821820107E-02 2.417238832E-01 7.766078858E-01
 5.811459933E-02 1.621532294E-01 7.446197625E-01
 1.387759173E-02 2.037168212E-02 6.211429496E-01
 7.593723707E-02 4.654538845E-02 7.618540624E-01
 9.466632936E-02 1.126164083E-01 8.046900886E-01
 3.735868136E-02 9.937785547E-02 7.194946046E-01
 -3.027096490E-02 1.236676783E-01 6.530352411E-01
 2.378961711E-02 2.838010469E-02 6.666646812E-01
 -1.679182204E-02 7.338579536E-02 6.312077512E-01
 1.426740027E-01 9.963185741E-02 8.504065958E-01
 -1.594154976E-01 1.092508517E-01 6.356925731E-01
 9.273272014E-01 4.247722077E-02 7.202503779E-01
 9.060909362E-01 4.453234519E-02 7.395808152E-01
 8.869166243E-01 5.461163669E-02 7.615521432E-01
 3.737470404E-01 7.829880337E-02 9.605785317E-01
 7.109200106E-01 5.931260250E-02 8.730580043E-01
 8.785753523E-01 4.157783247E-02 7.613460353E-01
 2.214773128E-01 7.169588149E-02 8.910803437E-01
 1.967090161E-01 8.371935964E-02 8.851487586E-01
 1.735950667E-01 8.595459989E-02 8.713328915E-01
 6.194910800E-01 9.582160217E-02 9.524011381E-01
 7.332395641E-01 5.636707814E-02 8.577904623E-01
 1.986350977E-01 6.676653591E-02 8.747545097E-01
 8.311694607E-01 7.683938316E-02 8.094984016E-01
 8.334031555E-01 4.323535442E-02 7.894879675E-01
 8.194291393E-01 4.580448857E-02 7.999455333E-01
 2.024547818E-02 6.490510374E-02 6.744002312E-01
 5.828371898E-01 7.759082874E-02 9.800528583E-01
 2.602698093E-01 4.269446207E-01 8.243575577E-01
 5.366194185E-01 8.683254194E-02 1.004023293E+00
 6.166123884E-01 6.490270092E-01 8.280821575E-01
 7.533380149E-02 7.449977605E-02 7.749867619E-01
 9.760521906E-02 5.044452093E-02 7.892685031E-01
 8.279632791E-01 5.591230419E-02 8.008906944E-01
 8.082953227E-01 6.137871010E-02 8.151248738E-01
 8.463378111E-01 5.583048420E-02 7.901169380E-01
 2.461990056E-01 8.884982723E-02 9.078404966E-01
 2.698348011E-01 9.024899308E-02 9.174744700E-01
 8.667377185E-01 5.186476900E-02 7.750057092E-01
 1.320086224E+00 -3.166138728E-01 7.161590683E-01
 9.923381993E-01 3.170864876E-02 6.494518691E-01
 8.067403390E-01 4.565842285E-02 8.074082865E-01
 2.983723945E-01 7.482866627E-02 9.234381784E-01
 4.585283946E-02 6.437649573E-02 7.228281972E-01
 2.666471896E-02 4.807347670E-02 6.721931481E-01
 3.832142816E-03 4.353567115E-02 5.968780906E-01
 5.646133540E-03 1.396817899E-02 4.884510813E-01
 5.980447102E-02 5.174420399E-02 7.448551587E-01
 1.484208370E-02 3.403143507E-02 6.453239680E-01
 3.255824272E-02 3.531704001E-02 6.856499005E-01
 1.682923734E-01 6.475296331E-02 8.538077400E-01
 1.540640755E-01 7.736057832E-02 8.537475735E-01
 1.356319824E-01 7.276427335E-02 8.379391776E-01
 6.045568006E-01 7.257884136E-02 9.593992443E-01
 6.335500167E-01 8.261504652E-02 9.395118393E-01
 5.995602905E-01 8.835385011E-02 9.684412908E-01
 8.829441066E-01 4.613667856E-01 7.971156322E-01
 7.573901791E-01 3.710348517E-01 8.434015874E-01
 1.164860600E-01 -8.944386089E-02 8.480267303E-01
 1.006251292E-01 -5.284382883E-02 8.180230748E-01
 8.510746365E-02 -8.639252036E-02 8.125225360E-01
 5.821610669E-02 -6.899414437E-02 7.702811312E-01
 8.404710146E-02 -6.061676096E-02 8.062181288E-01