TITLE     = "Visualization of the solution"
VARIABLES = "x"
"y"
"Mach"
ZONE T="Zone"
 STRANDID=0, SOLUTIONTIME=0
 Nodes=710, Elements=1205, ZONETYPE=FEQuadrilateral
 DATAPACKING=POINT
 DT=(DOUBLE DOUBLE DOUBLE )
 9.996526241E-01 5.283328355E-04 5.924301688E-01
 9.862449169E-01 2.971655456E-03 6.334412033E-01
 9.739283919E-01 5.129183643E-03 6.708926236E-01
 9.601511955E-01 7.640911732E-03 6.938918928E-01
 9.470881224E-01 9.980732575E-03 7.144672994E-01
 9.345260859E-01 1.207789686E-02 7.267925507E-01
 9.236891866E-01 1.397729572E-02 7.402421801E-01
 9.114006758E-01 1.605973206E-02 7.592932392E-01
 9.001439810E-01 1.797685213E-02 7.766226777E-01
 8.876950145E-01 1.991650462E-02 7.860986176E-01
 8.751718998E-01 2.177151106E-02 7.935786033E-01
 8.632781506E-01 2.351645567E-02 8.020112916E-01
 8.506941199E-01 2.525727823E-02 8.067459950E-01
 8.386741281E-01 2.685113065E-02 8.101815876E-01
 8.267917633E-01 2.840609290E-02 8.146636549E-01
 8.138235807E-01 3.006304614E-02 8.201661526E-01
 8.007589579E-01 3.170258924E-02 8.257749808E-01
 7.885627151E-01 3.318835422E-02 8.315221565E-01
 7.757729292E-01 3.473200649E-02 8.385863876E-01
 7.634237409E-01 3.620053083E-02 8.437045658E-01
 7.499498725E-01 3.771253303E-02 8.492452802E-01
 7.362701297E-01 3.927062824E-02 8.570184183E-01
 7.251229882E-01 4.049009457E-02 8.623168779E-01
 7.133411169E-01 4.172274098E-02 8.678368412E-01
 7.015865445E-01 4.297002032E-02 8.763357934E-01
 6.879016161E-01 4.434547946E-02 8.846323348E-01
 6.747516990E-01 4.563813284E-02 8.919119551E-01
 6.638767123E-01 4.665596411E-02 8.987514223E-01
 6.521071196E-01 4.773268104E-02 9.054944422E-01
 6.410203576E-01 4.869691283E-02 9.116429822E-01
 6.289409399E-01 4.970289767E-02 9.187369407E-01
 6.175635457E-01 5.061644688E-02 9.256402209E-01
 6.066281199E-01 5.143524334E-02 9.318967003E-01
 5.943379402E-01 5.232086033E-02 9.376766381E-01
 5.823095441E-01 5.310796946E-02 9.444574123E-01
 5.688030124E-01 5.396474525E-02 9.516264816E-01
 5.559284687E-01 5.467939004E-02 9.569202558E-01
 5.431344509E-01 5.533299223E-02 9.609042697E-01
 5.317113400E-01 5.584910512E-02 9.638721425E-01
 5.196942687E-01 5.634060875E-02 9.669177332E-01
 5.068382025E-01 5.680219829E-02 9.680135167E-01
 4.957542419E-01 5.710793287E-02 9.670780843E-01
 4.827818871E-01 5.743183196E-02 9.661888249E-01
 4.698108733E-01 5.765243247E-02 9.657379730E-01
 4.559215307E-01 5.784140155E-02 9.653711075E-01
 4.420563579E-01 5.792682990E-02 9.639264171E-01
 4.291318357E-01 5.794097856E-02 9.615855082E-01
 4.159447551E-01 5.788135156E-02 9.594363773E-01
 4.037908614E-01 5.776889250E-02 9.557333158E-01
 3.910235167E-01 5.756549537E-02 9.518700551E-01
 3.791198730E-01 5.733188987E-02 9.479030570E-01
 3.679149449E-01 5.703890324E-02 9.438475484E-01
 3.549708128E-01 5.666044354E-02 9.406382276E-01
 3.430434465E-01 5.624381453E-02 9.371669220E-01
 3.309878707E-01 5.576278642E-02 9.327360976E-01
 3.207304478E-01 5.529683456E-02 9.286110444E-01
 3.089344800E-01 5.473263934E-02 9.243695337E-01
 2.961918712E-01 5.404015258E-02 9.197600233E-01
 2.824624777E-01 5.323151872E-02 9.142047892E-01
 2.696592510E-01 5.238385499E-02 9.087185594E-01
 2.577945590E-01 5.156091973E-02 9.041926212E-01
 2.451788783E-01 5.061588436E-02 8.991777047E-01
 2.320468277E-01 4.955740646E-02 8.938273512E-01
 2.196843177E-01 4.849532992E-02 8.888737156E-01
 2.077493072E-01 4.739519954E-02 8.836058221E-01
 1.962123662E-01 4.627444968E-02 8.790599669E-01
 1.837139726E-01 4.499625042E-02 8.746916834E-01
 1.717009246E-01 4.368840903E-02 8.683192822E-01
 1.597091705E-01 4.229887202E-02 8.622458719E-01
 1.476962566E-01 4.083014280E-02 8.576638452E-01
 1.367030442E-01 3.942605108E-02 8.529017674E-01
 1.253534108E-01 3.787400573E-02 8.468770786E-01
 1.138695255E-01 3.622773662E-02 8.413373247E-01
 1.029867530E-01 3.457010537E-02 8.348126899E-01
 9.304628521E-02 3.296196833E-02 8.272891339E-01
 8.194883913E-02 3.105148301E-02 8.191199212E-01
 7.033947110E-02 2.890130132E-02 8.118617747E-01
 6.064444408E-02 2.695641853E-02 8.044787791E-01
 5.128126219E-02 2.492986806E-02 7.982361644E-01
 4.241133854E-02 2.283230238E-02 7.983745877E-01
 3.486861289E-02 2.087473311E-02 7.979767187E-01
 2.839158103E-02 1.901310310E-02 7.907129251E-01
 2.289503813E-02 1.726659946E-02 7.746699484E-01
 1.893804781E-02 1.588655263E-02 7.537251544E-01
 1.527910214E-02 1.447606552E-02 7.210017995E-01
 1.261914056E-02 1.334704179E-02 6.991404792E-01
 1.030698046E-02 1.226833649E-02 6.964123093E-01
 8.619874716E-03 1.141580380E-02 7.143979243E-01
 7.058173418E-03 1.054934319E-02 7.122673983E-01
 5.581703968E-03 9.656410664E-03 6.963247402E-01
 3.620835254E-03 8.301107213E-03 6.571513045E-01
 1.991649857E-03 6.947296206E-03 6.387631592E-01
 6.052438403E-04 5.517482758E-03 5.895162245E-01
 -7.321501616E-04 3.601645818E-03 4.229745904E-01
 -1.404065173E-03 2.040795283E-03 2.702819816E-01
 -1.698786626E-03 7.643220597E-04 1.892402469E-01
 -1.763079898E-03 -8.152034716E-04 7.832085731E-02
 -1.428365358E-03 -2.759715309E-03 8.004435230E-02
 -5.437264917E-04 -4.956753924E-03 1.831802601E-01
 9.521519532E-04 -7.307677064E-03 3.364584892E-01
 3.089245642E-03 -9.773645550E-03 4.758057467E-01
 5.064541940E-03 -1.162461005E-02 5.040446019E-01
 7.394087967E-03 -1.350549981E-02 5.512501871E-01
 9.104675613E-03 -1.474184450E-02 5.886621823E-01
 1.121915504E-02 -1.614480093E-02 6.115374128E-01
 1.370545197E-02 -1.765781268E-02 6.274225416E-01
 1.704972237E-02 -1.950710639E-02 6.507491135E-01
 2.034442499E-02 -2.116836235E-02 6.743968632E-01
 2.447061799E-02 -2.306958660E-02 6.981745175E-01
 2.996978909E-02 -2.536168136E-02 7.219907585E-01
 3.578848392E-02 -2.755039558E-02 7.449009311E-01
 4.303979874E-02 -3.002578393E-02 7.646696214E-01
 5.077739805E-02 -3.241024539E-02 7.887443924E-01
 5.966201425E-02 -3.489553556E-02 8.074361226E-01
 6.861124933E-02 -3.717664257E-02 8.220895728E-01
 7.927235216E-02 -3.966269642E-02 8.339376688E-01
 8.927259594E-02 -4.180605710E-02 8.456195048E-01
 1.001108810E-01 -4.396431148E-02 8.559789011E-01
 1.114316359E-01 -4.604633898E-02 8.660523688E-01
 1.232517958E-01 -4.805869237E-02 8.747805927E-01
 1.350383759E-01 -4.993606359E-02 8.843706318E-01
 1.457632780E-01 -5.152030289E-02 8.934353798E-01
 1.570224464E-01 -5.307887867E-02 9.017073514E-01
 1.689965576E-01 -5.463486537E-02 9.091032459E-01
 1.807804406E-01 -5.606183410E-02 9.169991845E-01
 1.925664842E-01 -5.739386752E-02 9.260573328E-01
 2.030364275E-01 -5.848207697E-02 9.341444193E-01
 2.143854648E-01 -5.959422514E-02 9.412966968E-01
 2.265433818E-01 -6.067783013E-02 9.494220754E-01
 2.387165874E-01 -6.167459488E-02 9.582876000E-01
 2.506651580E-01 -6.254845113E-02 9.675108026E-01
 2.632713914E-01 -6.337878108E-02 9.773386507E-01
 2.744579017E-01 -6.401842833E-02 9.877835025E-01
 2.869000435E-01 -6.462652981E-02 9.968863870E-01
 2.991967499E-01 -6.512276083E-02 1.006535314E+00
 3.118263483E-01 -6.552188843E-02 1.016510631E+00
 3.232861161E-01 -6.575861573E-02 1.026045364E+00
 3.353517056E-01 -6.590951979E-02 1.034732523E+00
 3.456436694E-01 -6.594239175E-02 1.043866971E+00
 3.567871749E-01 -6.587847322E-02 1.051219525E+00
 3.677897155E-01 -6.572630256E-02 1.057446687E+00
 3.783846200E-01 -6.546215713E-02 1.059437949E+00
 3.897580802E-01 -6.508041918E-02 1.057139127E+00
 4.021324813E-01 -6.455568224E-02 1.050676958E+00
 4.139762521E-01 -6.389274448E-02 1.036035964E+00
 4.268349707E-01 -6.306520104E-02 1.015392844E+00
 4.390863180E-01 -6.215746328E-02 9.936378408E-01
 4.518315792E-01 -6.105548888E-02 9.714518954E-01
 4.641621709E-01 -5.990336463E-02 9.524717837E-01
 4.767503440E-01 -5.861235783E-02 9.359857463E-01
 4.885035753E-01 -5.729335174E-02 9.172517553E-01
 5.006524324E-01 -5.586460605E-02 8.978518804E-01
 5.139156580E-01 -5.421198532E-02 8.798686920E-01
 5.274367332E-01 -5.245514959E-02 8.630641847E-01
 5.403555036E-01 -5.070780590E-02 8.480590374E-01
 5.542239547E-01 -4.878911376E-02 8.334681396E-01
 5.667971373E-01 -4.694206640E-02 8.168867719E-01
 5.801476240E-01 -4.500025138E-02 8.025051058E-01
 5.930177569E-01 -4.310255498E-02 7.921831169E-01
 6.057441831E-01 -4.119988903E-02 7.813634632E-01
 6.188185215E-01 -3.921321034E-02 7.689600250E-01
 6.328725815E-01 -3.707829118E-02 7.572327117E-01
 6.465036869E-01 -3.501515836E-02 7.472328688E-01
 6.600396037E-01 -3.296128660E-02 7.379215650E-01
 6.736627817E-01 -3.089349717E-02 7.287002412E-01
 6.863732338E-01 -2.896594815E-02 7.199988052E-01
 6.989101171E-01 -2.707546949E-02 7.110367159E-01
 7.137045860E-01 -2.483638376E-02 7.010024182E-01
 7.267117500E-01 -2.290263399E-02 6.916300668E-01
 7.382342815E-01 -2.122104354E-02 6.852830484E-01
 7.512344718E-01 -1.937947422E-02 6.791563819E-01
 7.638725638E-01 -1.754118688E-02 6.701670962E-01
 7.770693302E-01 -1.571055688E-02 6.621476061E-01
 7.894240618E-01 -1.404257212E-02 6.555334120E-01
 8.018550873E-01 -1.235433016E-02 6.475450462E-01
 8.133677244E-01 -1.089984644E-02 6.411924828E-01
 8.246939778E-01 -9.474423714E-03 6.353277095E-01
 8.368999362E-01 -7.995259948E-03 6.272903492E-01
 8.490855694E-01 -6.584102754E-03 6.194319737E-01
 8.610893488E-01 -5.276202224E-03 6.122949777E-01
 8.724101782E-01 -4.125406966E-03 6.063516149E-01
 8.843304515E-01 -3.039594740E-03 6.018394143E-01
 8.973894119E-01 -1.975706313E-03 5.972272613E-01
 9.075608850E-01 -1.251038047E-03 5.928256394E-01
 9.178451896E-01 -6.143118953E-04 5.901234476E-01
 9.280004501E-01 -1.113654362E-04 5.878245521E-01
 9.375839829E-01 2.759157505E-04 5.883258901E-01
 9.502155185E-01 6.367909955E-04 5.865206737E-01
 9.640993476E-01 8.469786844E-04 5.878565069E-01
 9.781357646E-01 8.733110153E-04 5.834229200E-01
 9.901955128E-01 7.413687999E-04 6.002692200E-01
 -5.000000000E-01 -1.000000000E+00 7.123095842E-01
 3.500000000E+00 -1.000000000E+00 7.305504695E-01
 3.500000000E+00 1.000000000E+00 7.289667041E-01
 -5.000000000E-01 1.000000000E+00 7.124281601E-01
 -5.000000000E-01 5.000000000E-01 6.998807888E-01
 -5.000000000E-01 2.752797990E-12 6.871162114E-01
 -5.000000000E-01 -5.000000000E-01 6.989046846E-01
 -9.421907698E-13 -1.000000000E+00 7.243969493E-01
 5.000000000E-01 -1.000000000E+00 7.488308326E-01
 1.000000000E+00 -1.000000000E+00 7.352330035E-01
 1.500000000E+00 -1.000000000E+00 7.235690938E-01
 2.000000000E+00 -1.000000000E+00 7.242055079E-01
 2.500000000E+00 -1.000000000E+00 7.270684079E-01
 3.000000000E+00 -1.000000000E+00 7.284835324E-01
 3.500000000E+00 -5.000000000E-01 7.331531663E-01
 3.500000000E+00 -2.752797990E-12 7.351191030E-01
 3.500000000E+00 5.000000000E-01 7.328298243E-01
 3.000000000E+00 1.000000000E+00 7.268752879E-01
 2.500000000E+00 1.000000000E+00 7.289321705E-01
 2.000000000E+00 1.000000000E+00 7.328670280E-01
 1.500000000E+00 1.000000000E+00 7.426276994E-01
 1.000000000E+00 1.000000000E+00 7.635949700E-01
 5.000000000E-01 1.000000000E+00 7.638219419E-01
 1.733724275E-12 1.000000000E+00 7.267983322E-01
 6.806665035E-01 -4.276319435E-02 7.252162228E-01
 7.859166463E-01 -2.693349247E-02 6.612212928E-01
 9.037271588E-01 -9.654869221E-03 5.988863290E-01
 5.876049617E-01 -5.739028371E-02 7.967721741E-01
 7.094061888E-01 5.139825976E-02 8.714002065E-01
 2.746484234E-01 6.603949205E-02 9.094291160E-01
 2.803316013E-01 -7.810357917E-02 9.825875805E-01
 9.084988574E-01 2.726342862E-02 7.670065745E-01
 8.080466153E-01 4.375238133E-02 8.241386459E-01
 5.992769414E-01 6.540813233E-02 9.339603803E-01
 4.235535158E-01 7.104315739E-02 9.581350290E-01
 4.206380587E-01 -7.384058117E-02 1.017278669E+00
 1.833238961E+00 -5.941473940E-01 7.288600300E-01
 1.794525455E+00 6.429047834E-01 7.428746026E-01
 3.031195150E+00 2.156749471E-01 7.384134627E-01
 7.556903805E-01 -5.614701475E-01 7.440767392E-01
 4.924154801E-01 -6.935709425E-02 9.088451960E-01
 3.649048983E-01 -7.221596990E-01 7.712010799E-01
 1.285541380E-01 -6.030074397E-02 8.698182462E-01
 1.859418690E-01 -6.868481360E-02 9.133900571E-01
 3.522634993E-01 -7.710060758E-02 1.036313785E+00
 7.529587246E-01 5.592109948E-01 8.068692079E-01
 5.024389287E-01 6.738092934E-02 9.646648733E-01
 2.734799669E+00 -5.327399543E-01 7.334661337E-01
 1.157062906E+00 6.914995870E-01 7.627369477E-01
 9.881604083E-01 3.324751212E-01 7.556477807E-01
 1.252685240E+00 -6.293829118E-01 7.203012854E-01
 1.486175574E+00 -2.256579376E-01 7.267196008E-01
 3.724143839E-01 6.243693544E-01 7.997457612E-01
 1.058710695E-01 4.790167186E-02 8.357770145E-01
 1.619731965E-01 5.347306319E-02 8.632732544E-01
 3.473972320E-01 6.538306603E-02 9.368665500E-01
 2.248375317E+00 -5.878165421E-01 7.316210997E-01
 1.990954268E+00 -2.111198316E-01 7.351930958E-01
 2.414414872E+00 -1.864103028E-01 7.374938663E-01
 2.184457355E+00 1.578396382E-01 7.410863642E-01
 1.818177733E+00 1.244081442E-01 7.384917828E-01
 -2.738322456E-01 2.321309456E-01 6.811757162E-01
 -1.340953759E-01 6.509601929E-01 7.217934674E-01
 3.088435839E-02 3.283122482E-01 7.308322708E-01
 4.193068541E-02 3.284192985E-02 7.755381090E-01
 -2.712401746E-01 -2.368546470E-01 6.794025035E-01
 -1.460336206E-01 -6.019061902E-01 7.168951257E-01
 9.400828480E-02 -4.129462142E-01 7.580982151E-01
 7.069916397E-02 -4.802622239E-02 8.099610391E-01
 2.241402375E+00 5.539168471E-01 7.398777335E-01
 2.746407216E+00 5.959675353E-01 7.363513586E-01
 -2.351732856E-01 -4.633867052E-03 6.596511223E-01
 -1.274041702E-01 1.262108643E-01 6.498108417E-01
 -1.095706593E-01 -1.273437388E-01 6.436650571E-01
 -8.011169600E-02 -3.271391785E-01 7.023428590E-01
 9.158945008E-03 -1.818353086E-01 7.016414719E-01
 3.747259986E-02 -3.447557246E-02 7.429932452E-01
 1.597190884E-01 -2.193539253E-01 8.244367884E-01
 2.295705943E-01 -7.572661911E-02 9.439538105E-01
 -2.182041889E-02 -9.884414825E-02 6.293832857E-01
 -1.095800773E-01 -2.358491485E-02 6.072013281E-01
 -6.947905554E-02 5.499122693E-02 5.904968390E-01
 3.349202106E-02 -1.158063728E-01 7.077231896E-01
 3.109333478E+00 -2.613172586E-01 7.364243424E-01
 -5.082713871E-02 -3.912392680E-02 5.540757092E-01
 -5.665002246E-02 2.082636784E-03 5.495633193E-01
 -1.504517987E-02 6.506854603E-02 6.237008074E-01
 2.115225252E-02 2.370739943E-02 7.497778415E-01
 1.277162477E-02 1.665760640E-02 6.922317812E-01
 -3.732765301E-02 1.040694387E-01 6.446775310E-01
 2.589383756E-02 1.012369287E-01 7.140451207E-01
 7.308183438E-02 4.048411264E-02 8.092205179E-01
 -2.168373377E-02 1.824174843E-01 6.928559919E-01
 7.346225589E-02 1.934821404E-01 7.645243771E-01
 2.127057139E-01 5.985722250E-02 8.851543504E-01
 1.658874098E-01 2.858585491E-01 8.016040557E-01
 1.902641159E-01 6.034043023E-02 8.758730838E-01
 2.194847696E-01 1.824155637E-01 8.519882215E-01
 2.809172629E-01 2.563508977E-01 8.519303385E-01
 2.967431392E-01 1.576014925E-01 8.905218906E-01
 3.673225913E-01 2.161632801E-01 8.896935620E-01
 3.127436935E-01 6.784267493E-02 9.244864141E-01
 3.723004566E-01 1.408362549E-01 9.210436746E-01
 4.369939451E-01 1.784150212E-01 9.190926882E-01
 5.504089054E-01 6.766120975E-02 9.561921653E-01
 5.247486567E-01 6.949196274E-02 9.628464375E-01
 4.642148377E-01 6.823261640E-02 9.624750949E-01
 4.461610377E-01 2.686016803E-01 8.855090310E-01
 5.291452387E-01 2.040161872E-01 9.080645221E-01
 3.839520870E-01 6.982848955E-02 9.473711683E-01
 5.420564044E-01 3.382465104E-01 8.665616136E-01
 6.300627385E-01 2.554490598E-01 8.709188232E-01
 6.583581545E-01 5.891804832E-02 9.017163457E-01
 6.131975557E-01 1.570942359E-01 9.022676551E-01
 7.082980024E-01 1.757304997E-01 8.564415623E-01
 7.597966452E-01 5.001860199E-02 8.466906657E-01
 7.333495787E-01 2.637398528E-01 8.338681999E-01
 8.136095964E-01 1.952142019E-01 8.128603869E-01
 8.581368097E-01 3.971526154E-02 8.029371203E-01
 8.324586855E-01 4.205685372E-02 8.134773666E-01
 8.840413201E-01 3.020455220E-02 7.865029673E-01
 7.652203343E-01 1.401945778E-01 8.364477296E-01
 8.488146030E-01 1.222986198E-01 7.974533449E-01
 6.703722455E-01 1.225197987E-01 8.858503932E-01
 5.450390697E-01 1.365117828E-01 9.354009373E-01
 8.949676543E-01 1.895387849E-01 7.711873024E-01
 9.724650001E-01 2.343046642E-02 6.876705370E-01
 9.424758823E-01 2.610298528E-02 7.252448831E-01
 9.377387586E-01 1.200267040E-01 7.471072501E-01
 1.001873504E+00 1.955809981E-01 7.352634442E-01
 1.111781206E+00 2.643337137E-01 7.326793096E-01
 1.012389895E+00 1.138048595E-01 7.103274697E-01
 2.456530457E-01 1.197934891E-01 8.837269734E-01
 1.932268962E-01 1.251182156E-01 8.581503461E-01
 8.922772934E-01 9.146995650E-02 7.772812804E-01
 6.261131610E-01 1.074315508E-01 9.128170930E-01
 6.368333754E-01 6.015316086E-02 9.136119458E-01
 9.746533869E-01 7.530172051E-02 7.132810389E-01
 1.024611564E+00 6.020707533E-02 6.859012843E-01
 1.086659569E+00 9.883143357E-02 7.007740504E-01
 1.075653294E+00 2.803114850E-02 6.776465545E-01
 1.164619368E+00 5.220471598E-02 7.043163295E-01
 8.137370600E-01 8.815611441E-02 8.202230411E-01
 7.835469219E-01 4.577550624E-02 8.357615424E-01
 3.313482728E-01 1.128861054E-01 9.190921010E-01
 9.707715716E-02 1.076550104E-01 8.051238730E-01
 4.231011477E-01 1.206587969E-01 9.424421596E-01
 4.812290105E-01 1.270998259E-01 9.418401591E-01
 6.782823103E-01 3.788462072E-01 8.357607110E-01
 8.515272010E-01 3.278541141E-01 7.953088027E-01
 4.265013923E-01 4.044515724E-01 8.458794915E-01
 2.686535510E-01 3.878991038E-01 8.205308565E-01
 -7.861564594E-03 -6.055561898E-02 5.794922705E-01
 9.049137090E-03 -1.712045726E-02 5.640719462E-01
 2.106314572E-02 -2.725834503E-02 6.635409632E-01
 5.179917558E-01 1.056276793E-01 9.519605506E-01
 2.890744718E-02 -7.395293988E-02 6.907568259E-01
 5.479225996E-02 -4.384984340E-02 7.808370769E-01
 6.677652313E-02 -9.474177986E-02 7.708735890E-01
 1.004856684E-01 -5.769545761E-02 8.422427880E-01
 8.293037217E-02 -1.383474308E-01 7.737621466E-01
 1.123078773E-01 -1.047406653E-01 8.282817362E-01
 6.536418321E-01 9.153082588E-02 9.010387724E-01
 6.920262836E-01 8.917594632E-02 8.829152243E-01
 6.811517530E-01 5.772935488E-02 8.885033725E-01
 3.616205341E-01 1.033133743E-01 9.324817016E-01
 3.947994793E-01 1.002108272E-01 9.410426024E-01
 1.752733249E-02 6.189266050E-02 7.010789436E-01
 5.427882980E-02 7.398636103E-02 7.695816362E-01
 5.608606068E-01 5.227265337E-01 8.291455802E-01
 3.596376877E-01 6.867684986E-02 9.396331864E-01
 5.508754364E-01 1.040405506E-01 9.473068845E-01
 5.751658368E-01 6.584387074E-02 9.464923604E-01
 6.977182682E-01 5.581967288E-02 8.790960745E-01
 2.148387308E-01 9.249114844E-02 8.790827499E-01
 2.364666139E-01 6.230007917E-02 8.946158325E-01
 3.376104664E-01 6.471325627E-02 9.336947515E-01
 3.412094014E-01 8.085550796E-02 9.320437311E-01
 4.550293989E-01 1.041168026E-01 9.525205940E-01
 6.254266563E-01 5.892006770E-02 9.203971405E-01
 6.309904891E-01 7.363163149E-02 9.161507745E-01
 6.491867347E-01 6.933180207E-02 9.065211943E-01
 6.698989604E-01 7.160497788E-02 8.947204664E-01
 6.070101959E-01 8.324824250E-02 9.279346113E-01
 5.843037513E-01 1.068121807E-01 9.326955968E-01
 5.870272630E-01 6.314385175E-02 9.402479964E-01
 5.861047960E-01 7.746279240E-02 9.391477482E-01
 5.638447878E-01 8.032047643E-02 9.482970681E-01
 4.504728399E-01 7.145587601E-02 9.612220909E-01
 4.371767713E-01 8.765388099E-02 9.552463407E-01
 3.273092680E-01 6.841853945E-02 9.293678601E-01
 3.196381018E-01 8.627320760E-02 9.228953204E-01
 3.002440161E-01 7.961542195E-02 9.178910005E-01
 4.112282261E-01 6.783311769E-02 9.560558367E-01
 4.123279208E-01 8.521170853E-02 9.517542303E-01
 6.475011484E-01 5.696652102E-02 9.078538975E-01
 6.696074558E-01 5.610929560E-02 8.954402986E-01
 3.987199950E-01 7.031220730E-02 9.519109466E-01
 2.511719492E-01 6.395980369E-02 9.005096711E-01
 2.433787611E-01 8.435991110E-02 8.937166879E-01
 2.667905882E-01 9.605125134E-02 9.007798972E-01
 2.632416215E-01 7.571304232E-02 9.036304398E-01
 4.364782641E-01 6.920414457E-02 9.604051820E-01
 4.851835162E-01 9.269384583E-02 9.567445962E-01
 7.202962066E-01 5.127780629E-02 8.648655577E-01
 7.129100963E-01 6.760489432E-02 8.714627774E-01
 7.338130644E-01 6.411905057E-02 8.603900245E-01
 7.253389379E-01 1.002371535E-01 8.605217116E-01
 3.727050975E-01 8.402627911E-02 9.409560428E-01
 4.768084441E-01 7.186885561E-02 9.617725670E-01
 5.379926018E-01 8.391207544E-02 9.563285371E-01
 -1.199365474E-01 2.642994036E-01 6.896696877E-01
 6.144826581E-01 6.387662737E-02 9.261660646E-01
 3.726659380E-01 6.738048232E-02 9.437611023E-01
 2.227900790E-01 7.280375858E-02 8.876092809E-01
 7.319597507E-01 4.881303581E-02 8.602370257E-01
 7.578982553E-01 7.150477957E-02 8.493089908E-01
 7.836118395E-01 7.446648337E-02 8.371680349E-01
 7.449479530E-01 5.190643820E-02 8.542769045E-01
 5.375991910E-01 6.644946905E-02 9.605790237E-01
 5.628302022E-01 6.449393844E-02 9.524419877E-01
 2.562318070E+00 2.033541195E-01 7.407228050E-01
 -2.011700764E-02 -3.134108740E-02 4.771282662E-01
 1.979405608E-03 -1.391084497E-02 4.323447315E-01
 -2.898977372E-02 -6.771889689E-03 4.427446196E-01
 -1.261141388E-02 -1.486319684E-03 3.459079464E-01
 -3.065270940E-03 -5.031112385E-03 2.079776149E-01
 2.633031608E-01 6.193142255E-02 9.053593062E-01
 1.133245517E-03 -4.079901362E-02 5.550973458E-01
 2.032824639E-02 -5.115033701E-02 6.467994675E-01
 9.878080213E-01 4.566419844E-02 6.859970611E-01
 2.247387104E-01 5.860275932E-02 8.901723463E-01
 -1.099162802E-02 -1.528256822E-02 3.782170318E-01
 -1.973803213E-02 2.104661749E-02 4.991580480E-01
 -2.464262644E-05 1.040513378E-02 5.347638368E-01
 8.459146575E-02 7.046406652E-02 8.120352435E-01
 1.274787463E-01 8.561526739E-02 8.407824993E-01
 1.383482773E-01 5.037018553E-02 8.531921011E-01
 6.521107495E-02 5.404967721E-02 7.944362355E-01
 9.560878510E-01 4.424602948E-02 7.172356253E-01
 9.894086425E-01 2.423070831E-02 6.647729790E-01
 1.017865663E+00 2.057090147E-02 6.522566553E-01
 1.342424579E-01 -1.541897446E-01 8.312324800E-01
 1.610021072E-01 -1.120033408E-01 8.700204209E-01
 1.483081005E-01 -6.186030142E-02 8.855912996E-01
 1.893025407E-01 -1.582586810E-01 8.713416728E-01
 2.387325748E-01 -2.109340210E-01 8.807432749E-01
 2.825019112E-01 -1.542871520E-01 9.317711157E-01
 3.233270922E-01 -2.109237755E-01 9.217290151E-01
 3.148231821E-01 -7.600439258E-02 1.011244017E+00
 3.078298564E-01 -2.861754003E-01 8.780992524E-01
 4.016104580E-01 -2.702599696E-01 8.925623182E-01
 4.282784377E-01 -1.813794255E-01 9.250256886E-01
 5.010648366E-01 -2.404096777E-01 8.555484077E-01
 4.565589716E-01 -7.341487457E-02 9.571383713E-01
 5.246630952E-01 -1.602763108E-01 8.498762937E-01
 5.914340567E-01 -2.124256737E-01 7.934398407E-01
 5.479527573E-01 -6.246132970E-02 8.384503809E-01
 5.234401710E-01 -6.668034483E-02 8.670980247E-01
 5.032666854E-01 -3.707452244E-01 8.234561762E-01
 5.897990719E-01 -1.412123301E-01 7.955542829E-01
 6.410859701E-01 -5.238190675E-02 7.527493453E-01
 6.667133914E-01 -1.638253300E-01 7.489759626E-01
 7.330013969E-01 -3.372922569E-02 6.915850476E-01
 6.758846306E-01 -2.684370021E-01 7.499344476E-01
 7.559807365E-01 -2.085176704E-01 7.164772932E-01
 9.835457325E-01 -1.069908154E-02 6.018500133E-01
 9.420766504E-01 -1.253413467E-02 5.944496210E-01
 8.442052745E-01 -1.776005577E-02 6.283265179E-01
 8.215002080E-01 -2.120723173E-02 6.411760432E-01
 8.678073141E-01 -1.412892563E-02 6.142996326E-01
 7.423124716E-01 -1.219216695E-01 7.053358823E-01
 8.209555308E-01 -1.522009304E-01 6.838127438E-01
 8.463973641E-01 -2.227891418E-01 6.927385697E-01
 9.066606680E-01 -1.563992794E-01 6.649300218E-01
 9.641865677E-01 -2.652179594E-01 6.863877515E-01
 1.051204327E+00 -1.784983956E-01 6.794372486E-01
 8.029836315E-01 -9.281104610E-02 6.712091038E-01
 8.605093755E-01 -9.626047115E-02 6.527053794E-01
 9.375361917E-01 -8.379015494E-02 6.364386299E-01
 1.042269786E+00 -9.133538889E-02 6.643886475E-01
 1.153212461E+00 -1.251443208E-01 6.948350391E-01
 1.152003152E+00 -2.462320806E-01 6.993816708E-01
 3.323492445E-01 -1.466652413E-01 9.648843717E-01
 3.820278315E-01 -7.570420101E-02 1.048486711E+00
 6.784670822E-01 -1.058936714E-01 7.332397663E-01
 6.286186430E-01 -9.682142654E-02 7.666871803E-01
 6.138020230E-01 -5.455691927E-02 7.750381443E-01
 7.200359573E-01 -7.455836256E-02 7.075629984E-01
 7.097002848E-01 -3.843283105E-02 7.066052811E-01
 8.949020379E-01 -6.698377234E-02 6.316971313E-01
 4.637871987E-01 -1.318842610E-01 9.170879826E-01
 2.036933324E-01 -1.088015188E-01 9.041263588E-01
 2.072792735E-01 -7.079610494E-02 9.298630809E-01
 8.327482937E-01 -5.590834550E-02 6.474279973E-01
 8.656940064E-01 -5.164556115E-02 6.322180309E-01
 5.458537088E-01 -1.081350612E-01 8.352212039E-01
 1.103665467E+00 -4.234106905E-01 7.065126718E-01
 1.294119357E+00 -1.640477137E-01 7.153136850E-01
 7.783333389E-01 -3.165351993E-01 7.155399610E-01
 6.668965658E-01 -4.002448666E-01 7.561592597E-01
 3.018023185E-01 -1.178573730E-01 9.682509524E-01
 2.679144812E-01 -1.159004867E-01 9.462150211E-01
 2.586851766E-01 -7.245218638E-02 9.676273495E-01
 5.817789339E-01 -9.494001955E-02 8.016660659E-01
 7.992057837E-01 -5.579209938E-02 6.625545687E-01
 7.641529615E-01 -6.940835905E-02 6.829962302E-01
 7.590489052E-01 -2.912246193E-02 6.766731002E-01
 8.810370147E-01 -4.327655463E-01 7.144512575E-01
 9.767929979E-01 -6.345734399E-01 7.261014620E-01
 3.366343033E-01 -1.115080226E-01 9.959846605E-01
 3.723538692E-01 -1.254210446E-01 9.962769288E-01
 5.631949402E-01 -6.043647280E-02 8.215048096E-01
 5.589400848E-01 -7.921684350E-02 8.250102761E-01
 5.381270858E-01 -7.759386220E-02 8.482579471E-01
 5.171664305E-01 -8.630013291E-02 8.685448264E-01
 4.928210647E-01 -9.168065362E-02 9.019661462E-01
 5.111458286E-01 -1.192161893E-01 8.724634673E-01
 4.809087674E-01 -7.776687251E-02 9.220543377E-01
 4.641660178E-01 -9.139174830E-02 9.385922104E-01
 4.334876755E-01 -1.103870084E-01 9.696347396E-01
 4.425301171E-01 -8.589496680E-02 9.721320934E-01
 3.272890864E-01 -7.758206341E-02 1.019453564E+00
 5.776146328E-01 -7.055803863E-02 8.065722505E-01
 6.029857642E-01 -7.108657748E-02 7.854659128E-01
 6.860457878E-01 -7.311186818E-02 7.260134278E-01
 6.558341214E-01 -7.182516447E-02 7.448196934E-01
 5.354231816E-01 -6.256387934E-02 8.529060916E-01
 8.875798085E-01 -3.409878491E-02 6.169551040E-01
 9.169987779E-01 -4.368016304E-02 6.145466240E-01
 9.652040445E-01 -5.544491915E-02 6.215254807E-01
 9.242632152E-01 -7.874914460E-03 5.932302622E-01
 7.474730786E-01 -3.317086383E-02 6.838583189E-01
 7.416006403E-01 -5.121605842E-02 6.908045550E-01
 7.219342697E-01 -4.828692304E-02 7.013035317E-01
 3.430608647E-01 -4.276703266E-01 8.188301141E-01
 7.210104575E-01 -3.363759951E-02 6.981236372E-01
 8.574655888E-01 -1.782783714E-02 6.210623429E-01
 4.447573717E-01 -7.123817966E-02 9.768363228E-01
 4.337798726E-01 -7.366810475E-02 9.956978113E-01
 5.750718592E-01 -5.606542258E-02 8.080644142E-01
 8.789221089E-01 -1.670248671E-02 6.110885191E-01
 7.055172711E-01 -5.754412533E-02 7.133276105E-01
 5.445527140E-01 -5.451149324E-01 7.865988587E-01
 9.441189090E-01 -3.455184234E-02 6.108166739E-01
 9.691674907E-01 -2.782692848E-02 6.020402888E-01
 9.993724806E-01 -4.398545639E-02 6.247761710E-01
 9.331276119E-01 -8.217307714E-03 5.925469536E-01
 9.132420327E-01 -9.638447761E-03 5.965760997E-01
 6.571624485E-01 -4.900799281E-02 7.413319618E-01
 6.289145794E-01 -6.712178707E-02 7.641943435E-01
 8.081802352E-01 -2.317975745E-02 6.481670029E-01
 8.156533472E-01 -3.724240272E-02 6.492080855E-01
 7.981546587E-01 -3.547736351E-02 6.573555474E-01
 8.331380135E-01 -3.034162553E-02 6.384055837E-01
 7.967061379E-01 -2.239750314E-02 6.539528275E-01
 9.586976931E-01 -1.323533121E-02 5.982912822E-01
 9.707292057E-01 -1.000821031E-02 5.916815581E-01
 9.280210952E-01 -2.045412573E-02 6.000665491E-01
 1.237073422E+00 -3.491975328E-02 7.084547917E-01
 1.295576481E+00 1.068183453E-01 7.218730494E-01
 1.404506371E+00 -3.601160582E-02 7.234972733E-01
 1.507917577E+00 1.403123472E-01 7.327253153E-01
 1.311949878E+00 3.022655768E-01 7.359652053E-01
 1.447889510E+00 5.613614897E-01 7.475363290E-01
 3.788717018E-01 -1.800749321E-01 9.547882252E-01
 1.306090231E+00 -3.534907352E-01 7.173492847E-01
 6.724289779E-01 -5.667497440E-02 7.321058533E-01
 7.801503753E-01 -4.404804827E-02 6.687259188E-01
 7.609645883E-01 -4.436870820E-02 6.789259785E-01
 1.649904576E+00 -7.690999038E-02 7.321130754E-01
 9.311436182E-01 7.311704076E-02 7.479231235E-01
 9.050452370E-01 5.956764764E-02 7.694240777E-01
 8.743677080E-01 5.891554913E-02 7.920899806E-01
 9.287267093E-01 4.254635937E-02 7.452620081E-01
 9.192344022E-01 2.741674523E-02 7.518010994E-01
 8.935147455E-01 -1.466913868E-02 6.052310369E-01
 3.597899694E-01 -9.908881571E-02 1.021873695E+00
 3.675454100E-01 -8.302343476E-02 1.040605371E+00
 3.831593927E-01 -9.341318974E-02 1.029037802E+00
 4.019327462E-01 -8.939199677E-02 1.026559878E+00
 4.045054000E-01 -1.097374095E-01 1.003655537E+00
 -1.482190258E-03 -2.638160203E-02 4.847556697E-01
 7.725752623E-01 5.985102566E-02 8.409637999E-01
 2.349209923E-01 -1.400053365E-01 9.102224045E-01
 2.374488474E-01 -9.892020287E-02 9.354793693E-01
 2.638289043E-01 -8.676680909E-02 9.624532074E-01
 5.877093550E-01 -2.984524889E-01 7.910168736E-01
 7.976445789E-01 5.744844612E-02 8.304897477E-01
 8.193652685E-01 5.520755882E-02 8.196198470E-01
 8.434940703E-01 5.746926260E-02 8.089389086E-01
 1.374547041E-01 -8.900983826E-02 8.606627905E-01
 1.171336112E-01 -7.330334849E-02 8.481020307E-01
 9.559360116E-01 2.042079344E-02 7.098661448E-01
 1.821439058E-01 8.369235055E-02 8.673907047E-01
 9.949133310E-01 1.214222267E-02 6.419102493E-01
 2.874933236E-01 -9.561748269E-02 9.750926571E-01
 9.081400791E-01 -2.228277694E-02 6.053256433E-01
 2.986142695E-01 -7.696324161E-02 9.974583378E-01
 3.152814461E-01 -9.214913368E-02 9.970743979E-01
 8.505586912E-01 -3.423997821E-02 6.311760363E-01
 3.912746836E-01 8.277388821E-02 9.474153989E-01
 9.824288449E-01 -1.430979187E-01 6.612747502E-01
 1.824968817E-01 -9.325128148E-02 8.986566099E-01
 1.594620813E-01 -8.205665054E-02 8.840961608E-01
 1.703044341E-01 -7.038108532E-02 9.027877523E-01
 1.967320593E-01 -8.185498923E-02 9.158354332E-01
 5.067352061E-01 -7.068246950E-02 8.875292940E-01
 8.006146140E-02 -2.744879168E-01 7.579501170E-01