TITLE     = "Visualization of the solution"
VARIABLES = "x"
"y"
"Mach"
ZONE T="Zone"
 STRANDID=0, SOLUTIONTIME=0
 Nodes=681, Elements=1147, ZONETYPE=FEQuadrilateral
 DATAPACKING=POINT
 DT=(DOUBLE DOUBLE DOUBLE )
 1.000211835E+00 5.104960292E-04 5.440995118E-01
 9.863695502E-01 3.309830558E-03 5.905034449E-01
 9.729925990E-01 5.982310046E-03 6.277174601E-01
 9.569808841E-01 9.306794964E-03 6.532257635E-01
 9.418452382E-01 1.229224447E-02 6.743775827E-01
 9.284583926E-01 1.503228117E-02 6.882477244E-01
 9.164664745E-01 1.736283489E-02 7.006152705E-01
 9.049591422E-01 1.966536045E-02 7.152767647E-01
 8.935126662E-01 2.194651589E-02 7.288035147E-01
 8.814921975E-01 2.421367168E-02 7.383021456E-01
 8.695855141E-01 2.646837756E-02 7.527137379E-01
 8.576588035E-01 2.873735502E-02 7.651783451E-01
 8.450750113E-01 3.092337400E-02 7.733565618E-01
 8.341876864E-01 3.288255259E-02 7.840794306E-01
 8.226122260E-01 3.487197682E-02 7.933095693E-01
 8.099903464E-01 3.697563708E-02 8.017828792E-01
 7.974091768E-01 3.906519711E-02 8.117908085E-01
 7.852966785E-01 4.102972522E-02 8.233487724E-01
 7.730470300E-01 4.297469929E-02 8.322602786E-01
 7.615252137E-01 4.471673071E-02 8.403778657E-01
 7.487849593E-01 4.664801434E-02 8.513552596E-01
 7.353249192E-01 4.862723127E-02 8.636290657E-01
 7.248241305E-01 5.014521629E-02 8.733861668E-01
 7.138241529E-01 5.166798458E-02 8.818756696E-01
 7.021985054E-01 5.323550850E-02 8.921571246E-01
 6.892864704E-01 5.494771898E-02 9.053292507E-01
 6.767499447E-01 5.653979629E-02 9.186614419E-01
 6.663600802E-01 5.780064687E-02 9.299454676E-01
 6.549823880E-01 5.912755802E-02 9.401909013E-01
 6.437476277E-01 6.039586291E-02 9.510793118E-01
 6.320177317E-01 6.164230034E-02 9.651348863E-01
 6.206167936E-01 6.282178313E-02 9.789933668E-01
 6.102986932E-01 6.382187456E-02 9.878693947E-01
 5.980870724E-01 6.490284204E-02 9.976211120E-01
 5.867906213E-01 6.589197367E-02 1.009273236E+00
 5.733652115E-01 6.694000214E-02 1.018046761E+00
 5.609461665E-01 6.784411520E-02 1.022802770E+00
 5.483349562E-01 6.865194440E-02 1.024980357E+00
 5.372394919E-01 6.929925829E-02 1.027791066E+00
 5.255452394E-01 6.992943585E-02 1.029854551E+00
 5.132113695E-01 7.049223036E-02 1.027878898E+00
 5.022527575E-01 7.093509287E-02 1.023785542E+00
 4.889156818E-01 7.137167454E-02 1.018357910E+00
 4.756067395E-01 7.172901183E-02 1.014118212E+00
 4.619078636E-01 7.201196253E-02 1.009177967E+00
 4.481142461E-01 7.218582183E-02 1.003141932E+00
 4.352393448E-01 7.226819545E-02 9.971968963E-01
 4.223808348E-01 7.228968292E-02 9.919196131E-01
 4.098670483E-01 7.220689207E-02 9.868705364E-01
 3.972540200E-01 7.208546251E-02 9.827067236E-01
 3.850735426E-01 7.187803835E-02 9.767859375E-01
 3.732142746E-01 7.160732150E-02 9.698390278E-01
 3.596107066E-01 7.122183591E-02 9.632722561E-01
 3.467150331E-01 7.077350467E-02 9.582497749E-01
 3.337154686E-01 7.026538998E-02 9.538150900E-01
 3.228850961E-01 6.976130605E-02 9.484282914E-01
 3.100382090E-01 6.910125911E-02 9.421231198E-01
 2.970932424E-01 6.835018098E-02 9.351245203E-01
 2.832083106E-01 6.744725257E-02 9.293205509E-01
 2.709512711E-01 6.658363342E-02 9.237356972E-01
 2.590322196E-01 6.565234810E-02 9.171263070E-01
 2.465234846E-01 6.459762156E-02 9.096655184E-01
 2.340829223E-01 6.345839053E-02 9.018003169E-01
 2.218042016E-01 6.225665659E-02 8.938925179E-01
 2.098025084E-01 6.098613515E-02 8.853622246E-01
 1.979147047E-01 5.963491648E-02 8.754478527E-01
 1.855765879E-01 5.813610181E-02 8.665357591E-01
 1.738309115E-01 5.661548302E-02 8.586423328E-01
 1.624321640E-01 5.504141748E-02 8.503170058E-01
 1.507621557E-01 5.333495885E-02 8.416458207E-01
 1.400033981E-01 5.163579062E-02 8.326771049E-01
 1.285244226E-01 4.972949997E-02 8.226902104E-01
 1.173804477E-01 4.773628712E-02 8.112478958E-01
 1.068551838E-01 4.573476315E-02 7.996081319E-01
 9.712047875E-02 4.376022518E-02 7.876429773E-01
 8.634915948E-02 4.143537208E-02 7.739525422E-01
 7.480634004E-02 3.873642161E-02 7.558617468E-01
 6.487937272E-02 3.621586412E-02 7.361278316E-01
 5.504573509E-02 3.351468220E-02 7.171946416E-01
 4.621766880E-02 3.086323105E-02 6.999851693E-01
 3.852523491E-02 2.833428234E-02 6.820862426E-01
 3.170461208E-02 2.589078061E-02 6.647727017E-01
 2.591072768E-02 2.361065149E-02 6.465842284E-01
 2.165539376E-02 2.178933658E-02 6.254751607E-01
 1.755101793E-02 1.987352408E-02 5.991571840E-01
 1.437158603E-02 1.825371198E-02 5.823428067E-01
 1.149227563E-02 1.664935984E-02 5.681133425E-01
 9.361366741E-03 1.535202377E-02 5.611554941E-01
 7.485193666E-03 1.410758030E-02 5.274987309E-01
 5.774691235E-03 1.285924111E-02 5.060049071E-01
 3.598067211E-03 1.104805339E-02 4.634834486E-01
 1.768437796E-03 9.229269810E-03 4.373534524E-01
 2.747405961E-04 7.347758394E-03 2.961844328E-01
 -1.151439268E-03 4.710577428E-03 1.406795943E-01
 -1.715820399E-03 2.709405264E-03 1.243895975E-01
 -1.856137533E-03 1.111628138E-03 7.480899570E-02
 -1.693334663E-03 -6.840797723E-04 6.995284420E-02
 -1.187776914E-03 -2.531741047E-03 2.185556971E-01
 -1.349046943E-04 -4.755487200E-03 3.351519246E-01
 1.425105380E-03 -7.041858044E-03 3.915641225E-01
 3.539010650E-03 -9.406334721E-03 5.161675307E-01
 5.434618797E-03 -1.115920953E-02 5.543739850E-01
 7.613295689E-03 -1.291535981E-02 5.777078730E-01
 9.349052794E-03 -1.417134423E-02 6.088685861E-01
 1.151103154E-02 -1.560420729E-02 6.149270931E-01
 1.394410618E-02 -1.708289050E-02 6.217450851E-01
 1.728888042E-02 -1.892619580E-02 6.404662804E-01
 2.033944614E-02 -2.045794204E-02 6.585374501E-01
 2.432840504E-02 -2.229305916E-02 6.764087272E-01
 2.970876917E-02 -2.453502454E-02 6.918789356E-01
 3.541045263E-02 -2.666931972E-02 7.106886592E-01
 4.232171550E-02 -2.902347408E-02 7.315320370E-01
 4.975376278E-02 -3.130424023E-02 7.482980296E-01
 5.852024257E-02 -3.375274315E-02 7.627231786E-01
 6.709968299E-02 -3.594278544E-02 7.750952388E-01
 7.728225738E-02 -3.832151368E-02 7.859098573E-01
 8.703918010E-02 -4.042188451E-02 7.980186253E-01
 9.713282436E-02 -4.243179411E-02 8.100819142E-01
 1.081661955E-01 -4.447982833E-02 8.200008096E-01
 1.192298084E-01 -4.638536647E-02 8.299678699E-01
 1.308393478E-01 -4.825116321E-02 8.395747959E-01
 1.410776228E-01 -4.979391396E-02 8.482037124E-01
 1.522163451E-01 -5.136696249E-02 8.566863925E-01
 1.641234905E-01 -5.294750631E-02 8.652107577E-01
 1.756539196E-01 -5.436913669E-02 8.737338217E-01
 1.872434765E-01 -5.570334941E-02 8.816131754E-01
 1.978406012E-01 -5.684228987E-02 8.897712654E-01
 2.089627683E-01 -5.796131864E-02 8.956109429E-01
 2.210162878E-01 -5.907418951E-02 9.035363628E-01
 2.333027124E-01 -6.011482701E-02 9.112788518E-01
 2.452573925E-01 -6.102205440E-02 9.202540970E-01
 2.574352622E-01 -6.186687574E-02 9.312547865E-01
 2.683720589E-01 -6.252712011E-02 9.409637862E-01
 2.807441056E-01 -6.317530572E-02 9.506472687E-01
 2.929638028E-01 -6.371871382E-02 9.605749489E-01
 3.057319820E-01 -6.415520608E-02 9.716041802E-01
 3.174403310E-01 -6.446272135E-02 9.819134411E-01
 3.302581608E-01 -6.467217207E-02 9.913061968E-01
 3.409730196E-01 -6.474283338E-02 9.986052885E-01
 3.525611758E-01 -6.472158432E-02 1.003096458E+00
 3.634646833E-01 -6.459073722E-02 1.005511295E+00
 3.743199706E-01 -6.436634064E-02 1.005807947E+00
 3.859654665E-01 -6.401126832E-02 1.002198631E+00
 3.993887901E-01 -6.346815825E-02 9.946875367E-01
 4.117482901E-01 -6.281429529E-02 9.854321810E-01
 4.244529307E-01 -6.202858314E-02 9.714357055E-01
 4.370942116E-01 -6.110030040E-02 9.542967945E-01
 4.495369792E-01 -6.006893888E-02 9.345066931E-01
 4.616563916E-01 -5.896729603E-02 9.136570792E-01
 4.742593169E-01 -5.771188065E-02 8.944538049E-01
 4.860450923E-01 -5.641831085E-02 8.753281268E-01
 4.991100430E-01 -5.492713302E-02 8.553269568E-01
 5.129797459E-01 -5.320846289E-02 8.366607829E-01
 5.265200138E-01 -5.148053169E-02 8.179357286E-01
 5.395469069E-01 -4.974183068E-02 8.028811036E-01
 5.525850654E-01 -4.795050994E-02 7.876525123E-01
 5.661802888E-01 -4.602235928E-02 7.727630338E-01
 5.793817639E-01 -4.412154481E-02 7.591693726E-01
 5.922117829E-01 -4.226925969E-02 7.484567128E-01
 6.053009629E-01 -4.033444822E-02 7.366528934E-01
 6.195697784E-01 -3.819467872E-02 7.237990114E-01
 6.340088844E-01 -3.604672104E-02 7.129023969E-01
 6.486303210E-01 -3.384599835E-02 7.021208398E-01
 6.615443826E-01 -3.189188242E-02 6.918318177E-01
 6.753211021E-01 -2.984664403E-02 6.833101079E-01
 6.876904368E-01 -2.798031643E-02 6.749747055E-01
 6.999372840E-01 -2.616130002E-02 6.657652417E-01
 7.147207856E-01 -2.398251183E-02 6.579218625E-01
 7.282115221E-01 -2.204941958E-02 6.504158870E-01
 7.396507859E-01 -2.036293782E-02 6.418042727E-01
 7.531999946E-01 -1.843842492E-02 6.329674209E-01
 7.656616569E-01 -1.669979468E-02 6.266888377E-01
 7.794243693E-01 -1.486004237E-02 6.212153772E-01
 7.915170789E-01 -1.323534269E-02 6.132840311E-01
 8.045178056E-01 -1.156693883E-02 6.047251041E-01
 8.152365088E-01 -1.017006766E-02 5.974151569E-01
 8.264911771E-01 -8.785435930E-03 5.900038060E-01
 8.394474387E-01 -7.305577397E-03 5.841713200E-01
 8.518178463E-01 -5.939970724E-03 5.775372084E-01
 8.640808463E-01 -4.669337533E-03 5.704407409E-01
 8.750702143E-01 -3.608334111E-03 5.642246976E-01
 8.860380650E-01 -2.631288255E-03 5.601180254E-01
 8.990161419E-01 -1.658732188E-03 5.573936445E-01
 9.090005755E-01 -9.857404511E-04 5.530480509E-01
 9.193320274E-01 -4.021785862E-04 5.500346008E-01
 9.286609292E-01 3.962333358E-05 5.478059937E-01
 9.377603531E-01 3.711054451E-04 5.449618585E-01
 9.494544268E-01 6.774264621E-04 5.447276190E-01
 9.623404145E-01 8.653032710E-04 5.463922985E-01
 9.766363502E-01 8.881320246E-04 5.402333380E-01
 9.890553951E-01 7.423306815E-04 5.517507567E-01
 -5.000000000E-01 -1.000000000E+00 7.099022045E-01
 3.500000000E+00 -1.000000000E+00 7.315150013E-01
 3.500000000E+00 1.000000000E+00 7.279116288E-01
 -5.000000000E-01 1.000000000E+00 7.100409619E-01
 -5.000000000E-01 5.000000000E-01 6.943071884E-01
 -5.000000000E-01 2.752797990E-12 6.802322313E-01
 -5.000000000E-01 -5.000000000E-01 6.943071948E-01
 -9.421907698E-13 -1.000000000E+00 7.194161861E-01
 5.000000000E-01 -1.000000000E+00 7.418814654E-01
 1.000000000E+00 -1.000000000E+00 7.297203991E-01
 1.500000000E+00 -1.000000000E+00 7.203390029E-01
 2.000000000E+00 -1.000000000E+00 7.230531411E-01
 2.500000000E+00 -1.000000000E+00 7.273910780E-01
 3.000000000E+00 -1.000000000E+00 7.295198631E-01
 3.500000000E+00 -5.000000000E-01 7.341096935E-01
 3.500000000E+00 -2.752797990E-12 7.360311268E-01
 3.500000000E+00 5.000000000E-01 7.329412816E-01
 3.000000000E+00 1.000000000E+00 7.252324087E-01
 2.500000000E+00 1.000000000E+00 7.278896274E-01
 2.000000000E+00 1.000000000E+00 7.332583219E-01
 1.500000000E+00 1.000000000E+00 7.472653296E-01
 1.000000000E+00 1.000000000E+00 7.766599638E-01
 5.000000000E-01 1.000000000E+00 7.771114737E-01
 1.733724275E-12 1.000000000E+00 7.284286608E-01
 6.823560180E-01 -4.375474207E-02 6.946345728E-01
 7.855091548E-01 -2.382807279E-02 6.262211066E-01
 9.032115303E-01 -1.202515085E-02 5.665784521E-01
 7.100473830E-01 6.781710216E-02 8.952467364E-01
 2.807685747E-01 8.043348351E-02 9.376100793E-01
 3.658967104E-01 8.505400935E-02 9.754056144E-01
 2.868886120E-01 -7.800945396E-02 9.608714197E-01
 9.121784604E-01 3.213431418E-02 7.212284712E-01
 8.166247107E-01 4.539373300E-02 8.035570524E-01
 5.720396789E-01 -5.715582675E-02 7.775006428E-01
 5.923072538E-01 7.696188840E-02 1.008892626E+00
 4.074561182E-01 -7.932545591E-02 9.904225688E-01
 4.943511084E-01 8.517597999E-02 1.025672972E+00
 1.837898596E+00 -5.896657669E-01 7.284604508E-01
 1.767534131E+00 5.929153498E-01 7.459777168E-01
 3.031172842E+00 2.156853444E-01 7.391121275E-01
 7.500000000E-01 -5.669872981E-01 7.379341334E-01
 4.784940049E-01 -7.147278469E-02 8.954964277E-01
 3.579288738E-01 -6.582676320E-01 7.742954820E-01
 1.230431745E-01 -5.880191256E-02 8.414281837E-01
 1.795273673E-01 -6.373832188E-02 8.847331726E-01
 7.590161604E-01 5.455798611E-01 8.336832010E-01
 3.129545983E-01 7.259119249E-01 7.876483330E-01
 1.219627096E-01 5.912977398E-02 8.297611066E-01
 1.773733220E-01 6.859551549E-02 8.748768928E-01
 2.734854195E+00 -5.326852706E-01 7.342462890E-01
 1.211272853E+00 6.787663136E-01 7.654873265E-01
 9.784795562E-01 3.453373100E-01 7.631505702E-01
 1.263684072E+00 -6.037938814E-01 7.173100169E-01
 1.480723314E+00 -2.302061170E-01 7.236236283E-01
 2.249199718E+00 -5.869950646E-01 7.318232407E-01
 2.037236817E+00 -2.206873218E-01 7.351982576E-01
 2.422324317E+00 -1.877464925E-01 7.378957708E-01
 2.184640418E+00 1.582749148E-01 7.420248534E-01
 1.784811022E+00 1.383213062E-01 7.392283484E-01
 -2.709401323E-01 -2.367324494E-01 6.732423600E-01
 -1.458589209E-01 -6.016559143E-01 7.144658944E-01
 1.256962165E-01 -3.703915561E-01 7.695671315E-01
 -2.802209765E-01 2.186053376E-01 6.730222629E-01
 -1.891784487E-01 6.925192080E-01 7.144834569E-01
 1.068447910E-01 3.304110194E-01 7.708791495E-01
 6.786377772E-02 4.662802404E-02 7.508638424E-01
 2.208175296E+00 5.811750330E-01 7.410897985E-01
 2.740859206E+00 6.005149925E-01 7.366633712E-01
 -2.353979744E-01 -3.799058795E-03 6.485885534E-01
 -1.191145005E-01 -1.416435973E-01 6.448790050E-01
 6.978773571E-02 -4.503391660E-02 7.806758310E-01
 4.461600992E-02 -3.868167044E-02 7.376870259E-01
 -7.676797031E-02 -3.229449489E-01 7.000052679E-01
 3.510933710E-03 -1.819393565E-01 7.000849559E-01
 1.604124114E-01 -2.187107624E-01 8.291884667E-01
 3.420320830E-01 -7.545630221E-02 9.982784522E-01
 2.347074452E-01 -7.094924643E-02 9.207357375E-01
 2.137222923E-01 -7.272826725E-02 9.103334275E-01
 2.627517736E-01 -7.484611111E-02 9.413704257E-01
 -3.704453951E-02 -9.797235374E-02 6.220288408E-01
 2.072526013E-02 -2.556391018E-02 6.435279795E-01
 -1.093634119E-01 -2.330938117E-02 5.809738852E-01
 3.987861527E-02 -1.075617741E-01 7.382406894E-01
 3.109363980E+00 -2.612692862E-01 7.373925998E-01
 1.454581058E-02 -7.072615151E-02 6.716981791E-01
 9.374710697E-03 -1.761660508E-02 5.670174412E-01
 -3.299146343E-02 -2.593718095E-02 5.018477338E-01
 -8.887141183E-03 -4.333443245E-02 5.480204348E-01
 2.993526509E-03 -1.338628576E-02 4.886760642E-01
 2.557225721E+00 2.085437663E-01 7.414850439E-01
 4.373745532E-02 -7.440416449E-02 7.471135723E-01
 8.855902154E-02 -1.037088224E-01 8.188710598E-01
 1.001221029E-01 -5.657287507E-02 8.209941240E-01
 1.603559346E-02 -4.450424006E-02 6.435364229E-01
 3.152230955E-02 -3.329390386E-02 6.953799312E-01
 7.096840111E-02 -7.755073561E-02 7.898761972E-01
 8.127221409E-02 -5.882140285E-02 8.011159459E-01
 1.000468389E-01 -7.878134234E-02 8.336244684E-01
 1.274561760E-01 -1.081017581E-01 8.569855711E-01
 9.955616744E-02 -1.528763040E-01 7.985908879E-01
 5.500709079E-02 -5.489942663E-02 7.646736650E-01
 3.424404494E-02 -5.275159283E-02 7.173946830E-01
 -8.012057556E-02 3.851991190E-01 7.059775907E-01
 2.157147521E-02 2.241469690E-01 7.180510466E-01
 1.692180639E-01 2.253056418E-01 8.370258708E-01
 2.253746938E-01 7.676344735E-02 9.105483886E-01
 2.017992367E-01 7.288569772E-02 8.927242183E-01
 2.485238332E-01 3.203042124E-01 8.493815278E-01
 4.271988767E-01 8.355309208E-02 9.993622091E-01
 3.110335056E-01 2.120394378E-01 9.240451019E-01
 3.828216011E-01 2.714918152E-01 9.219837484E-01
 3.282946170E-01 7.961936974E-02 9.578873165E-01
 3.002612224E-01 8.386484755E-02 9.481608669E-01
 4.051870615E-01 1.819974786E-01 9.756259490E-01
 4.965741002E-01 2.321899164E-01 9.682412420E-01
 6.481943106E-01 7.065706413E-02 9.530977596E-01
 6.284303946E-01 7.292240286E-02 9.757587784E-01
 5.444745468E-01 7.773274663E-02 1.029236631E+00
 5.697263136E-01 7.843907993E-02 1.023197602E+00
 4.936319753E-01 3.278422923E-01 9.203828975E-01
 6.042909003E-01 2.951880634E-01 9.308554978E-01
 5.898410889E-01 1.910960679E-01 9.823641044E-01
 6.795723486E-01 2.294045708E-01 9.136384994E-01
 7.688636094E-01 5.565578327E-02 8.427388871E-01
 7.440262350E-01 6.108045599E-02 8.639450655E-01
 7.945906307E-01 5.525523891E-02 8.264188463E-01
 4.755019097E-01 1.628014620E-01 1.004348138E+00
 2.381903838E-01 1.546994554E-01 9.166058914E-01
 6.615456084E-01 1.489226307E-01 9.505111473E-01
 7.439022374E-01 1.635713389E-01 8.790871915E-01
 7.813676714E-01 2.632051425E-01 8.408133447E-01
 8.350626005E-01 1.692136246E-01 8.195354457E-01
 8.666251361E-01 3.913171807E-02 7.673156190E-01
 9.963073151E-02 1.692456608E-01 8.000827896E-01
 3.495039375E-01 1.582371389E-01 9.666773424E-01
 7.934376435E-01 1.186898485E-01 8.478939316E-01
 8.603664229E-01 1.141664613E-01 8.010482066E-01
 9.683275944E-01 1.833393202E-02 6.517491163E-01
 9.032127510E-01 1.584356734E-01 7.749445987E-01
 9.282268879E-01 9.126995118E-02 7.475915732E-01
 9.793190154E-01 1.564333691E-01 7.385491677E-01
 9.914675624E-01 8.563544203E-02 7.046687696E-01
 1.050136161E+00 1.436403886E-01 7.176811272E-01
 8.824515040E-01 2.637056638E-01 7.890704622E-01
 6.032013838E-01 1.318718374E-01 1.003302265E+00
 7.127392187E-01 1.201166401E-01 9.102594547E-01
 6.829435942E-01 6.459350540E-02 9.189578925E-01
 4.320947886E-01 1.344334351E-01 1.006147325E+00
 4.736772199E-01 1.203455042E-01 1.021679489E+00
 5.091290960E-01 1.333684681E-01 1.025714277E+00
 5.210608076E-01 8.126638551E-02 1.033011394E+00
 4.544755777E-01 8.709779600E-02 1.012329720E+00
 8.827843154E-01 7.800361594E-02 7.764663765E-01
 8.892359517E-01 3.559429471E-02 7.445538375E-01
 9.533990504E-01 6.120964316E-02 7.123746472E-01
 9.363536635E-01 2.777925946E-02 6.951358709E-01
 8.266697577E-01 9.008627142E-02 8.217191625E-01
 -1.232387839E-01 1.440964560E-01 6.421170668E-01
 -2.038538045E-02 1.259784094E-01 6.645634338E-01
 4.083089967E-02 3.619318938E-02 6.882404710E-01
 5.043413382E-02 1.110573009E-01 7.508051745E-01
 6.366838972E-01 1.094871318E-01 9.813145586E-01
 6.714279707E-01 1.010102764E-01 9.454893757E-01
 1.043979013E-01 1.069945146E-01 8.309287900E-01
 1.556363081E-01 1.395857367E-01 8.645191435E-01
 1.421897096E-01 9.723445139E-02 8.674470209E-01
 1.431688441E-01 6.146175105E-02 8.473850780E-01
 2.066015554E-01 1.242623469E-01 9.077892495E-01
 1.768311041E-01 1.026222946E-01 8.920773687E-01
 9.822796346E-01 1.765302153E-02 6.289614586E-01
 9.766167275E-01 3.802585183E-02 6.708041307E-01
 9.996535111E-01 2.900381897E-02 6.355622187E-01
 9.957021446E-01 1.234553187E-02 5.998146903E-01
 7.117259556E-01 3.572632086E-01 8.679991783E-01
 8.498333186E-01 3.941556171E-01 8.063884122E-01
 5.832016084E-01 4.296726881E-01 8.825015147E-01
 6.705567786E-01 6.621575625E-02 9.302670148E-01
 8.522202339E-01 4.176097025E-02 7.789016525E-01
 8.628508900E-01 5.713523938E-02 7.825595073E-01
 8.411058883E-01 5.645031609E-02 7.983118427E-01
 8.803994993E-01 5.020886907E-02 7.638512187E-01
 9.025849051E-01 5.236174356E-02 7.471278069E-01
 9.292303669E-01 4.757526544E-02 7.209742140E-01
 2.840696718E-03 8.012928499E-02 6.578984228E-01
 1.431162812E-02 2.616320398E-02 5.953145092E-01
 -5.975450547E-02 7.221011168E-02 5.901792198E-01
 -2.255476954E-02 8.293629916E-03 3.784821652E-01
 -2.563665815E-03 2.955481182E-02 5.197939904E-01
 9.545045317E-01 2.466757950E-02 6.748868055E-01
 4.701909759E-01 8.510701596E-02 1.017525600E+00
 5.255542480E-01 1.717359778E-01 1.010594075E+00
 8.405320560E-01 4.112402382E-02 7.862832073E-01
 6.083682914E-01 1.052075410E-01 1.003613655E+00
 5.783927553E-01 1.097204343E-01 1.021788625E+00
 5.564731148E-01 7.912217030E-02 1.027011395E+00
 5.506536656E-01 9.485343986E-02 1.031732088E+00
 5.536561708E-01 1.310539995E-01 1.025215153E+00
 5.248429127E-01 1.014774557E-01 1.034976881E+00
 4.992564000E-01 1.046098425E-01 1.031964964E+00
 6.173951414E-01 7.186460823E-02 9.865600566E-01
 6.069419302E-01 7.541825249E-02 9.961443513E-01
 5.339694440E-01 8.242645364E-02 1.032830100E+00
 8.300714601E-01 4.360290617E-02 7.972934991E-01
 7.030611480E-01 8.839753818E-02 9.131712278E-01
 7.352418970E-01 9.694378513E-02 8.893561024E-01
 7.676799750E-01 8.948193149E-02 8.644213295E-01
 7.962931802E-01 7.960669382E-02 8.406260316E-01
 7.596180142E-01 6.877389866E-02 8.577502627E-01
 8.774676598E-01 3.512338622E-02 7.531881908E-01
 7.408681785E-02 8.254200880E-02 7.976747127E-01
 9.673108775E-02 5.377944253E-02 8.005028441E-01
 4.318079531E-02 7.281491788E-02 7.356251975E-01
 8.116774485E-02 6.189321988E-02 7.913607289E-01
 9.845732328E-02 7.372372008E-02 8.237791948E-01
 1.209300950E-01 7.553284016E-02 8.447428863E-01
 1.634784872E-01 7.995584133E-02 8.773535269E-01
 1.103861412E-01 5.927280450E-02 8.204383421E-01
 4.802890196E-01 9.657003740E-02 1.024774294E+00
 9.616313105E-01 2.337697230E-01 7.579354029E-01
 1.044465382E+00 2.379712408E-01 7.353863706E-01
 1.137852668E+00 1.679435739E-01 7.213003155E-01
 1.129804242E+00 5.731568159E-02 6.920164297E-01
 1.223146789E+00 6.298021591E-02 7.050741214E-01
 1.304040001E+00 2.086953705E-01 7.306239413E-01
 1.215467783E+00 -6.367578321E-02 6.921675754E-01
 1.097070458E+00 -8.107281315E-02 6.685038753E-01
 9.705528650E-01 -1.181698435E-02 5.579635437E-01
 9.469176449E-01 -1.116389229E-02 5.638206668E-01
 9.565368980E-01 -3.731138634E-02 5.928467489E-01
 9.273239185E-01 -1.063112444E-02 5.596428991E-01
 1.179005598E+00 -1.833131741E-01 7.011897867E-01
 1.038885961E+00 -1.903831758E-01 6.762256759E-01
 1.374693209E+00 -1.354062978E-02 7.152404355E-01
 1.132975057E+00 -3.512323884E-01 7.024932426E-01
 9.612326883E-01 -3.388113887E-01 6.952004655E-01
 8.801003771E-01 -1.911536510E-01 6.729647310E-01
 7.367663540E-01 -3.248312069E-02 6.563365916E-01
 8.544111661E-01 -1.778002807E-02 5.898629002E-01
 8.366023043E-01 -2.015313872E-02 6.000394708E-01
 9.532290617E-01 -1.317798605E-01 6.487347243E-01
 7.939379115E-01 -3.331170779E-01 7.122786375E-01
 7.220785561E-01 -2.097007599E-01 7.198425601E-01
 6.286387095E-01 -4.955267924E-02 7.287758420E-01
 6.520540510E-01 -3.297344163E-01 7.517765950E-01
 5.830145968E-01 -2.175108765E-01 7.874650143E-01
 7.859065855E-01 -1.269636355E-01 6.861424104E-01
 5.196874213E-01 -3.222143116E-01 8.147733067E-01
 4.526836204E-01 -2.218003323E-01 8.825220877E-01
 4.004523996E-01 -2.947978110E-01 8.689000378E-01
 3.228074038E-01 -2.267304671E-01 9.032638363E-01
 5.162944657E-01 -1.554255777E-01 8.464450377E-01
 4.469286145E-01 -7.173799682E-02 9.411765781E-01
 5.345392196E-01 -6.189280158E-02 8.183666783E-01
 5.088400246E-01 -6.696281068E-02 8.511007088E-01
 6.365621977E-01 -1.451212597E-01 7.584412686E-01
 3.889074760E-01 -1.630464358E-01 9.496954816E-01
 1.014885123E+00 -8.762566670E-02 6.456013926E-01
 1.074007200E+00 2.944025505E-03 6.447490909E-01
 1.504822081E+00 1.300789751E-01 7.327678946E-01
 1.454232158E+00 4.028880826E-01 7.460378844E-01
 1.043841370E+00 -5.002876089E-01 7.100291724E-01
 1.474819302E+00 6.773727672E-01 7.505318246E-01
 1.312912067E+00 -3.390258538E-01 7.168437109E-01
 1.059328678E+00 7.767486825E-02 6.902522493E-01
 1.583002952E+00 -5.286991960E-02 7.263658489E-01
 1.160807074E+00 3.678928582E-01 7.452156761E-01
 5.843705655E-01 -4.965205575E-01 7.782007623E-01
 1.033561751E+00 -3.550012392E-02 6.185414283E-01
 2.722873365E-01 -3.583348472E-01 8.249945904E-01
 2.446459029E-01 -1.740010752E-01 9.007668537E-01
 5.490445614E-01 6.529719424E-01 8.345976195E-01
 5.815878459E-01 8.795436841E-02 1.020120982E+00
 5.807554492E-01 7.523746251E-02 1.016988874E+00
 6.944360062E-01 6.820717831E-02 9.098829827E-01
 4.463560800E-01 1.073350516E-01 1.014823895E+00
 4.104879998E-01 1.115088539E-01 1.002737951E+00
 3.898457180E-01 8.339704107E-02 9.857772712E-01
 4.133558488E-01 9.353571392E-02 9.990775207E-01
 1.871084693E-01 8.174676834E-02 8.919984510E-01
 2.091874260E-01 9.146372341E-02 9.096887349E-01
 2.334743527E-01 9.597200840E-02 9.247723623E-01
 2.697190489E-01 1.314323399E-01 9.413433002E-01
 2.504971188E-01 7.991447244E-02 9.244420325E-01
 2.609517593E-01 9.905894209E-02 9.386648211E-01
 2.885866953E-01 1.065517026E-01 9.519681244E-01
 3.115689562E-01 1.032722267E-01 9.622223160E-01
 3.082506104E-01 1.412483761E-01 9.558998939E-01
 3.421957090E-01 1.181660829E-01 9.760717011E-01
 3.863584167E-01 1.302987854E-01 9.906269867E-01
 2.416041119E-01 1.240781101E-01 9.314940051E-01
 6.198387916E-01 8.679776412E-02 9.892817827E-01
 6.414525288E-01 8.399623655E-02 9.659712182E-01
 7.565047464E-01 5.584449152E-02 8.507978683E-01
 7.172584944E-02 -2.601075599E-01 7.551938445E-01
 3.170568464E-01 8.365162706E-02 9.546894817E-01
 1.741822184E+00 -2.463060101E-01 7.303685662E-01
 8.060081560E-01 4.850507868E-02 8.119812903E-01
 8.159091120E-01 5.984289116E-02 8.164239468E-01
 7.779881705E-01 6.677536931E-02 8.447584947E-01
 5.091625593E-01 8.565949782E-02 1.031406596E+00
 3.133974596E+00 6.339745962E-01 7.324311983E-01
 7.226739005E-01 7.905345773E-02 8.924316928E-01
 7.272967454E-01 6.208527693E-02 8.787409625E-01
 7.427561278E-01 7.623646766E-02 8.756142616E-01
 3.849598759E-01 4.513597885E-01 8.528687672E-01
 9.245374716E-01 2.797679103E-02 7.059567399E-01
 3.133974596E+00 -6.339745962E-01 7.331768934E-01
 6.804096039E-01 7.857257866E-02 9.284962638E-01
 6.626907608E-01 7.836056275E-02 9.452334757E-01
 1.899544641E-01 6.819979997E-02 8.810528839E-01
 1.318571184E-01 6.218416610E-02 8.408864334E-01
 9.004942251E-01 3.234044576E-02 7.329576973E-01
 7.799572238E-01 5.233816320E-02 8.340870311E-01
 4.397316683E-01 8.741844740E-02 1.006960609E+00
 1.986290217E+00 3.676716509E-01 7.460917179E-01
 1.609292101E-01 -1.583425815E-01 8.685813239E-01
 1.753575907E-01 -1.124585036E-01 8.921135702E-01
 2.254890657E-01 -1.199061268E-01 9.153981475E-01
 2.790313963E-01 -1.276232747E-01 9.503317067E-01
 1.517424644E-01 -8.329613896E-02 8.782201144E-01
 1.446301423E-01 -6.393140097E-02 8.621228506E-01
 1.592463221E-01 -6.549155963E-02 8.732785484E-01
 1.273869399E-01 -7.392079641E-02 8.561695354E-01
 2.550647426E-01 -1.043067231E-01 9.410285816E-01
 1.333954455E-01 -5.893983742E-02 8.501373716E-01
 2.031342282E-01 -9.793469260E-02 9.107313225E-01
 3.272110357E-01 -1.577435987E-01 9.572913043E-01
 3.229649841E-01 -1.135878897E-01 9.834236820E-01
 3.120000149E-01 -7.657283736E-02 9.797675352E-01
 3.668926293E-01 -1.192415671E-01 9.926193775E-01
 3.789899494E-01 -7.913277256E-02 1.003355756E+00
 4.120754324E-01 -1.237612452E-01 9.756843811E-01
 3.920293361E-01 -9.469666220E-02 9.979478186E-01
 3.676920782E-01 -9.368610868E-02 1.003747541E+00
 3.457751007E-01 -9.483295178E-02 9.991533131E-01
 3.005031115E-01 -9.261811496E-02 9.725826942E-01
 3.278516653E-01 -8.324168192E-02 9.887917838E-01
 3.929157721E-01 -7.575175639E-02 9.989716080E-01
 4.222381124E-01 -9.658749785E-02 9.766492977E-01
 4.528196466E-01 -1.116439759E-01 9.369471136E-01
 4.534500330E-01 -1.475635526E-01 9.212740885E-01
 4.977316715E-01 -1.125550410E-01 8.788454951E-01
 5.416707983E-01 -1.150454157E-01 8.323327771E-01
 5.237738568E-01 -9.442162917E-02 8.486066326E-01
 5.469023773E-01 -8.436466802E-02 8.204468044E-01
 5.752538536E-01 -1.032280912E-01 8.008845689E-01
 6.037263189E-01 -5.556658705E-02 7.523066985E-01
 6.160738622E-01 -5.028191696E-02 7.380380353E-01
 6.221818318E-01 -6.488639040E-02 7.480299103E-01
 6.431614369E-01 -6.001546199E-02 7.309503550E-01
 6.561125471E-01 -4.622180013E-02 7.105486438E-01
 6.686753059E-01 -6.259017357E-02 7.193155226E-01
 6.957881874E-01 -5.850445864E-02 7.007081996E-01
 6.829952365E-01 -9.781956460E-02 7.261765448E-01
 7.082053277E-01 -4.025834062E-02 6.778060442E-01
 7.220935102E-01 -6.167718705E-02 6.890218316E-01
 6.379055947E-01 -9.142157922E-02 7.513358205E-01
 6.421103798E-01 -4.513653215E-02 7.173117356E-01
 6.000912853E-01 -7.755930894E-02 7.721547482E-01
 5.780357065E-01 -1.430654044E-01 7.970575466E-01
 5.862704809E-01 -5.886468124E-02 7.675840201E-01
 5.545665132E-01 -6.052050806E-02 7.964406932E-01
 7.009391445E-01 -1.489124517E-01 7.253505869E-01
 7.268524746E-01 -1.009171247E-01 7.048198394E-01
 7.606541951E-01 -7.747552098E-02 6.793995114E-01
 8.164816317E-01 -7.903234024E-02 6.578225021E-01
 7.617751675E-01 -2.850857882E-02 6.405972613E-01
 7.918641181E-01 -6.114249609E-02 6.558140439E-01
 7.430026680E-01 -4.787876910E-02 6.692915502E-01
 5.725206982E-01 -7.361551403E-02 7.912475989E-01
 7.661183128E-01 -4.485392513E-02 6.552893284E-01
 8.086402624E-01 -3.682518492E-02 6.289911767E-01
 8.479195222E-01 -5.824418809E-02 6.317246940E-01
 8.537754697E-01 -1.064828531E-01 6.550567828E-01
 8.845172319E-01 -7.161915256E-02 6.296752432E-01
 8.099413932E-01 -1.995440922E-02 6.123053150E-01
 7.992965217E-01 -2.236812928E-02 6.206785724E-01
 8.707773527E-01 -3.706317120E-02 6.051868004E-01
 8.824829384E-01 -1.173916519E-02 5.724152757E-01
 9.021887566E-01 -4.005978669E-02 6.018738674E-01
 9.278676429E-01 -7.080109322E-02 6.241215787E-01
 9.294158874E-01 -3.198415413E-02 5.871454583E-01
 8.209670625E-01 -2.199227729E-02 6.083679139E-01
 8.288907294E-01 -3.606542728E-02 6.196179398E-01
 8.479022813E-01 -3.336960425E-02 6.092699965E-01
 8.917534521E-01 -1.087909777E-02 5.687761042E-01
 7.736380335E-01 -2.842894595E-02 6.356558557E-01
 7.875110672E-01 -3.624112569E-02 6.390237953E-01
 7.255000279E-01 -3.805489148E-02 6.674416688E-01
 4.263863353E-01 -7.599198310E-02 9.688787444E-01
 7.500855471E-01 -3.208762608E-02 6.500448663E-01
 6.688018711E-01 -4.286104844E-02 7.001125994E-01
 6.947954508E-01 -3.933183156E-02 6.832766700E-01
 8.887682503E-01 -2.498243836E-02 5.835767228E-01
 2.726576793E-01 -9.081822285E-02 9.535664540E-01
 2.501609031E-01 -8.545503584E-02 9.362732720E-01
 2.303797795E-01 -9.188001534E-02 9.247848533E-01
 1.958138856E-01 -7.849001427E-02 9.046830652E-01
 1.740883529E-01 -7.874039087E-02 8.929916799E-01
 1.699991039E-01 -6.294583310E-02 8.785086222E-01
 2.993963334E-01 -7.493244224E-02 9.701312310E-01
 9.016855410E-01 -1.173426066E-01 6.475725798E-01
 3.702091922E-01 1.056846814E-01 9.861888514E-01
 3.500984591E-01 9.456335970E-02 9.744450665E-01
 3.315647372E-01 9.344407242E-02 9.667763009E-01
 6.389191574E-01 7.102225239E-02 9.623247024E-01
 2.061916152E-02 5.415998462E-02 6.561766881E-01
 2.708636561E-02 2.912460781E-02 6.543104874E-01
 4.565649127E-02 4.989055945E-02 7.112696303E-01
 6.319382757E-02 6.297757378E-02 7.666432125E-01