TITLE     = "Visualization of the solution"
VARIABLES = "x"
"y"
"Mach"
ZONE T="Zone"
 STRANDID=0, SOLUTIONTIME=0
 Nodes=701, Elements=1187, ZONETYPE=FEQuadrilateral
 DATAPACKING=POINT
 DT=(DOUBLE DOUBLE DOUBLE )
 1.000140309E+00 5.255189608E-04 5.781670884E-01
 9.892824292E-01 2.507538768E-03 6.153706067E-01
 9.776985645E-01 4.579864442E-03 6.485574847E-01
 9.632080793E-01 7.105497643E-03 6.661694921E-01
 9.493229985E-01 9.565808810E-03 6.917463161E-01
 9.357674122E-01 1.203368511E-02 7.145307811E-01
 9.243162870E-01 1.399907842E-02 7.283708094E-01
 9.113736749E-01 1.614772342E-02 7.423259566E-01
 8.998926282E-01 1.808792353E-02 7.602170810E-01
 8.874645233E-01 2.005083859E-02 7.721156928E-01
 8.745906353E-01 2.196255885E-02 7.791418282E-01
 8.623607159E-01 2.373609319E-02 7.874909659E-01
 8.494154215E-01 2.553484030E-02 7.941097774E-01
 8.375576735E-01 2.710480243E-02 7.978337634E-01
 8.253409266E-01 2.868418023E-02 8.016652945E-01
 8.118214011E-01 3.041068651E-02 8.074286282E-01
 7.986054420E-01 3.205322847E-02 8.138925795E-01
 7.861526608E-01 3.357286379E-02 8.202228387E-01
 7.735177279E-01 3.507768735E-02 8.254565924E-01
 7.608147264E-01 3.652591631E-02 8.299592737E-01
 7.474769950E-01 3.804664686E-02 8.368954896E-01
 7.333505154E-01 3.960904852E-02 8.434128555E-01
 7.223722339E-01 4.078934342E-02 8.487678716E-01
 7.112160325E-01 4.196835682E-02 8.553423661E-01
 6.994999051E-01 4.319079220E-02 8.627922121E-01
 6.855520606E-01 4.457144812E-02 8.693112041E-01
 6.719879508E-01 4.586671293E-02 8.762130000E-01
 6.622288227E-01 4.676866159E-02 8.830309439E-01
 6.505552530E-01 4.782140255E-02 8.891683532E-01
 6.388322115E-01 4.881275445E-02 8.960582228E-01
 6.270603538E-01 4.977997392E-02 9.039089172E-01
 6.159833670E-01 5.063782260E-02 9.107493057E-01
 6.047764421E-01 5.145866796E-02 9.171899658E-01
 5.919187665E-01 5.235956609E-02 9.236002390E-01
 5.801452398E-01 5.311062559E-02 9.289106027E-01
 5.668904185E-01 5.389286205E-02 9.342464304E-01
 5.545693040E-01 5.455310643E-02 9.396017374E-01
 5.425750613E-01 5.512754619E-02 9.423061966E-01
 5.319340229E-01 5.558669567E-02 9.449769855E-01
 5.204465389E-01 5.603480712E-02 9.468441497E-01
 5.078082085E-01 5.645229295E-02 9.477912461E-01
 4.966644645E-01 5.676144361E-02 9.467485649E-01
 4.835268855E-01 5.704718456E-02 9.454628770E-01
 4.704906940E-01 5.727867037E-02 9.444022081E-01
 4.563906193E-01 5.743840337E-02 9.419696853E-01
 4.428983927E-01 5.750296265E-02 9.389897155E-01
 4.299992621E-01 5.750050768E-02 9.351038876E-01
 4.172673821E-01 5.741810426E-02 9.311404155E-01
 4.050933123E-01 5.728962645E-02 9.265217036E-01
 3.930979967E-01 5.709558725E-02 9.218182720E-01
 3.807858527E-01 5.683883280E-02 9.182406854E-01
 3.699279726E-01 5.658320710E-02 9.141400828E-01
 3.570367396E-01 5.618715286E-02 9.092327376E-01
 3.451232612E-01 5.578848347E-02 9.054752295E-01
 3.325760663E-01 5.528710783E-02 9.013661602E-01
 3.215406537E-01 5.480745062E-02 8.970165742E-01
 3.091941476E-01 5.420965329E-02 8.914222809E-01
 2.956551313E-01 5.347395316E-02 8.848571036E-01
 2.816036642E-01 5.265410617E-02 8.794413807E-01
 2.684960067E-01 5.180029199E-02 8.738212987E-01
 2.562251091E-01 5.095051602E-02 8.674282582E-01
 2.434837669E-01 4.999629408E-02 8.603373962E-01
 2.304758728E-01 4.896066338E-02 8.547326427E-01
 2.180840671E-01 4.789526761E-02 8.497984946E-01
 2.063553333E-01 4.684269428E-02 8.458525237E-01
 1.950195730E-01 4.575636983E-02 8.405159143E-01
 1.823953986E-01 4.447093979E-02 8.345280656E-01
 1.702899486E-01 4.316179082E-02 8.273935050E-01
 1.588281095E-01 4.186118767E-02 8.227940376E-01
 1.465573311E-01 4.038785771E-02 8.153758390E-01
 1.357745677E-01 3.901148215E-02 8.091158033E-01
 1.239677519E-01 3.742329776E-02 8.036621221E-01
 1.122319251E-01 3.574256971E-02 7.971624530E-01
 1.015698239E-01 3.412578255E-02 7.880556971E-01
 9.164503217E-02 3.252730891E-02 7.773513124E-01
 8.026724309E-02 3.057226911E-02 7.639511676E-01
 6.833182275E-02 2.835236676E-02 7.516227682E-01
 5.871549249E-02 2.641771175E-02 7.396927899E-01
 4.900356755E-02 2.428384498E-02 7.293490605E-01
 4.057257622E-02 2.224632353E-02 7.177025723E-01
 3.346015140E-02 2.036383003E-02 7.061134794E-01
 2.729933150E-02 1.856916584E-02 6.936337186E-01
 2.199809998E-02 1.685724035E-02 6.818715252E-01
 1.824615523E-02 1.553013083E-02 6.692449601E-01
 1.477820706E-02 1.417941321E-02 6.565672975E-01
 1.222144347E-02 1.308771782E-02 6.426795260E-01
 9.885518812E-03 1.199505199E-02 6.281149920E-01
 8.208418265E-03 1.114031766E-02 6.240699364E-01
 6.700733677E-03 1.030752156E-02 6.260295339E-01
 5.300987046E-03 9.464139119E-03 6.123795416E-01
 3.426816314E-03 8.185369894E-03 5.750745988E-01
 1.762151951E-03 6.837839726E-03 5.201719087E-01
 3.167868126E-04 5.382976495E-03 4.375984112E-01
 -1.061309245E-03 3.422424197E-03 3.992739123E-01
 -1.694054576E-03 1.882869983E-03 2.480072100E-01
 -1.930361730E-03 6.519949529E-04 2.445980439E-01
 -1.908157254E-03 -7.133877371E-04 1.919966206E-01
 -1.569789951E-03 -2.178767696E-03 2.726048871E-01
 -7.789704832E-04 -3.858180717E-03 3.220274588E-01
 5.183690228E-04 -5.640723277E-03 3.600355032E-01
 2.396062016E-03 -7.516547572E-03 4.355378609E-01
 4.075483885E-03 -8.867431432E-03 5.472235639E-01
 6.051964127E-03 -1.022382546E-02 6.075238795E-01
 7.572012022E-03 -1.115244627E-02 6.345325926E-01
 9.511961602E-03 -1.222703792E-02 6.260586001E-01
 1.177537348E-02 -1.336634252E-02 6.396586047E-01
 1.491313521E-02 -1.479151007E-02 6.557063980E-01
 1.783600077E-02 -1.598805934E-02 6.796808706E-01
 2.161149308E-02 -1.739443652E-02 7.025782938E-01
 2.693770453E-02 -1.917310432E-02 7.180668601E-01
 3.262908757E-02 -2.088060230E-02 7.318990760E-01
 4.009157792E-02 -2.288800478E-02 7.457724669E-01
 4.763510078E-02 -2.470947430E-02 7.534238837E-01
 5.662295595E-02 -2.669028379E-02 7.611334864E-01
 6.531899422E-02 -2.843927778E-02 7.705498399E-01
 7.538966835E-02 -3.030557372E-02 7.773074851E-01
 8.533623815E-02 -3.201649711E-02 7.822142087E-01
 9.551429003E-02 -3.365124390E-02 7.882358590E-01
 1.061001569E-01 -3.524795547E-02 7.952681082E-01
 1.175003871E-01 -3.686066344E-02 8.008380868E-01
 1.288853139E-01 -3.838121146E-02 8.077043680E-01
 1.397541016E-01 -3.974786028E-02 8.139396989E-01
 1.505882293E-01 -4.103218392E-02 8.191759752E-01
 1.625397950E-01 -4.237930849E-02 8.261590097E-01
 1.741477400E-01 -4.361236468E-02 8.331750560E-01
 1.861977428E-01 -4.481975734E-02 8.400842039E-01
 1.968603879E-01 -4.582467303E-02 8.469746174E-01
 2.080813795E-01 -4.682743922E-02 8.539399960E-01
 2.204774022E-01 -4.786556587E-02 8.623425619E-01
 2.335184515E-01 -4.886223003E-02 8.700036841E-01
 2.462443262E-01 -4.975489900E-02 8.769229189E-01
 2.592809498E-01 -5.059679225E-02 8.857898378E-01
 2.707114518E-01 -5.125230551E-02 8.945277867E-01
 2.838102877E-01 -5.191055685E-02 9.021445765E-01
 2.971181273E-01 -5.248812214E-02 9.094856805E-01
 3.101105690E-01 -5.294614658E-02 9.171633585E-01
 3.221160471E-01 -5.327874422E-02 9.241935463E-01
 3.345950246E-01 -5.352823809E-02 9.308938530E-01
 3.457660079E-01 -5.366279557E-02 9.368260673E-01
 3.570626676E-01 -5.369265378E-02 9.403420868E-01
 3.680693209E-01 -5.363618955E-02 9.422816823E-01
 3.788217008E-01 -5.349268392E-02 9.438242975E-01
 3.901399374E-01 -5.325187743E-02 9.443827442E-01
 4.028548896E-01 -5.283702537E-02 9.420829682E-01
 4.153666198E-01 -5.232159421E-02 9.369723873E-01
 4.283506274E-01 -5.162990466E-02 9.281305170E-01
 4.411363602E-01 -5.082292482E-02 9.164665267E-01
 4.533706903E-01 -4.992018268E-02 9.035241613E-01
 4.656319916E-01 -4.893121496E-02 8.902540638E-01
 4.781118333E-01 -4.778547212E-02 8.756339937E-01
 4.894647896E-01 -4.666603357E-02 8.601096080E-01
 5.017051101E-01 -4.535699263E-02 8.433441873E-01
 5.154783130E-01 -4.380660132E-02 8.263439925E-01
 5.291641951E-01 -4.218629375E-02 8.100030336E-01
 5.430693626E-01 -4.045607150E-02 7.945857014E-01
 5.560999513E-01 -3.877743334E-02 7.798269012E-01
 5.689018965E-01 -3.709641472E-02 7.666623622E-01
 5.817663074E-01 -3.537177294E-02 7.544421391E-01
 5.934213996E-01 -3.378982469E-02 7.434643103E-01
 6.054577231E-01 -3.213780746E-02 7.326069186E-01
 6.192531586E-01 -3.023942932E-02 7.212512186E-01
 6.335547566E-01 -2.827005275E-02 7.107691894E-01
 6.475316286E-01 -2.633184195E-02 7.002026718E-01
 6.609120369E-01 -2.451443858E-02 6.912848043E-01
 6.740944386E-01 -2.269730158E-02 6.820585201E-01
 6.865756512E-01 -2.102057822E-02 6.738811709E-01
 6.989533305E-01 -1.935232803E-02 6.657350901E-01
 7.129852772E-01 -1.749639772E-02 6.573917251E-01
 7.259538174E-01 -1.583069749E-02 6.500955088E-01
 7.378198504E-01 -1.431140956E-02 6.430800264E-01
 7.500621080E-01 -1.277975366E-02 6.347355937E-01
 7.619204521E-01 -1.130376197E-02 6.276922024E-01
 7.748816609E-01 -9.785447270E-03 6.210680001E-01
 7.858355641E-01 -8.487311192E-03 6.149958805E-01
 7.985761166E-01 -7.102486677E-03 6.096508449E-01
 8.095439672E-01 -5.923523102E-03 6.034163928E-01
 8.212745786E-01 -4.737753421E-03 5.966936246E-01
 8.342175484E-01 -3.526744898E-03 5.907048239E-01
 8.464240432E-01 -2.445311751E-03 5.858812867E-01
 8.586588502E-01 -1.481781364E-03 5.808327005E-01
 8.710331321E-01 -5.988260964E-04 5.762462487E-01
 8.833324909E-01 1.574095659E-04 5.728887201E-01
 8.973991275E-01 8.350742282E-04 5.706251749E-01
 9.076316357E-01 1.229793066E-03 5.683431346E-01
 9.177276492E-01 1.520813676E-03 5.678553348E-01
 9.271109700E-01 1.704106573E-03 5.683528218E-01
 9.357319474E-01 1.804584637E-03 5.688967637E-01
 9.481440187E-01 1.834102441E-03 5.706739274E-01
 9.610258937E-01 1.727198018E-03 5.728042237E-01
 9.759654403E-01 1.430701464E-03 5.708571890E-01
 9.888377190E-01 1.024978235E-03 5.819208848E-01
 -5.000000000E-01 -1.000000000E+00 7.147877833E-01
 3.500000000E+00 -1.000000000E+00 7.306277922E-01
 3.500000000E+00 1.000000000E+00 7.292059049E-01
 -5.000000000E-01 1.000000000E+00 7.128000349E-01
 -5.000000000E-01 5.000000000E-01 7.028993741E-01
 -5.000000000E-01 2.752797990E-12 6.915444250E-01
 -5.000000000E-01 -5.000000000E-01 7.021604429E-01
 -9.421907698E-13 -1.000000000E+00 7.259856293E-01
 5.000000000E-01 -1.000000000E+00 7.415851854E-01
 1.000000000E+00 -1.000000000E+00 7.280214180E-01
 1.500000000E+00 -1.000000000E+00 7.193284025E-01
 2.000000000E+00 -1.000000000E+00 7.225410947E-01
 2.500000000E+00 -1.000000000E+00 7.266875869E-01
 3.000000000E+00 -1.000000000E+00 7.286856836E-01
 3.500000000E+00 -5.000000000E-01 7.327098514E-01
 3.500000000E+00 -2.752797990E-12 7.341466824E-01
 3.500000000E+00 5.000000000E-01 7.322032768E-01
 3.000000000E+00 1.000000000E+00 7.282386906E-01
 2.500000000E+00 1.000000000E+00 7.306885457E-01
 2.000000000E+00 1.000000000E+00 7.350880596E-01
 1.500000000E+00 1.000000000E+00 7.464997234E-01
 1.000000000E+00 1.000000000E+00 7.679016504E-01
 5.000000000E-01 1.000000000E+00 7.676333957E-01
 1.733724275E-12 1.000000000E+00 7.299607884E-01
 6.804850513E-01 -3.198427202E-02 6.866960585E-01
 7.949091382E-01 -2.057455260E-02 6.224044820E-01
 9.130452128E-01 -1.094219929E-02 5.808860506E-01
 7.073132478E-01 5.377090691E-02 8.636112026E-01
 2.761884368E-01 -6.635659786E-02 9.018646272E-01
 2.774530593E-01 6.629967057E-02 8.874828313E-01
 9.086766946E-01 2.868511339E-02 7.541250360E-01
 8.057541442E-01 4.578636604E-02 8.172362544E-01
 5.629469218E-01 -5.057975988E-02 7.819330736E-01
 6.099405341E-01 6.226181131E-02 9.178428110E-01
 3.963854681E-01 -6.634793748E-02 9.416333829E-01
 4.214872714E-01 6.948061917E-02 9.366239744E-01
 5.144510969E-01 6.604345349E-02 9.496500728E-01
 1.843672141E+00 -5.895147099E-01 7.281637891E-01
 1.779771378E+00 6.388768588E-01 7.430632560E-01
 3.031174613E+00 2.156844245E-01 7.365705330E-01
 7.309894147E-01 -5.560631980E-01 7.403639460E-01
 4.738246417E-01 -6.133310129E-02 8.829300993E-01
 7.677732220E-01 5.623656660E-01 8.054158310E-01
 2.734850539E+00 -5.326890996E-01 7.325510450E-01
 1.168744892E+00 6.985624854E-01 7.626561181E-01
 1.005560823E+00 3.447966433E-01 7.554482984E-01
 1.228101728E+00 -6.197948324E-01 7.170476916E-01
 1.496694063E+00 -2.624218648E-01 7.260506438E-01
 3.328521866E-01 6.148220303E-01 7.830069375E-01
 1.029918069E-01 4.542167014E-02 8.053950531E-01
 1.627983666E-01 5.741726770E-02 8.386811928E-01
 2.500000000E-01 -5.669872981E-01 7.583740542E-01
 6.871217711E-02 -4.080606057E-02 7.715123825E-01
 1.208940846E-01 -4.619332077E-02 8.078964280E-01
 1.788581088E-01 -5.711966148E-02 8.428569688E-01
 2.250158778E+00 -5.869746690E-01 7.307852274E-01
 1.986871890E+00 -2.083049698E-01 7.329167658E-01
 2.414086594E+00 -1.856878800E-01 7.353313198E-01
 2.184629556E+00 1.582453069E-01 7.385054356E-01
 1.802779203E+00 1.142321503E-01 7.353862659E-01
 -2.694848308E-01 2.392347183E-01 6.856646700E-01
 -1.001066472E-01 6.175730600E-01 7.265988979E-01
 1.991464413E-02 3.255446908E-01 7.295596778E-01
 4.010652378E-02 3.172729190E-02 7.273989464E-01
 -2.701840387E-01 -2.515330574E-01 6.861622997E-01
 -1.812089701E-01 -5.647742642E-01 7.120431644E-01
 2.225596726E+00 5.669633026E-01 7.393256251E-01
 2.743763773E+00 5.981459574E-01 7.357626165E-01
 -2.509660224E-01 9.688771384E-04 6.699893034E-01
 -1.429361418E-01 1.243336792E-01 6.602266294E-01
 -1.200306145E-01 -1.199545878E-01 6.554714049E-01
 3.230091137E-02 -3.705292593E-01 7.334756792E-01
 2.711315376E-01 -2.941338993E-01 8.253931737E-01
 3.419285805E-01 -6.537988868E-02 9.352066954E-01
 -1.264470169E-01 1.733974202E-03 6.261518604E-01
 -5.732057161E-02 6.584653888E-02 6.127919643E-01
 1.979102874E-02 2.014400774E-02 6.708357764E-01
 -3.987904450E-02 1.763300369E-01 6.825214612E-01
 6.131869733E-03 9.525038114E-02 6.920907451E-01
 7.276996849E-02 3.977365293E-02 7.731398094E-01
 4.393180300E-02 1.750287729E-01 7.376572183E-01
 1.795241235E-01 2.587081847E-01 8.015714987E-01
 3.518420602E-01 6.653838658E-02 9.133162146E-01
 3.882650876E-01 7.170524863E-02 9.273770217E-01
 3.196389385E-01 6.908830020E-02 9.035671477E-01
 2.222805678E-01 6.024894699E-02 8.635759430E-01
 1.498409061E-01 1.553538683E-01 8.156583323E-01
 6.951661977E-02 1.079599137E-01 7.744252871E-01
 1.193753010E-01 1.057397699E-01 8.219529934E-01
 1.390548121E-01 4.822823626E-02 8.205054680E-01
 -1.102537515E-02 5.167108869E-02 6.242058830E-01
 -5.815760395E-02 4.619356145E-03 5.753705381E-01
 1.496375015E-01 4.307608699E-01 7.686079712E-01
 3.070314858E-01 3.397250756E-01 8.336605926E-01
 2.817069125E-01 2.103312691E-01 8.588796984E-01
 4.184209332E-01 2.514842820E-01 8.832433015E-01
 4.591320400E-01 4.258622592E-01 8.447941617E-01
 5.486617641E-01 2.782859601E-01 8.820343066E-01
 5.604460454E-01 6.609283952E-02 9.402418806E-01
 4.864725049E-01 1.895373987E-01 9.191889701E-01
 4.621705154E-01 7.045698642E-02 9.473248743E-01
 6.103161292E-01 1.904524396E-01 8.964761910E-01
 6.567723180E-01 5.657629913E-02 8.897322999E-01
 6.813750730E-01 5.410684070E-02 8.761616963E-01
 6.631366005E-01 2.803769188E-01 8.535883379E-01
 7.300561952E-01 1.879345064E-01 8.519138501E-01
 7.563441115E-01 4.982261615E-02 8.393150541E-01
 4.224450266E-01 1.645503824E-01 9.206915839E-01
 6.663562049E-01 1.368873665E-01 8.860652633E-01
 7.900384164E-01 2.729322959E-01 8.195577424E-01
 8.234778393E-01 1.896999318E-01 8.133352218E-01
 8.574740807E-01 3.472366081E-02 7.933135800E-01
 8.826138436E-01 3.168890463E-02 7.767272409E-01
 8.314278643E-01 4.313789805E-02 8.061692165E-01
 7.840204956E-01 1.310009742E-01 8.374366491E-01
 8.497092213E-01 1.118076629E-01 8.073441447E-01
 9.583718310E-01 2.022278183E-02 6.911415156E-01
 9.018313262E-01 1.689890136E-01 7.776456530E-01
 9.129476031E-01 9.557206326E-02 7.689241202E-01
 9.669258895E-01 1.361116110E-01 7.421692383E-01
 5.677442264E-01 1.388348136E-01 9.296476827E-01
 9.638666958E-01 7.528871952E-02 7.254789923E-01
 1.017975822E+00 1.032944771E-01 7.111839399E-01
 6.162017894E-01 4.332374280E-01 8.367884898E-01
 4.657824984E-01 1.239663073E-01 9.435322823E-01
 8.077884475E-01 8.834774471E-02 8.274542505E-01
 7.809188545E-01 4.788237162E-02 8.288386963E-01
 8.740632182E-01 7.143401706E-02 7.929676109E-01
 9.289645403E-01 6.144794126E-02 7.491882381E-01
 9.321166624E-01 2.526020260E-02 7.277259409E-01
 9.033865253E-01 5.987569932E-02 7.713123665E-01
 1.914381406E-02 6.030032265E-02 6.929230175E-01
 5.329081164E-02 7.000432595E-02 7.588789928E-01
 4.253818163E-01 1.134028758E-01 9.395718025E-01
 3.842803869E-01 1.284950136E-01 9.245835748E-01
 7.660309702E-01 8.780905631E-02 8.464037098E-01
 7.276557283E-01 1.206881829E-01 8.637048877E-01
 6.908611449E-01 9.317855608E-02 8.815958363E-01
 6.518945374E-01 9.673215561E-02 9.008542792E-01
 6.329281141E-01 6.043459840E-02 9.039925857E-01
 6.164002601E-01 1.263000009E-01 9.145991532E-01
 5.851428426E-01 1.025765011E-01 9.332033152E-01
 5.878774901E-01 6.168659648E-02 9.285914861E-01
 5.471656813E-01 1.002026835E-01 9.457150258E-01
 5.387510349E-01 6.656158822E-02 9.466222084E-01
 7.259379861E-01 8.304025733E-02 8.646073187E-01
 7.306068299E-01 5.155571884E-02 8.512443177E-01
 3.553545987E-01 1.810516306E-01 8.950804214E-01
 9.736165885E-01 1.893168355E-02 6.720661614E-01
 9.721276419E-01 4.177601470E-02 6.956879390E-01
 9.913466639E-01 3.102844527E-02 6.634541239E-01
 9.465788460E-01 3.890035028E-02 7.211010189E-01
 9.865574908E-01 1.504156847E-02 6.426702066E-01
 3.109361975E+00 -2.612727568E-01 7.349411727E-01
 9.212592078E-02 7.824819754E-02 8.125148393E-01
 6.185491304E-01 9.142600468E-02 9.178108980E-01
 5.168118123E-01 1.322836363E-01 9.414625165E-01
 4.935650471E-01 9.800961999E-02 9.521966899E-01
 4.904396542E-01 7.321611303E-02 9.503893177E-01
 -1.935843682E-02 1.784546077E-02 4.726843995E-01
 -3.628845834E-03 3.119847167E-02 5.833108836E-01
 4.822553049E-03 1.160722876E-02 5.822339877E-01
 9.381141792E-03 1.479045623E-02 6.101698313E-01
 5.372730012E-02 4.861397340E-02 7.644526584E-01
 5.120216276E-02 3.482271765E-02 7.463463166E-01
 5.197431186E-01 9.659376760E-02 9.521773318E-01
 7.434209862E-01 4.877154414E-02 8.448159491E-01
 9.196518193E-01 2.491102900E-02 7.391633528E-01
 6.937625255E-01 5.507475146E-02 8.709107918E-01
 7.040505426E-01 6.960936464E-02 8.716807631E-01
 1.320976664E-02 3.947294078E-02 6.678374180E-01
 2.911726317E-02 2.500050040E-02 6.998047890E-01
 5.977316753E-01 6.098712510E-02 9.237832347E-01
 8.564796284E-02 3.958829924E-02 7.847547857E-01
 5.033014975E-01 6.653094645E-02 9.500952113E-01
 9.833224615E-01 2.266336406E-01 7.489779514E-01
 8.897766875E-01 2.724819543E-01 7.822234295E-01
 1.101451796E+00 2.350101084E-01 7.308366462E-01
 1.187110131E-01 7.203188866E-02 8.293986089E-01
 1.458088520E-01 7.656038534E-02 8.415172843E-01
 1.176016679E-01 5.181739121E-02 8.158822992E-01
 5.741335441E-01 6.393489423E-02 9.340175462E-01
 9.444315500E-01 2.119656573E-02 7.100554383E-01
 3.954134588E-01 9.730323973E-02 9.346628602E-01
 3.653197974E-01 9.881769526E-02 9.259913637E-01
 3.351772456E-01 1.199769102E-01 9.124476880E-01
 2.624898471E-01 1.349457298E-01 8.797490625E-01
 3.690113868E-01 7.827574136E-02 9.240647888E-01
 4.061001270E-01 7.793212405E-02 9.347773546E-01
 7.445735837E-01 6.405016224E-02 8.510360590E-01
 7.688653493E-01 6.108522028E-02 8.390162706E-01
 8.833446121E-02 5.314659775E-02 7.979930304E-01
 8.693197094E-01 3.560360920E-02 7.867041479E-01
 8.823300678E-01 4.915513132E-02 7.840707451E-01
 1.476525772E-01 5.454780783E-02 8.303776754E-01
 1.740609248E-01 7.644840491E-02 8.545475581E-01
 2.004934509E-01 5.790954131E-02 8.542558750E-01
 1.617843790E-01 1.101944136E-01 8.471500938E-01
 2.031191587E-01 1.033876770E-01 8.667308480E-01
 2.113127674E-01 1.651443101E-01 8.481282625E-01
 2.428302627E-01 9.814822154E-02 8.823443007E-01
 2.502564642E-01 6.061209052E-02 8.733622341E-01
 3.385446447E-01 6.562537251E-02 9.085921168E-01
 3.428655084E-01 8.317211124E-02 9.160591597E-01
 3.161097852E-01 9.235871336E-02 9.106582823E-01
 2.946968257E-01 7.878862871E-02 8.997067387E-01
 4.754993358E-01 6.865104172E-02 9.485163988E-01
 4.726369236E-01 8.662277475E-02 9.513931497E-01
 4.487920746E-01 8.832296926E-02 9.475996932E-01
 9.403781740E-02 4.096193172E-02 7.937135078E-01
 8.965581521E-01 2.821808274E-02 7.676040580E-01
 5.683985460E-01 8.165593241E-02 9.406873128E-01
 5.493999987E-01 7.863148856E-02 9.462203109E-01
 7.198658406E-01 6.342685409E-02 8.611062952E-01
 3.014634114E-01 6.376055680E-02 8.943826544E-01
 2.698289032E-01 8.835585850E-02 8.930080944E-01
 2.930493226E-01 1.094274924E-01 9.006561462E-01
 6.094934932E-02 3.559608450E-02 7.562688939E-01
 4.370505109E-01 7.132612941E-02 9.416642455E-01
 1.866408818E-01 5.825341388E-02 8.486189152E-01
 6.460857532E-01 5.997252539E-02 8.964325150E-01
 5.491482889E-01 6.419331378E-02 9.434850914E-01
 2.361037001E-01 6.048285820E-02 8.692067917E-01
 2.280264442E-01 7.880524517E-02 8.753375258E-01
 1.752418864E-01 5.399513351E-02 8.416234948E-01
 4.494604226E-01 6.900949022E-02 9.440701732E-01
 4.258269217E-01 8.628273205E-02 9.416759724E-01
 5.945323309E-01 7.651550315E-02 9.281704129E-01
 2.626880880E-01 6.621703347E-02 8.814634089E-01
 4.007251909E-01 6.637728836E-02 9.291142991E-01
 5.277251688E-01 6.462083893E-02 9.481778888E-01
 1.285655514E-01 4.792349060E-02 8.160945797E-01
 6.382909372E-01 7.574273856E-02 9.051209395E-01
 6.232867320E-01 7.273971819E-02 9.141336822E-01
 7.680921539E-01 4.607876234E-02 8.324443886E-01
 2.099559905E-01 7.127999408E-02 8.674733704E-01
 2.559237227E+00 2.061156403E-01 7.384068361E-01
 7.182748369E-01 5.030223601E-02 8.561150713E-01
 4.101346567E-01 6.569955246E-02 9.321670328E-01
 2.114338819E-01 5.683528885E-02 8.565672160E-01
 7.915403692E-01 6.272779354E-02 8.297834824E-01
 8.165849901E-01 5.694396750E-02 8.173415092E-01
 8.434082055E-01 6.201469332E-02 8.088466706E-01
 -5.736984168E-03 1.342010636E-02 4.234903689E-01
 -2.785950409E-05 8.024837757E-03 4.796439046E-01
 9.213117895E-01 4.038060211E-02 7.475503101E-01
 1.932119476E-01 7.159495447E-02 8.624730550E-01
 5.294250029E-01 7.905455358E-02 9.505233531E-01
 9.823860118E-02 1.500844674E-01 7.889917922E-01
 1.035278979E+00 1.645697960E-01 7.263676032E-01
 1.107614893E+00 1.148003026E-01 7.144604652E-01
 1.238854618E+00 1.894296149E-01 7.276980957E-01
 1.231255092E+00 4.526423893E-02 7.066322798E-01
 1.102122686E+00 1.833839983E-02 6.786766183E-01
 1.158362623E+00 -8.073111580E-02 6.934367620E-01
 1.070826613E+00 -5.650760974E-02 6.660165581E-01
 9.690440138E-01 -1.041673903E-02 5.826112174E-01
 9.443300356E-01 -7.698102057E-03 5.803452616E-01
 9.456992403E-01 -3.167397790E-02 6.023723623E-01
 8.532823229E-01 -1.516978109E-02 5.958010562E-01
 8.801885384E-01 -1.606994827E-02 5.894902138E-01
 1.059482331E+00 -1.809921770E-01 6.884678528E-01
 1.250314722E+00 -2.202621308E-01 7.134662361E-01
 1.428953921E+00 1.123661958E-01 7.280256006E-01
 1.404005231E+00 3.159446419E-01 7.389411104E-01
 1.127199130E+00 -3.613169579E-01 7.041380038E-01
 9.152375593E-01 -2.864980676E-01 6.926505524E-01
 9.922108380E-01 -1.249987583E-01 6.646214935E-01
 8.498580114E-01 -1.737545243E-01 6.805941178E-01
 7.372996359E-01 -2.467587686E-02 6.521628479E-01
 7.552290159E-01 -2.554730109E-02 6.452198848E-01
 9.438727477E-01 -4.929075666E-01 7.115982475E-01
 1.365985962E+00 -7.940681564E-02 7.154652592E-01
 1.007107856E+00 -6.244744061E-02 6.485744060E-01
 1.633856858E+00 -8.223190910E-02 7.277894818E-01
 1.049294843E+00 5.500848778E-02 6.881965375E-01
 1.048237954E+00 2.436526775E-03 6.430863026E-01
 1.018613739E+00 2.476437854E-02 6.542678849E-01
 1.024959491E+00 -2.799323753E-02 6.317285546E-01
 9.898668169E-01 -3.038158851E-02 6.109693727E-01
 8.228850972E-01 3.988266167E-01 8.007214639E-01
 7.993303067E-03 2.771956528E-02 6.284666971E-01
 2.571789063E-03 1.891400763E-02 5.610632964E-01
 1.197590598E-02 2.114434455E-02 6.303535107E-01
 1.788310929E-02 2.806517001E-02 6.723118294E-01
 3.055555853E-01 1.511466064E-01 8.918312414E-01
 6.717298292E-01 7.916059612E-02 8.899208825E-01
 6.694042017E-01 5.947549795E-02 8.844504895E-01
 5.722634770E-01 6.370311391E-01 8.129680192E-01
 2.498832651E-01 7.653599562E-02 8.821837306E-01
 4.908613349E-01 -7.027424287E-01 7.579500034E-01
 3.550787486E-02 4.670606163E-02 7.304110547E-01
 2.901744184E-01 6.299538308E-02 8.897535308E-01
 1.200398953E+00 3.927767275E-01 7.436673140E-01
 1.718164689E+00 -3.124001408E-01 7.310730982E-01
 8.181858653E-01 4.099261967E-02 8.099771578E-01
 -1.318691017E-01 2.655829764E-01 6.920302951E-01
 6.857732097E-01 6.851605665E-02 8.801638539E-01
 1.002776569E+00 1.767542624E-02 6.311837398E-01
 2.289395334E-01 1.288324527E-01 8.710486719E-01
 3.133974596E+00 6.339745962E-01 7.325228381E-01
 1.450666539E+00 5.642554360E-01 7.463571219E-01
 3.133974596E+00 -6.339745962E-01 7.317927784E-01
 1.330191442E+00 -3.852309871E-01 7.198087396E-01
 6.218398202E-01 5.917078488E-02 9.103309868E-01
 3.645900472E-01 6.476911142E-02 9.162791406E-01
 1.954623147E+00 3.600294308E-01 7.432781144E-01
 7.925942942E-01 4.440452469E-02 8.224437855E-01
 8.466228808E-01 4.104446984E-02 7.997036262E-01
 -1.029897989E-01 -2.921146312E-01 6.967479305E-01
 1.301004882E-02 -1.775284778E-01 7.137711069E-01
 2.757510406E-02 -2.577421605E-02 7.156311684E-01
 -3.722457017E-02 -9.590380319E-02 6.392143906E-01
 1.426543297E-01 -2.526834744E-01 7.890634961E-01
 2.272715983E-01 -6.093052701E-02 8.722291316E-01
 1.192418401E-01 -1.556757876E-01 8.010353800E-01
 2.186905281E-01 -2.046827595E-01 8.418709776E-01
 3.524034762E-01 -2.143984751E-01 8.730543885E-01
 4.085002827E-01 -3.180358247E-01 8.245672091E-01
 4.649603704E-01 -2.151054705E-01 8.529430606E-01
 4.095133779E-01 -1.490065541E-01 9.028989186E-01
 4.354275323E-01 -6.206427302E-02 9.209529203E-01
 4.965984483E-01 -1.467836339E-01 8.529727753E-01
 5.541807863E-01 -1.976311965E-01 8.018779622E-01
 6.271618729E-01 -4.271826254E-02 7.267470084E-01
 6.018122246E-01 -4.623852322E-02 7.466865677E-01
 5.249642416E-01 -5.444137253E-02 8.211876300E-01
 5.813599305E-01 -1.321225412E-01 7.898652761E-01
 3.491158848E-01 -1.412473541E-01 9.109587458E-01
 5.462422384E-01 -3.051506267E-01 7.883607271E-01
 6.514953060E-01 -2.504576572E-01 7.498517296E-01
 1.911181546E-01 -1.372508482E-01 8.521077022E-01
 4.517487963E-01 -1.090449450E-01 8.993570196E-01
 3.807933786E-01 -1.145378405E-01 9.287290934E-01
 3.717670194E-01 -6.723537036E-02 9.427093383E-01
 6.268734151E-02 -1.086317677E-01 7.622905374E-01
 1.401909693E-02 -7.738898939E-02 6.889851405E-01
 1.193159227E-02 -1.723983096E-02 6.305272814E-01
 -1.976045087E-02 -5.724390360E-02 5.973496191E-01
 4.104861691E-01 -1.025749048E-01 9.272478532E-01
 5.320758711E-01 -1.044922546E-01 8.253839240E-01
 1.092264630E-01 -1.011852034E-01 8.085970581E-01
 1.554758397E-01 -9.417187197E-02 8.363247910E-01
 1.455449158E-01 -4.990271020E-02 8.216674194E-01
 1.929910981E-01 -9.167556766E-02 8.623050618E-01
 2.327414788E-01 -1.022712494E-01 8.809670445E-01
 2.025663918E-01 -5.838787908E-02 8.573168292E-01
 3.469568495E-01 -1.005692353E-01 9.305052779E-01
 3.046571509E-01 -1.121589299E-01 9.106854140E-01
 3.179868250E-01 -6.918051409E-02 9.236025765E-01
 3.093416540E-01 -1.680627740E-01 8.907242569E-01
 5.374071144E-01 -4.538559830E-01 7.748238192E-01
 7.699868337E-02 -7.627130101E-02 7.863091073E-01
 9.977772002E-02 -4.781383918E-02 7.981279002E-01
 5.053258981E-02 -6.893007777E-02 7.502386300E-01
 4.170982692E-02 -3.136322659E-02 7.446937176E-01
 4.735180298E-03 -4.485209855E-02 6.251416801E-01
 -1.475587822E-02 -1.474951488E-02 4.243364405E-01
 6.157086372E-03 -1.264032298E-02 6.020117400E-01
 4.224588549E-01 -6.324295320E-02 9.312933912E-01
 2.152007471E-01 -5.765330413E-02 8.639523767E-01
 2.141860301E-01 -7.405168996E-02 8.707434726E-01
 2.377801504E-01 -7.317008846E-02 8.837351508E-01
 2.513547641E-01 -6.257945840E-02 8.866637588E-01
 2.606081277E-01 -8.034490482E-02 8.955362685E-01
 2.848673320E-01 -8.604364909E-02 9.090045999E-01
 2.680934124E-01 -1.057159314E-01 8.988722729E-01
 2.640204670E-01 -6.153914263E-02 8.939809094E-01
 2.392338581E-01 -5.905944058E-02 8.779184531E-01
 2.925166147E-01 -6.908592099E-02 9.101627634E-01
 6.269978294E-01 -1.707422179E-01 7.633186352E-01
 6.456073654E-01 -1.119936295E-01 7.466878913E-01
 6.941833225E-01 -1.709682482E-01 7.295018711E-01
 7.112595951E-01 -9.550361031E-02 7.073336347E-01
 7.644464177E-01 -2.429377588E-01 7.102657809E-01
 6.709422267E-01 -7.561188628E-02 7.187785585E-01
 6.556649244E-01 -3.652201148E-02 7.038218791E-01
 6.053623904E-01 -9.114620053E-02 7.648945212E-01
 7.684751899E-01 -1.413432136E-01 6.955944250E-01
 8.248074114E-01 -8.620032354E-02 6.612659729E-01
 9.015779671E-01 -1.006002016E-01 6.527106492E-01
 7.649982590E-01 -8.210856459E-02 6.772114288E-01
 8.666998482E-01 -5.536642674E-02 6.292954676E-01
 9.123721293E-01 -5.481135571E-02 6.234108009E-01
 8.276236721E-01 -4.640034169E-02 6.318140609E-01
 8.102484063E-01 -1.497007798E-02 6.115767541E-01
 7.330328083E-01 -6.186216702E-02 6.797070562E-01
 7.085733343E-01 -3.162622929E-02 6.710185287E-01
 8.271000793E-01 -1.939711116E-02 6.099145483E-01
 6.434477928E-01 -4.150131421E-02 7.149431203E-01
 6.349134460E-01 -5.685755374E-02 7.300081177E-01
 6.157091113E-01 -5.985822273E-02 7.449821466E-01
 5.928923714E-01 -6.528412550E-02 7.658318864E-01
 1.272580464E-01 -7.418653234E-02 8.208546033E-01
 1.022042339E-01 -7.016635575E-02 8.046168632E-01
 9.288580164E-01 -1.726126279E-01 6.727226181E-01
 2.792353888E-02 -5.093875473E-02 7.018821897E-01
 1.545118717E-02 -3.339927985E-02 6.762180484E-01
 2.001652050E-02 -1.999592261E-02 6.874342848E-01
 5.058257190E-02 -4.483910583E-02 7.498242744E-01
 3.718359327E-03 -2.428388125E-02 5.747821642E-01
 1.420722830E-02 -2.440588847E-02 6.691843477E-01
 5.893257167E-01 -4.547548833E-02 7.557620151E-01
 5.781744457E-01 -4.956450524E-02 7.679564855E-01
 5.706039675E-01 -6.550567262E-02 7.824996193E-01
 5.508890557E-01 -6.974532880E-02 8.020534039E-01
 3.214951105E-01 -9.041769325E-02 9.258431225E-01
 3.559226872E-01 -7.655742387E-02 9.394394354E-01
 3.821516623E-01 -8.366454357E-02 9.386897000E-01
 1.901797302E-01 -6.928781886E-02 8.560915874E-01
 1.686495291E-01 -7.132046934E-02 8.457737498E-01