TITLE     = "Visualization of the solution"
VARIABLES = "x"
"y"
"Mach"
ZONE T="Zone"
 STRANDID=0, SOLUTIONTIME=0
 Nodes=683, Elements=1151, ZONETYPE=FEQuadrilateral
 DATAPACKING=POINT
 DT=(DOUBLE DOUBLE DOUBLE )
 9.999316931E-01 5.060533877E-04 5.427855214E-01
 9.853776097E-01 3.373435466E-03 5.973566785E-01
 9.712828398E-01 6.133120507E-03 6.334117559E-01
 9.539882541E-01 9.510931559E-03 6.542976815E-01
 9.392254949E-01 1.248940825E-02 6.780910428E-01
 9.251266122E-01 1.525316574E-02 6.933120105E-01
 9.130197167E-01 1.756919362E-02 7.023948308E-01
 9.010736346E-01 1.985428110E-02 7.142990179E-01
 8.894003034E-01 2.215530351E-02 7.294764286E-01
 8.773599267E-01 2.443938144E-02 7.433145219E-01
 8.652769327E-01 2.669356205E-02 7.556215710E-01
 8.531145453E-01 2.890865691E-02 7.640636245E-01
 8.405634761E-01 3.107662126E-02 7.718293909E-01
 8.297801018E-01 3.301029652E-02 7.822741554E-01
 8.182981014E-01 3.497620672E-02 7.923631839E-01
 8.060722947E-01 3.704631701E-02 8.024200481E-01
 7.936439514E-01 3.908485174E-02 8.104630264E-01
 7.816888690E-01 4.100912437E-02 8.188462665E-01
 7.696259618E-01 4.290793091E-02 8.279282782E-01
 7.585642934E-01 4.463567957E-02 8.392378227E-01
 7.461028695E-01 4.654141888E-02 8.511992688E-01
 7.329170108E-01 4.846957698E-02 8.606161061E-01
 7.224800587E-01 4.996525496E-02 8.689723321E-01
 7.115007639E-01 5.148529634E-02 8.772467071E-01
 7.000833750E-01 5.304452032E-02 8.877598967E-01
 6.874051690E-01 5.472520739E-02 9.033164732E-01
 6.749281287E-01 5.632222071E-02 9.186157255E-01
 6.645828485E-01 5.759192631E-02 9.294898274E-01
 6.530281901E-01 5.892034620E-02 9.396869408E-01
 6.419203281E-01 6.018476561E-02 9.517320313E-01
 6.302915215E-01 6.142595038E-02 9.651019765E-01
 6.190690994E-01 6.258467585E-02 9.784890882E-01
 6.086988449E-01 6.359157711E-02 9.906661518E-01
 5.968847871E-01 6.466659904E-02 1.004466380E+00
 5.856582522E-01 6.564745307E-02 1.014712071E+00
 5.724791288E-01 6.667277217E-02 1.018844458E+00
 5.599376559E-01 6.754201651E-02 1.021901683E+00
 5.476283431E-01 6.834154576E-02 1.026223281E+00
 5.366539359E-01 6.897946447E-02 1.028039990E+00
 5.248945355E-01 6.958119571E-02 1.027869615E+00
 5.126168132E-01 7.012932748E-02 1.026806208E+00
 5.018115044E-01 7.056432962E-02 1.024983837E+00
 4.887631536E-01 7.098715752E-02 1.020789441E+00
 4.757918417E-01 7.134445012E-02 1.015046246E+00
 4.620921612E-01 7.159864157E-02 1.008362359E+00
 4.487012625E-01 7.176984847E-02 1.002646801E+00
 4.358591735E-01 7.184867561E-02 9.976517155E-01
 4.228068590E-01 7.185650617E-02 9.913423487E-01
 4.102337658E-01 7.177717239E-02 9.856411179E-01
 3.973926008E-01 7.163971663E-02 9.793074734E-01
 3.850927949E-01 7.142148912E-02 9.746621121E-01
 3.731149733E-01 7.115609944E-02 9.688681049E-01
 3.597239554E-01 7.077048719E-02 9.637298766E-01
 3.470315933E-01 7.033381611E-02 9.586691258E-01
 3.338252902E-01 6.979681551E-02 9.518238100E-01
 3.229384720E-01 6.928583235E-02 9.444230243E-01
 3.103255630E-01 6.863608211E-02 9.393411620E-01
 2.973904014E-01 6.790392101E-02 9.345199129E-01
 2.835594416E-01 6.701367348E-02 9.291294818E-01
 2.715267837E-01 6.617262214E-02 9.234318395E-01
 2.596253753E-01 6.524897367E-02 9.154281972E-01
 2.470658422E-01 6.419877708E-02 9.086329234E-01
 2.347221076E-01 6.309149414E-02 9.018692595E-01
 2.226585299E-01 6.192388386E-02 8.947637737E-01
 2.107593566E-01 6.067984179E-02 8.875847435E-01
 1.988977343E-01 5.935993791E-02 8.796682239E-01
 1.866178811E-01 5.788548663E-02 8.706015195E-01
 1.748256683E-01 5.637925863E-02 8.620044001E-01
 1.632947177E-01 5.480791628E-02 8.526044161E-01
 1.515855491E-01 5.312188715E-02 8.438043654E-01
 1.407784522E-01 5.144427717E-02 8.342566305E-01
 1.291532516E-01 4.952975735E-02 8.251445199E-01
 1.180628762E-01 4.758461192E-02 8.148512803E-01
 1.073728800E-01 4.557465017E-02 8.031525294E-01
 9.747549146E-02 4.359108210E-02 7.919035013E-01
 8.660643548E-02 4.126137123E-02 7.773154877E-01
 7.512246072E-02 3.860610723E-02 7.565966233E-01
 6.523333490E-02 3.613258153E-02 7.399069535E-01
 5.552856624E-02 3.348987922E-02 7.199486376E-01
 4.675278068E-02 3.088599257E-02 7.030244178E-01
 3.905414790E-02 2.839948237E-02 6.890210830E-01
 3.223556653E-02 2.598878555E-02 6.727525232E-01
 2.638930641E-02 2.372684143E-02 6.538219820E-01
 2.210680023E-02 2.192574553E-02 6.385650037E-01
 1.802426577E-02 2.005361021E-02 6.125473945E-01
 1.481324155E-02 1.845184527E-02 5.924760519E-01
 1.189176831E-02 1.685750298E-02 5.788177794E-01
 9.759918787E-03 1.558474731E-02 5.693728966E-01
 7.840622216E-03 1.434265636E-02 5.682266169E-01
 6.086183246E-03 1.309352368E-02 5.279813704E-01
 3.799747443E-03 1.123979222E-02 4.747063134E-01
 1.897972194E-03 9.384016506E-03 4.644223884E-01
 3.933637054E-04 7.534056902E-03 2.967661784E-01
 -1.063381205E-03 4.933873657E-03 1.580896997E-01
 -1.665544813E-03 2.939289901E-03 9.561023584E-02
 -1.839130069E-03 1.312501961E-03 1.168950973E-01
 -1.704410999E-03 -4.900950007E-04 9.786899325E-02
 -1.216214732E-03 -2.379593207E-03 2.047869075E-01
 -1.777868165E-04 -4.647827707E-03 3.465355610E-01
 1.394191640E-03 -6.995850243E-03 3.804073888E-01
 3.521804232E-03 -9.416310117E-03 4.552038066E-01
 5.425859708E-03 -1.120896544E-02 4.897777427E-01
 7.625392172E-03 -1.301004644E-02 5.283248140E-01
 9.385376237E-03 -1.430054009E-02 5.498405688E-01
 1.156997960E-02 -1.577422023E-02 5.721924277E-01
 1.402439550E-02 -1.728700846E-02 5.955298430E-01
 1.736790128E-02 -1.915439218E-02 6.199249768E-01
 2.045074292E-02 -2.073237486E-02 6.422385339E-01
 2.442356199E-02 -2.258891985E-02 6.665419762E-01
 2.981106006E-02 -2.486926503E-02 6.926526076E-01
 3.545612842E-02 -2.702261321E-02 7.157612524E-01
 4.228773341E-02 -2.939160354E-02 7.380820109E-01
 4.973175004E-02 -3.171771765E-02 7.570759123E-01
 5.850724876E-02 -3.421156481E-02 7.725881752E-01
 6.710714847E-02 -3.644256666E-02 7.864419255E-01
 7.718520612E-02 -3.883138299E-02 7.999337725E-01
 8.703958988E-02 -4.098039493E-02 8.142215443E-01
 9.729920328E-02 -4.305902869E-02 8.249194419E-01
 1.084465310E-01 -4.514911771E-02 8.340779232E-01
 1.195754036E-01 -4.708129168E-02 8.453208265E-01
 1.312259287E-01 -4.897452891E-02 8.569943947E-01
 1.416061968E-01 -5.054197088E-02 8.660581045E-01
 1.528983861E-01 -5.215214565E-02 8.746892737E-01
 1.648329049E-01 -5.373945832E-02 8.834712575E-01
 1.763146967E-01 -5.515650287E-02 8.909744842E-01
 1.880677640E-01 -5.651506782E-02 8.987783980E-01
 1.987500936E-01 -5.766635761E-02 9.054382236E-01
 2.100460231E-01 -5.879549682E-02 9.123051272E-01
 2.221961617E-01 -5.991593376E-02 9.225747453E-01
 2.343042195E-01 -6.093355268E-02 9.322027966E-01
 2.462231964E-01 -6.182938814E-02 9.407563503E-01
 2.583042383E-01 -6.265144050E-02 9.495989968E-01
 2.692950368E-01 -6.330316514E-02 9.577432495E-01
 2.816762328E-01 -6.394109130E-02 9.655999845E-01
 2.938505411E-01 -6.447679549E-02 9.747822602E-01
 3.065049648E-01 -6.489418447E-02 9.826722585E-01
 3.180758059E-01 -6.516799331E-02 9.888203977E-01
 3.308072984E-01 -6.537177414E-02 9.950019050E-01
 3.414302468E-01 -6.542900950E-02 1.002097392E+00
 3.529472649E-01 -6.539567560E-02 1.006783870E+00
 3.639569283E-01 -6.524785608E-02 1.009544955E+00
 3.749972284E-01 -6.501811743E-02 1.012994134E+00
 3.867523670E-01 -6.464315206E-02 1.012622208E+00
 3.999651670E-01 -6.407912821E-02 1.007277849E+00
 4.123450816E-01 -6.343198568E-02 9.990644705E-01
 4.252113700E-01 -6.261955947E-02 9.858864434E-01
 4.378606677E-01 -6.166268140E-02 9.672653692E-01
 4.503540695E-01 -6.061798707E-02 9.462792311E-01
 4.624147713E-01 -5.949076265E-02 9.269689013E-01
 4.748747647E-01 -5.824033171E-02 9.098993068E-01
 4.868804216E-01 -5.692598224E-02 8.915150517E-01
 4.995245039E-01 -5.544463918E-02 8.721064197E-01
 5.134413242E-01 -5.375128984E-02 8.538931296E-01
 5.268943906E-01 -5.202792212E-02 8.380854922E-01
 5.396983624E-01 -5.031278357E-02 8.217425353E-01
 5.527196527E-01 -4.850157723E-02 8.053960723E-01
 5.662581921E-01 -4.657727107E-02 7.904930537E-01
 5.796074271E-01 -4.466899484E-02 7.786474983E-01
 5.923143625E-01 -4.278609157E-02 7.657767688E-01
 6.052324176E-01 -4.085787386E-02 7.531684185E-01
 6.191658378E-01 -3.875088319E-02 7.406478450E-01
 6.333146691E-01 -3.663146496E-02 7.306385725E-01
 6.476542950E-01 -3.446604311E-02 7.207994598E-01
 6.606149673E-01 -3.249035403E-02 7.099676880E-01
 6.740994453E-01 -3.043938242E-02 6.995867641E-01
 6.866360903E-01 -2.856430784E-02 6.917259469E-01
 6.989121437E-01 -2.671808191E-02 6.840183477E-01
 7.133284211E-01 -2.454893291E-02 6.735276830E-01
 7.263197303E-01 -2.261057869E-02 6.630144966E-01
 7.383246422E-01 -2.087523788E-02 6.562925978E-01
 7.520915270E-01 -1.890843362E-02 6.502992085E-01
 7.647106647E-01 -1.713355072E-02 6.420468139E-01
 7.779216170E-01 -1.525160577E-02 6.325037711E-01
 7.902587056E-01 -1.359923370E-02 6.257353605E-01
 8.031540513E-01 -1.191227883E-02 6.200470219E-01
 8.140247464E-01 -1.050801482E-02 6.121365034E-01
 8.250714540E-01 -9.101397358E-03 6.039961351E-01
 8.378841281E-01 -7.601399440E-03 5.976882927E-01
 8.502219319E-01 -6.205688231E-03 5.910885049E-01
 8.624956012E-01 -4.914192483E-03 5.838119418E-01
 8.735095263E-01 -3.832578659E-03 5.778701238E-01
 8.846892118E-01 -2.835449297E-03 5.730912082E-01
 8.973091841E-01 -1.831563190E-03 5.680570240E-01
 9.071349502E-01 -1.141026965E-03 5.630124310E-01
 9.179939032E-01 -5.222999607E-04 5.616999445E-01
 9.280666709E-01 -5.222820255E-05 5.597330097E-01
 9.373885393E-01 3.029135696E-04 5.577400437E-01
 9.492207766E-01 6.273812614E-04 5.614690148E-01
 9.624720812E-01 8.257374284E-04 5.552727235E-01
 9.762659669E-01 8.567608311E-04 5.504253674E-01
 9.889432788E-01 7.265870227E-04 5.768997424E-01
 -5.000000000E-01 -1.000000000E+00 7.081108873E-01
 3.500000000E+00 -1.000000000E+00 7.314715813E-01
 3.500000000E+00 1.000000000E+00 7.280311307E-01
 -5.000000000E-01 1.000000000E+00 7.101379920E-01
 -5.000000000E-01 5.000000000E-01 6.944312417E-01
 -5.000000000E-01 2.752797990E-12 6.808267874E-01
 -5.000000000E-01 -5.000000000E-01 6.939004991E-01
 -9.421907698E-13 -1.000000000E+00 7.228475420E-01
 5.000000000E-01 -1.000000000E+00 7.467761589E-01
 1.000000000E+00 -1.000000000E+00 7.310759209E-01
 1.500000000E+00 -1.000000000E+00 7.211457009E-01
 2.000000000E+00 -1.000000000E+00 7.234014338E-01
 2.500000000E+00 -1.000000000E+00 7.274576329E-01
 3.000000000E+00 -1.000000000E+00 7.294844639E-01
 3.500000000E+00 -5.000000000E-01 7.340460534E-01
 3.500000000E+00 -2.752797990E-12 7.359822656E-01
 3.500000000E+00 5.000000000E-01 7.329671953E-01
 3.000000000E+00 1.000000000E+00 7.254220522E-01
 2.500000000E+00 1.000000000E+00 7.281334923E-01
 2.000000000E+00 1.000000000E+00 7.337204490E-01
 1.500000000E+00 1.000000000E+00 7.485850753E-01
 1.000000000E+00 1.000000000E+00 7.763407314E-01
 5.000000000E-01 1.000000000E+00 7.758981235E-01
 1.733724275E-12 1.000000000E+00 7.283105665E-01
 6.809410425E-01 -4.430526330E-02 7.073613023E-01
 7.861085834E-01 -2.912246445E-02 6.413010656E-01
 9.018437005E-01 -1.029819375E-02 5.757325503E-01
 5.890756312E-01 -5.750411686E-02 7.803458194E-01
 7.043718447E-01 6.457969993E-02 8.950972028E-01
 2.814928701E-01 7.988570887E-02 9.351704624E-01
 3.661118446E-01 8.164589258E-02 9.709148723E-01
 2.881545410E-01 -7.674216068E-02 9.717494908E-01
 9.095672183E-01 3.104349104E-02 7.188441673E-01
 8.007564611E-01 5.223109802E-02 8.171456735E-01
 5.911151072E-01 7.671501006E-02 1.012981387E+00
 4.068614361E-01 -7.955688656E-02 9.981327183E-01
 4.955288265E-01 8.210268117E-02 1.025547940E+00
 1.834068146E+00 -6.038879456E-01 7.284577283E-01
 1.738907964E+00 5.351945846E-01 7.455457852E-01
 3.031173313E+00 2.156851279E-01 7.391991878E-01
 7.474807283E-01 -5.262545428E-01 7.404492739E-01
 4.789288826E-01 -7.363938582E-02 9.083711496E-01
 3.117338045E-01 -6.390105583E-01 7.724743677E-01
 1.213369111E-01 -5.749728328E-02 8.547457726E-01
 1.828066094E-01 -6.782824078E-02 9.023503932E-01
 7.587210372E-01 5.452205217E-01 8.310801096E-01
 3.129530333E-01 7.255465716E-01 7.873608769E-01
 1.206492393E-01 6.234454089E-02 8.325420254E-01
 1.796498159E-01 6.902885136E-02 8.777299630E-01
 2.734853015E+00 -5.326864473E-01 7.341339554E-01
 1.179954746E+00 6.276564642E-01 7.645335559E-01
 9.867851091E-01 3.444468368E-01 7.592977319E-01
 1.254256903E+00 -6.253993241E-01 7.181930730E-01
 1.504195731E+00 -2.579207699E-01 7.247717211E-01
 2.248560275E+00 -5.893670505E-01 7.316142495E-01
 1.983019418E+00 -2.182720333E-01 7.344552193E-01
 2.413180226E+00 -1.877418891E-01 7.377964274E-01
 2.184636393E+00 1.582655145E-01 7.421116269E-01
 1.832148798E+00 1.423982308E-01 7.407562780E-01
 -2.709497443E-01 -2.367420356E-01 6.727995047E-01
 -6.872264200E-02 -6.055524357E-01 7.241704773E-01
 1.060660300E-01 -3.644982590E-01 7.651940465E-01
 -2.802375399E-01 2.185911057E-01 6.736809828E-01
 -1.891735588E-01 6.924880987E-01 7.145648253E-01
 1.068046604E-01 3.302301090E-01 7.713602426E-01
 6.842175341E-02 5.029321967E-02 7.635826186E-01
 2.191341566E+00 6.008537608E-01 7.408649681E-01
 2.738053791E+00 6.037946893E-01 7.366752942E-01
 -2.354246928E-01 -3.823343028E-03 6.481106844E-01
 -1.191746829E-01 -1.416858317E-01 6.414523746E-01
 7.025157986E-02 -4.562999710E-02 7.927134474E-01
 4.457472296E-02 -3.904791424E-02 7.421720836E-01
 -6.853467572E-02 -3.226639999E-01 7.002151023E-01
 5.599918555E-03 -1.818934285E-01 6.983167851E-01
 1.598926355E-01 -2.191946316E-01 8.302410929E-01
 3.464483071E-01 -7.844108112E-02 1.003037161E+00
 2.352820332E-01 -7.295870532E-02 9.372417132E-01
 2.174786920E-01 -7.199221092E-02 9.248554570E-01
 2.646544891E-01 -7.681264978E-02 9.576184664E-01
 -3.709534808E-02 -9.802497055E-02 6.211291334E-01
 2.079838321E-02 -2.585295878E-02 6.407211028E-01
 -1.093699738E-01 -2.333839249E-02 5.833455216E-01
 4.014676989E-02 -1.078617184E-01 7.357999345E-01
 3.109363318E+00 -2.612703141E-01 7.373198274E-01
 1.456093720E-02 -7.095624642E-02 6.626835953E-01
 8.076167417E-03 -1.814429583E-02 5.280623865E-01
 -4.123724422E-02 -4.051494334E-02 5.557791635E-01
 -8.826935181E-03 -4.687744673E-02 5.653140152E-01
 2.552427379E+00 2.123685390E-01 7.416999436E-01
 4.366677159E-02 -7.474509952E-02 7.452154899E-01
 8.825886473E-02 -1.037662742E-01 8.219088190E-01
 1.020922666E-01 -5.439981063E-02 8.365114147E-01
 1.624104873E-02 -4.352029610E-02 6.396861561E-01
 3.156381986E-02 -3.348879645E-02 6.980089891E-01
 7.188561596E-02 -7.555233355E-02 7.948606721E-01
 8.308296850E-02 -5.932696263E-02 8.177093805E-01
 9.861587633E-02 -7.960738137E-02 8.384487900E-01
 1.282889680E-01 -1.050864710E-01 8.615489016E-01
 9.774069826E-02 -1.564558980E-01 7.986839811E-01
 5.220220638E-02 -5.584399093E-02 7.645715460E-01
 3.380158445E-02 -5.293372394E-02 7.143559355E-01
 -8.010678964E-02 3.851856917E-01 7.064419696E-01
 2.147607441E-02 2.239522180E-01 7.188759139E-01
 1.691715911E-01 2.250090369E-01 8.361741681E-01
 2.263245846E-01 7.630196621E-02 9.093575754E-01
 2.028388986E-01 7.266489438E-02 8.944325291E-01
 2.485096544E-01 3.200055125E-01 8.476107719E-01
 4.276772492E-01 8.310199531E-02 9.975667417E-01
 2.970653727E-01 2.235176742E-01 9.094104634E-01
 3.808200534E-01 2.727468375E-01 9.184957360E-01
 3.257367139E-01 8.091487900E-02 9.531525526E-01
 2.985997289E-01 8.161475805E-02 9.428544706E-01
 4.218571731E-01 1.913509497E-01 9.729215300E-01
 4.985820186E-01 2.332696063E-01 9.657280805E-01
 6.477929431E-01 7.073908475E-02 9.516886221E-01
 6.267882598E-01 7.262350101E-02 9.749042237E-01
 5.437722093E-01 7.732634829E-02 1.029068260E+00
 5.687633074E-01 7.806489447E-02 1.022510937E+00
 4.936051025E-01 3.279227903E-01 9.182165555E-01
 6.040794584E-01 2.945371108E-01 9.285374764E-01
 5.898563824E-01 1.907161321E-01 9.801995656E-01
 6.791825021E-01 2.287944822E-01 9.118073667E-01
 7.547393410E-01 5.689013684E-02 8.537031389E-01
 7.771338135E-01 5.422042413E-02 8.333615943E-01
 4.785293434E-01 1.641804150E-01 1.001943384E+00
 2.421560276E-01 1.605013214E-01 9.130142044E-01
 6.567212958E-01 1.556980604E-01 9.515943418E-01
 7.375030012E-01 1.616027847E-01 8.810826536E-01
 7.796886218E-01 2.622395461E-01 8.393324199E-01
 8.340837919E-01 1.687688964E-01 8.174821915E-01
 8.641761185E-01 3.908554358E-02 7.659347358E-01
 8.384031670E-01 4.433042514E-02 7.847292328E-01
 3.453743796E-01 1.479355181E-01 9.664172502E-01
 9.954799027E-02 1.689717856E-01 7.990039183E-01
 7.867433719E-01 1.154552332E-01 8.466038283E-01
 8.635069965E-01 1.106002253E-01 7.922059453E-01
 9.660501059E-01 1.920463885E-02 6.562327379E-01
 9.022081587E-01 1.682220612E-01 7.749993785E-01
 9.256658987E-01 1.003799081E-01 7.485772649E-01
 9.697720443E-01 1.499869307E-01 7.415771286E-01
 9.890574492E-01 8.218571661E-02 7.030548547E-01
 1.044652260E+00 1.518650069E-01 7.194327563E-01
 8.798893729E-01 2.638512437E-01 7.878417527E-01
 6.028898064E-01 1.313695098E-01 1.001493357E+00
 7.389185867E-01 1.069526673E-01 8.832184763E-01
 4.348474600E-01 1.341915225E-01 1.001990686E+00
 4.743248872E-01 1.201612754E-01 1.018756222E+00
 5.094245756E-01 1.331849438E-01 1.022613966E+00
 5.184184305E-01 8.274727345E-02 1.030549778E+00
 4.568985022E-01 8.199409064E-02 1.009302966E+00
 8.892959665E-01 7.402084545E-02 7.643004300E-01
 8.814513458E-01 3.479269787E-02 7.484290709E-01
 8.199544381E-01 8.650494044E-02 8.175164528E-01
 9.502093822E-01 6.494628076E-02 7.158688789E-01
 9.338204482E-01 2.714548569E-02 6.974457021E-01
 -1.233605899E-01 1.440186801E-01 6.432982263E-01
 -2.048595091E-02 1.258548517E-01 6.657996401E-01
 2.586167831E-02 3.013289281E-02 6.547582785E-01
 5.029487511E-02 1.107781313E-01 7.463567062E-01
 6.431319876E-01 1.056253275E-01 9.690469199E-01
 6.886631586E-01 1.119613388E-01 9.233134256E-01
 6.718474441E-01 6.493687243E-02 9.271809570E-01
 7.402903985E-01 5.913195628E-02 8.659588233E-01
 7.489501986E-01 7.652069337E-02 8.684896326E-01
 7.297266203E-01 7.361760492E-02 8.817122874E-01
 9.810953914E-01 1.887604482E-02 6.344544789E-01
 9.702137146E-01 4.014066260E-02 6.760654522E-01
 1.003313447E+00 3.594748651E-02 6.522387090E-01
 7.289938299E-01 5.825608164E-02 8.724296599E-01
 7.108420759E-01 8.303951897E-02 9.002832555E-01
 6.904613092E-01 7.767436996E-02 9.171727985E-01
 6.712309458E-01 9.143505730E-02 9.405017146E-01
 1.015393230E-01 1.062618209E-01 8.222921953E-01
 1.551817104E-01 1.391943197E-01 8.614416287E-01
 1.431794835E-01 9.622519031E-02 8.631734129E-01
 1.552713350E-01 6.516692157E-02 8.595929308E-01
 2.031850400E-01 1.193619343E-01 9.037425028E-01
 1.717438032E-01 1.040905366E-01 8.882718541E-01
 7.661796745E-01 6.738579895E-02 8.504280173E-01
 7.885914639E-01 6.917136041E-02 8.361581562E-01
 7.111848716E-01 3.564527430E-01 8.659850880E-01
 8.516594675E-01 3.842725260E-01 8.029500684E-01
 5.830194401E-01 4.291018703E-01 8.810709385E-01
 9.958891910E-01 1.407855020E-02 6.113425256E-01
 6.553624635E-03 7.816599846E-02 6.536721842E-01
 1.110908712E-02 2.468163409E-02 5.866023811E-01
 -5.973392316E-02 7.213746550E-02 5.882754517E-01
 -2.427314472E-02 4.797390337E-03 3.720829282E-01
 -4.851808756E-03 3.004567835E-02 5.139745253E-01
 3.607340848E-02 6.121541631E-02 7.206372491E-01
 4.907832675E-02 3.968366541E-02 7.151021669E-01
 8.558066653E-01 7.349379712E-02 7.897550097E-01
 1.377574131E-01 7.403625692E-02 8.557638273E-01
 9.511953467E-01 2.520672544E-02 6.783751159E-01
 9.209558271E-01 6.196653186E-02 7.337600708E-01
 6.089570162E-01 1.041665343E-01 1.002546358E+00
 5.779812867E-01 1.092797863E-01 1.020567498E+00
 4.706490785E-01 8.391690796E-02 1.016089301E+00
 5.262086162E-01 1.716930847E-01 1.007831928E+00
 6.827310836E-01 6.572792728E-02 9.167959029E-01
 6.250467295E-02 7.923896755E-02 7.825157741E-01
 9.042357499E-02 5.386677481E-02 7.992067425E-01
 6.618582832E-01 6.901707999E-02 9.377330685E-01
 7.652486168E-01 5.320799408E-02 8.412542750E-01
 5.556433545E-01 7.869681617E-02 1.026543979E+00
 5.500127052E-01 9.436970618E-02 1.029754120E+00
 5.534286690E-01 1.306006214E-01 1.022047851E+00
 5.242282774E-01 1.031433488E-01 1.032070973E+00
 4.997524172E-01 1.089086519E-01 1.030383983E+00
 7.883629118E-01 5.114337173E-02 8.236744769E-01
 5.329966823E-01 8.269122281E-02 1.030409061E+00
 6.158644517E-01 7.160227797E-02 9.863319111E-01
 6.055575319E-01 7.518891866E-02 9.990080124E-01
 8.505731885E-01 3.955460452E-02 7.734063100E-01
 1.665501457E-01 8.077194433E-02 8.770209939E-01
 7.179858656E-01 6.349057613E-02 8.831144058E-01
 1.126526506E-01 8.117419803E-02 8.396899328E-01
 1.037242623E-01 6.363539892E-02 8.219901952E-01
 4.844277505E-01 9.536068403E-02 1.023855909E+00
 9.500421223E-01 2.281430692E-01 7.561580199E-01
 1.071133894E+00 2.447068403E-01 7.328776566E-01
 1.157850968E+00 1.540656579E-01 7.174230492E-01
 1.186372848E+00 3.342235793E-01 7.425462925E-01
 1.324061266E+00 1.483102118E-01 7.258150122E-01
 1.271651673E+00 -2.732977215E-02 7.033840016E-01
 1.119683890E+00 4.443381985E-02 6.836736225E-01
 1.454304132E+00 -2.252255896E-02 7.209575121E-01
 1.410436301E+00 4.126110128E-01 7.449671173E-01
 1.457324753E+00 6.438655154E-01 7.504235009E-01
 1.060263007E+00 8.121355978E-02 6.918337269E-01
 1.047020028E+00 1.878367089E-02 6.355869201E-01
 1.114471555E+00 -3.016284448E-02 6.710982570E-01
 9.824993911E-01 -9.456593407E-03 5.745507247E-01
 1.012489320E+00 1.307466320E-02 6.021344930E-01
 1.017962929E+00 -7.458691676E-03 5.838348432E-01
 7.640130684E-01 9.055684235E-02 8.617329189E-01
 9.228165767E-01 4.098574505E-02 7.179742635E-01
 8.996390913E-01 4.648139752E-02 7.418651618E-01
 5.488995883E-01 6.516866189E-01 8.333907424E-01
 5.805894696E-01 8.760196301E-02 1.020641200E+00
 4.454932314E-01 1.088175691E-01 1.010907765E+00
 4.112982825E-01 1.148120519E-01 9.970471184E-01
 3.916957525E-01 8.153384955E-02 9.820945256E-01
 4.133088522E-01 9.385946416E-02 9.953779989E-01
 3.800494936E-01 8.412362813E-02 9.782592731E-01
 3.702808172E-01 9.674219318E-02 9.789234662E-01
 3.522740444E-01 9.595010403E-02 9.713349672E-01
 8.987770621E-02 7.241172999E-02 8.094275637E-01
 1.894793434E-01 8.595276895E-02 8.963552680E-01
 2.119561515E-01 8.704277997E-02 9.093449527E-01
 2.340776716E-01 9.434976303E-02 9.213971885E-01
 2.747268161E-01 1.279945639E-01 9.404774047E-01
 2.512666435E-01 7.930118423E-02 9.220308394E-01
 3.167507043E-01 1.212816341E-01 9.589343406E-01
 2.623734312E-01 9.788876347E-02 9.347441050E-01
 2.916176992E-01 9.998542761E-02 9.474356149E-01
 2.430458663E-01 1.219849927E-01 9.265002713E-01
 3.326714783E-01 1.003033722E-01 9.648667060E-01
 3.420656160E-01 8.477762401E-02 9.618764530E-01
 3.135157422E-01 9.187253365E-02 9.531773681E-01
 5.797210531E-01 7.494041856E-02 1.018994456E+00
 7.078220890E-02 -2.598116773E-01 7.519843276E-01
 2.657123206E-01 -3.143365639E-01 8.391006427E-01
 2.758881170E-01 -1.984804008E-01 9.018512797E-01
 3.697171229E-01 -2.583249437E-01 8.894052563E-01
 3.639825513E-01 -1.653634144E-01 9.501004171E-01
 4.569799585E-01 -1.931926388E-01 8.946687212E-01
 5.345597658E-01 -6.522163931E-02 8.370105342E-01
 5.609916848E-01 -6.130491327E-02 8.068952489E-01
 4.446463177E-01 -7.647632970E-02 9.573676321E-01
 4.748415540E-01 -2.961154500E-01 8.429248260E-01
 5.523954204E-01 -2.247708380E-01 8.118547646E-01
 5.328141854E-01 -1.522164842E-01 8.425744069E-01
 6.132657135E-01 -1.576598260E-01 7.774488360E-01
 6.438800588E-01 -4.915281638E-02 7.327545953E-01
 6.422923187E-01 -2.211431808E-01 7.541420999E-01
 7.020020332E-01 -1.577559290E-01 7.268065317E-01
 8.452580976E-01 -1.755609657E-02 6.038183095E-01
 8.232894809E-01 -2.180956250E-02 6.173014964E-01
 8.702552669E-01 -1.519047101E-02 5.906633934E-01
 7.325805876E-01 -3.129835001E-02 6.687309364E-01
 7.457075310E-01 -2.418459150E-01 7.155151124E-01
 7.987140400E-01 -1.585035146E-01 6.870840361E-01
 8.434445087E-01 -2.197391040E-01 6.813111953E-01
 9.234183388E-01 -1.620010387E-01 6.592653216E-01
 9.628813655E-01 -2.663458673E-01 6.781880842E-01
 1.033380098E+00 -1.778826822E-01 6.698969463E-01
 7.505268842E-01 -1.032712738E-01 6.956486786E-01
 8.240213203E-01 -9.250254698E-02 6.622038023E-01
 1.092016322E+00 -2.690213223E-01 6.877938639E-01
 1.010388534E+00 -4.256500522E-01 7.044185899E-01
 2.076623087E-01 -1.517745993E-01 8.937776195E-01
 6.984907985E-01 -9.988829785E-02 7.239104527E-01
 3.005159472E-01 -1.413620740E-01 9.519234853E-01
 4.245701557E-01 -1.374980903E-01 9.602306394E-01
 6.364798415E-01 -3.293344270E-01 7.644170976E-01
 7.868555062E-01 -7.360153661E-02 6.687119169E-01
 7.612429782E-01 -3.333595127E-02 6.579930004E-01
 3.786746988E-01 -1.164609631E-01 9.903706399E-01
 3.696757492E-01 -7.468029876E-02 1.009459508E+00
 3.403441037E-01 -1.198462031E-01 9.836747325E-01
 3.131778689E-01 -7.741317928E-02 9.865009754E-01
 5.715493353E-01 -1.113762515E-01 8.109026694E-01
 6.204355275E-01 -1.013161628E-01 7.724366719E-01
 6.163008447E-01 -5.506466325E-02 7.557751686E-01
 9.733099373E-01 -1.056607159E-01 6.435604651E-01
 9.428810653E-01 -8.984431325E-03 5.702355035E-01
 9.242758608E-01 -1.033541985E-02 5.715437053E-01
 7.239463127E-01 -7.229020312E-02 7.015732310E-01
 7.081568030E-01 -3.600449356E-02 6.859543158E-01
 5.169558893E-01 -4.704220431E-01 7.965498442E-01
 1.170979349E+00 -1.534408425E-01 6.937735615E-01
 1.273079203E+00 -3.431574718E-01 7.116098506E-01
 8.992170151E-01 -8.883665028E-02 6.383240871E-01
 9.411972989E-01 -5.972710325E-02 6.189977337E-01
 7.535908509E-01 -5.831715030E-02 6.788939079E-01
 9.085866608E-01 -5.142729650E-02 6.137489143E-01
 5.255040413E-01 -1.077422418E-01 8.578635305E-01
 5.083801614E-01 -6.971768423E-02 8.684262168E-01
 4.795801857E-01 -1.234810963E-01 9.072255991E-01
 7.446582200E-01 -3.516468846E-02 6.665243563E-01
 7.762812634E-01 -4.498235250E-02 6.591083721E-01
 7.985551895E-01 -4.407959391E-02 6.488127370E-01
 8.355570296E-01 -5.917192360E-02 6.404592814E-01
 8.134054186E-01 -3.416311947E-01 7.066478990E-01
 9.922529751E-01 -5.941489105E-02 6.251789812E-01
 1.053049632E+00 -9.578920372E-02 6.634814721E-01
 1.342333088E+00 -1.616579219E-01 7.146743135E-01
 3.834586525E-01 -3.795110537E-01 8.358356435E-01
 6.908624715E-01 -6.406625163E-02 7.147443374E-01
 6.615906762E-01 -8.639592388E-02 7.418617348E-01
 6.591569498E-01 -1.206032279E-01 7.489912458E-01
 5.925892321E-01 -8.904173316E-02 7.920831470E-01
 4.457744766E-01 -1.001706229E-01 9.544011848E-01
 8.586302927E-01 -1.447109893E-02 5.953566654E-01
 8.613616991E-01 -2.850987620E-02 6.075463831E-01
 8.800457349E-01 -2.369319875E-02 5.970298146E-01
 8.798997135E-01 -4.875253709E-02 6.201356177E-01
 8.342697814E-01 -1.776646142E-02 6.085267716E-01
 7.214085100E-01 -3.419900983E-02 6.776692445E-01
 4.131262281E-01 -1.055570786E-01 9.891066761E-01
 8.799713242E-01 -1.217352837E-02 5.840494477E-01
 2.363457355E-01 -4.658300460E-01 7.867645327E-01
 8.015063911E-01 -2.808911801E-02 6.329642746E-01
 8.174108600E-01 -3.845939495E-02 6.344975237E-01
 1.037428038E+00 -3.375984218E-02 6.302940726E-01
 9.994310292E-01 -2.686749958E-02 5.959574947E-01
 9.619462392E-01 -3.265970032E-02 5.894317367E-01
 4.972480013E-01 -8.820096911E-02 8.887334057E-01
 4.726672520E-01 -9.252152033E-02 9.217110613E-01
 8.584385401E-01 -7.772331857E-02 6.436498228E-01
 8.118771060E-01 -2.215567382E-02 6.238688141E-01
 5.231010122E-01 -8.083179962E-02 8.573265834E-01
 5.486587474E-01 -8.004756204E-02 8.300366967E-01
 4.614115073E-01 -7.838198569E-02 9.333706120E-01
 3.060853848E-01 -1.075141353E-01 9.741876010E-01
 2.701362163E-01 -1.184155432E-01 9.522841538E-01
 2.317585402E-01 -1.156037063E-01 9.311661312E-01
 9.696650390E-01 -6.798083295E-01 7.236675095E-01
 1.685176707E+00 -1.018493434E-01 7.306131002E-01
 7.313903736E-01 -4.777791025E-02 6.823204989E-01
 8.567389516E-01 -1.299433406E-01 6.629183119E-01
 8.906692183E-01 -1.292231148E-02 5.822940164E-01
 9.023693645E-01 -2.674946143E-02 5.936430903E-01
 9.278441591E-01 -3.566122914E-02 6.013476116E-01
 8.389063085E-01 -3.291517544E-02 6.206447424E-01
 1.545270434E-01 -1.540651303E-01 8.592137856E-01
 1.695630152E-01 -1.144038685E-01 8.918739889E-01
 1.537041894E-01 -6.409661097E-02 8.819215830E-01
 2.010494774E-01 -9.687116951E-02 9.159106493E-01
 5.743565068E-01 -6.867119822E-01 7.695720665E-01
 6.350210792E-01 -6.745375263E-02 7.514650924E-01
 6.644214805E-01 -5.677231893E-02 7.267822841E-01
 6.962777185E-01 -4.250940967E-02 6.971920179E-01
 3.600378049E-01 1.179885399E-01 9.774731356E-01
 3.888243969E-01 1.436198383E-01 9.831012858E-01
 6.295364979E-01 -4.941071608E-02 7.424686358E-01
 7.732530214E-01 -2.796518494E-02 6.468984053E-01
 3.623738608E-01 -9.134341947E-02 1.002549325E+00
 3.289992346E-01 -9.011237105E-02 9.924230948E-01
 2.995009691E-01 -8.939649612E-02 9.797317972E-01
 2.798003041E-01 -9.101391491E-02 9.665179845E-01
 2.508490871E-01 -9.117272091E-02 9.500543967E-01
 5.070253083E-01 9.295602481E-02 1.030844599E+00
 6.197571775E-01 8.589724574E-02 9.884689091E-01
 6.385105684E-01 8.156991569E-02 9.671988064E-01
 3.890934042E-01 -9.463137426E-02 1.002573940E+00
 4.268384540E-01 -8.705488000E-02 9.810948673E-01
 3.843633061E-01 -7.879551608E-02 1.007949137E+00
 9.121836431E-01 -1.186522643E-02 5.748319475E-01
 1.527914350E-01 -9.179190752E-02 8.901708973E-01
 8.124799811E-01 -6.156299921E-02 6.513255549E-01
 9.208701144E-01 2.639941623E-02 7.063718446E-01
 5.072216436E-01 7.971887822E-02 1.028490817E+00
 4.941923942E-01 -6.878573211E-02 8.863231837E-01
 3.133974596E+00 6.339745962E-01 7.324950264E-01
 1.687678802E-01 -6.759416854E-02 8.939664226E-01
 1.754936933E-01 -8.539466029E-02 9.040832460E-01
 1.969034834E-01 -7.744449832E-02 9.158527425E-01
 1.396452810E-01 -7.612265981E-02 8.770980195E-01
 3.847551326E-01 4.511103088E-01 8.522097559E-01
 6.044510888E-01 -7.096122175E-02 7.758039879E-01
 5.769221470E-01 -7.295709809E-02 7.998753011E-01
 8.319023781E-01 5.996483166E-02 8.015296849E-01
 8.118524920E-01 6.392848891E-02 8.192358631E-01
 8.180577190E-01 5.177021402E-02 8.055621275E-01
 3.002377770E-01 -7.458456321E-02 9.793154837E-01
 3.530364225E-01 8.047394713E-02 9.654438560E-01
 5.745710164E-01 -5.660247883E-02 7.914572917E-01
 3.133974596E+00 -6.339745962E-01 7.330621508E-01