TITLE     = "Visualization of the solution"
VARIABLES = "x"
"y"
"Mach"
ZONE T="Zone"
 STRANDID=0, SOLUTIONTIME=0
 Nodes=715, Elements=1215, ZONETYPE=FEQuadrilateral
 DATAPACKING=POINT
 DT=(DOUBLE DOUBLE DOUBLE )
 9.998674989E-01 5.188510404E-04 5.954297076E-01
 9.874564409E-01 2.794127911E-03 6.496930003E-01
 9.755958319E-01 4.987264518E-03 6.678214316E-01
 9.609571099E-01 7.645621430E-03 6.973877340E-01
 9.468071461E-01 1.018609479E-02 7.147268764E-01
 9.339066148E-01 1.255110372E-02 7.345782215E-01
 9.225240350E-01 1.456186455E-02 7.507199295E-01
 9.100924134E-01 1.674731262E-02 7.635292976E-01
 8.980328441E-01 1.874509826E-02 7.763843981E-01
 8.857898712E-01 2.079033107E-02 7.892339416E-01
 8.732527494E-01 2.275699936E-02 7.984882833E-01
 8.607605696E-01 2.461147308E-02 8.045588242E-01
 8.480314612E-01 2.649778500E-02 8.110420428E-01
 8.358628154E-01 2.819089592E-02 8.169781013E-01
 8.239403963E-01 2.986602299E-02 8.236484636E-01
 8.107602596E-01 3.164710477E-02 8.294064981E-01
 7.974790335E-01 3.338968754E-02 8.341068322E-01
 7.852320671E-01 3.498145565E-02 8.410304873E-01
 7.726427317E-01 3.659535199E-02 8.467059389E-01
 7.601350546E-01 3.812234104E-02 8.537521391E-01
 7.471989393E-01 3.973081335E-02 8.623202889E-01
 7.331116199E-01 4.137512296E-02 8.684355561E-01
 7.221727371E-01 4.262662306E-02 8.739874987E-01
 7.111606002E-01 4.387428984E-02 8.809309442E-01
 6.994993687E-01 4.515279830E-02 8.889120797E-01
 6.859876513E-01 4.659908265E-02 8.981724854E-01
 6.729854941E-01 4.793915153E-02 9.065039744E-01
 6.628868580E-01 4.892566800E-02 9.130220955E-01
 6.514738798E-01 5.002033710E-02 9.198885365E-01
 6.403815150E-01 5.104232579E-02 9.279805106E-01
 6.286907792E-01 5.207160488E-02 9.380409346E-01
 6.178755164E-01 5.300261453E-02 9.467233682E-01
 6.069723964E-01 5.385737866E-02 9.528278389E-01
 5.945160985E-01 5.479492992E-02 9.602789310E-01
 5.829331875E-01 5.561371520E-02 9.671861723E-01
 5.695261955E-01 5.647182837E-02 9.721940082E-01
 5.571482182E-01 5.720340088E-02 9.762269348E-01
 5.448676348E-01 5.784498900E-02 9.813705392E-01
 5.341541767E-01 5.837141722E-02 9.866672425E-01
 5.225411057E-01 5.888359249E-02 9.882026374E-01
 5.095610619E-01 5.934653804E-02 9.885503698E-01
 4.986381531E-01 5.970635265E-02 9.877907163E-01
 4.855093360E-01 6.003827229E-02 9.841883810E-01
 4.723303020E-01 6.028023735E-02 9.803631131E-01
 4.582325220E-01 6.047472358E-02 9.788388420E-01
 4.446070492E-01 6.058902666E-02 9.774562442E-01
 4.315966666E-01 6.059852242E-02 9.734951282E-01
 4.188089073E-01 6.054913998E-02 9.688804793E-01
 4.065894783E-01 6.042590365E-02 9.646070166E-01
 3.942502737E-01 6.023966148E-02 9.612146077E-01
 3.822468817E-01 6.000910327E-02 9.577972728E-01
 3.712240756E-01 5.973554403E-02 9.522539097E-01
 3.581386805E-01 5.933735892E-02 9.467133313E-01
 3.461517096E-01 5.892593041E-02 9.435917767E-01
 3.337957561E-01 5.843690783E-02 9.398477412E-01
 3.231406510E-01 5.795223266E-02 9.338453656E-01
 3.107986450E-01 5.734128505E-02 9.275768340E-01
 2.975926995E-01 5.661537871E-02 9.216694695E-01
 2.836423516E-01 5.577950180E-02 9.172469292E-01
 2.705460191E-01 5.492370948E-02 9.123259664E-01
 2.584130168E-01 5.405255035E-02 9.056864852E-01
 2.455720007E-01 5.306018516E-02 8.987575312E-01
 2.325890660E-01 5.199100077E-02 8.932539713E-01
 2.199913710E-01 5.088377371E-02 8.881524555E-01
 2.080302835E-01 4.975854605E-02 8.821910492E-01
 1.965495199E-01 4.861292988E-02 8.754656211E-01
 1.839148700E-01 4.727372900E-02 8.684853426E-01
 1.719162613E-01 4.593038931E-02 8.625730357E-01
 1.602014601E-01 4.453442991E-02 8.552552230E-01
 1.479763538E-01 4.299888387E-02 8.481290537E-01
 1.370715350E-01 4.154431820E-02 8.412206141E-01
 1.255217344E-01 3.992635384E-02 8.339010691E-01
 1.139128134E-01 3.819132596E-02 8.263911724E-01
 1.030235365E-01 3.645581007E-02 8.193917451E-01
 9.298530966E-02 3.476811945E-02 8.115124226E-01
 8.174438030E-02 3.275340796E-02 8.025685168E-01
 6.970323622E-02 3.041405231E-02 7.930851483E-01
 5.981622264E-02 2.833702974E-02 7.807063011E-01
 4.995919764E-02 2.607144974E-02 7.682347411E-01
 4.105899855E-02 2.383510955E-02 7.568396624E-01
 3.369808570E-02 2.179914527E-02 7.475473229E-01
 2.734464034E-02 1.985787414E-02 7.406944654E-01
 2.193089947E-02 1.802820526E-02 7.294231418E-01
 1.811390929E-02 1.661084592E-02 7.122826658E-01
 1.453034952E-02 1.514148619E-02 6.997009298E-01
 1.193410251E-02 1.397773158E-02 6.986159078E-01
 9.642732330E-03 1.285070647E-02 6.995789029E-01
 7.958787493E-03 1.194518153E-02 6.858215585E-01
 6.460330915E-03 1.107018907E-02 6.656185693E-01
 5.069723818E-03 1.018615719E-02 6.213665866E-01
 3.210239811E-03 8.841606788E-03 5.861883892E-01
 1.598169445E-03 7.459320128E-03 4.820577637E-01
 2.083563741E-04 5.973756779E-03 3.814952643E-01
 -1.127482508E-03 3.947235644E-03 2.878287894E-01
 -1.740127569E-03 2.363482490E-03 1.228747239E-01
 -1.966682728E-03 1.109388773E-03 4.294428514E-02
 -1.947869896E-03 -3.622045915E-04 2.307692517E-02
 -1.565837534E-03 -2.043049084E-03 1.149699140E-01
 -6.734131603E-04 -3.963458352E-03 2.084766066E-01
 7.904718514E-04 -5.994627252E-03 3.787367610E-01
 2.884976100E-03 -8.127274923E-03 4.441605805E-01
 4.739720840E-03 -9.653732181E-03 5.273775031E-01
 6.936976220E-03 -1.120911911E-02 5.787511773E-01
 8.544576354E-03 -1.222469006E-02 5.951675182E-01
 1.060799416E-02 -1.341505162E-02 6.081439144E-01
 1.299484726E-02 -1.466973219E-02 6.307720911E-01
 1.629643328E-02 -1.624431275E-02 6.576147279E-01
 1.943735778E-02 -1.759645715E-02 6.800233682E-01
 2.349701338E-02 -1.919567026E-02 7.003617411E-01
 2.901049145E-02 -2.114454471E-02 7.189846110E-01
 3.491686285E-02 -2.302185819E-02 7.370740595E-01
 4.250209033E-02 -2.519857138E-02 7.596075556E-01
 5.028742924E-02 -2.721409500E-02 7.762011270E-01
 5.953728035E-02 -2.938685752E-02 7.899112492E-01
 6.854239106E-02 -3.131849319E-02 8.007082939E-01
 7.914967835E-02 -3.341397271E-02 8.126147922E-01
 8.924432099E-02 -3.525792435E-02 8.204017776E-01
 9.983394295E-02 -3.705949709E-02 8.291911792E-01
 1.108045429E-01 -3.880098835E-02 8.358492061E-01
 1.223987564E-01 -4.052373394E-02 8.418700650E-01
 1.340004206E-01 -4.213892296E-02 8.481451332E-01
 1.447718143E-01 -4.355932027E-02 8.546105145E-01
 1.558669508E-01 -4.492910579E-02 8.607187020E-01
 1.678908318E-01 -4.632817581E-02 8.668369122E-01
 1.796258986E-01 -4.761052132E-02 8.737719198E-01
 1.914837062E-01 -4.882974923E-02 8.808046172E-01
 2.020368874E-01 -4.983629659E-02 8.877174130E-01
 2.132621258E-01 -5.085341260E-02 8.941035993E-01
 2.255588174E-01 -5.187624693E-02 9.017693194E-01
 2.383147180E-01 -5.285655707E-02 9.099466433E-01
 2.505990565E-01 -5.369684473E-02 9.170687610E-01
 2.633682191E-01 -5.449771136E-02 9.253360618E-01
 2.744362056E-01 -5.511399359E-02 9.341175487E-01
 2.871148586E-01 -5.571966246E-02 9.419128768E-01
 2.997623682E-01 -5.622722208E-02 9.492225041E-01
 3.125993013E-01 -5.663283169E-02 9.564716831E-01
 3.241543472E-01 -5.690603331E-02 9.647388129E-01
 3.365583420E-01 -5.710116401E-02 9.727654824E-01
 3.471809626E-01 -5.715884641E-02 9.778852630E-01
 3.584064245E-01 -5.713632330E-02 9.798316198E-01
 3.692878187E-01 -5.702875555E-02 9.817097665E-01
 3.797081411E-01 -5.681488290E-02 9.806239474E-01
 3.908861279E-01 -5.651618168E-02 9.778109041E-01
 4.034796357E-01 -5.604793876E-02 9.741031845E-01
 4.155945480E-01 -5.546877906E-02 9.671906478E-01
 4.283792973E-01 -5.472365022E-02 9.555198921E-01
 4.407944679E-01 -5.386543646E-02 9.402383091E-01
 4.532826841E-01 -5.291368067E-02 9.264527428E-01
 4.653808177E-01 -5.186221749E-02 9.138970795E-01
 4.778233767E-01 -5.067269877E-02 8.980529619E-01
 4.893580377E-01 -4.949235916E-02 8.817926841E-01
 5.018212199E-01 -4.813005030E-02 8.655078757E-01
 5.153529048E-01 -4.655772448E-02 8.487244974E-01
 5.290500522E-01 -4.489276931E-02 8.325308294E-01
 5.425453782E-01 -4.318629205E-02 8.175559327E-01
 5.560699701E-01 -4.142536968E-02 8.035440056E-01
 5.688301921E-01 -3.971285373E-02 7.908179931E-01
 5.821040273E-01 -3.790532798E-02 7.791588775E-01
 5.942071080E-01 -3.625857830E-02 7.691424270E-01
 6.062793136E-01 -3.455520049E-02 7.580703717E-01
 6.201174259E-01 -3.263304010E-02 7.465847135E-01
 6.343656182E-01 -3.063022159E-02 7.366491467E-01
 6.485914588E-01 -2.865058556E-02 7.277555765E-01
 6.618000865E-01 -2.677993663E-02 7.179369876E-01
 6.753837466E-01 -2.490830235E-02 7.088890233E-01
 6.879131794E-01 -2.318389900E-02 7.013784972E-01
 7.003324032E-01 -2.146976814E-02 6.926088704E-01
 7.147161365E-01 -1.949286461E-02 6.829383650E-01
 7.279015779E-01 -1.776126213E-02 6.764284886E-01
 7.395467162E-01 -1.624790020E-02 6.708268862E-01
 7.517277598E-01 -1.464343444E-02 6.631330081E-01
 7.642607689E-01 -1.307596359E-02 6.553875808E-01
 7.767336369E-01 -1.149621420E-02 6.475735034E-01
 7.886433601E-01 -1.007970795E-02 6.404950752E-01
 8.010361195E-01 -8.636916056E-03 6.347510986E-01
 8.124107718E-01 -7.380729541E-03 6.291559849E-01
 8.238487840E-01 -6.139534060E-03 6.224700345E-01
 8.362045884E-01 -4.855324980E-03 6.150459074E-01
 8.487893939E-01 -3.680977039E-03 6.090699533E-01
 8.609502912E-01 -2.605446847E-03 6.046143620E-01
 8.730127215E-01 -1.645643613E-03 5.994706857E-01
 8.851759434E-01 -7.922035875E-04 5.946427897E-01
 8.986365795E-01 2.464080126E-06 5.902854817E-01
 9.086997509E-01 5.005788407E-04 5.868326505E-01
 9.193590879E-01 8.957206737E-04 5.859575361E-01
 9.289240837E-01 1.169743831E-03 5.849290802E-01
 9.377582669E-01 1.346422243E-03 5.843903400E-01
 9.500887394E-01 1.467629569E-03 5.861216626E-01
 9.633823037E-01 1.445689122E-03 5.838139771E-01
 9.774768949E-01 1.248309040E-03 5.863770964E-01
 9.897505641E-01 9.272943134E-04 5.800087131E-01
 -5.000000000E-01 -1.000000000E+00 7.130220060E-01
 3.500000000E+00 -1.000000000E+00 7.302272853E-01
 3.500000000E+00 1.000000000E+00 7.278190428E-01
 -5.000000000E-01 1.000000000E+00 7.148772200E-01
 -5.000000000E-01 5.000000000E-01 7.025176978E-01
 -5.000000000E-01 2.752797990E-12 6.894515539E-01
 -5.000000000E-01 -5.000000000E-01 7.008334739E-01
 -9.421907698E-13 -1.000000000E+00 7.235267198E-01
 5.000000000E-01 -1.000000000E+00 7.438164898E-01
 1.000000000E+00 -1.000000000E+00 7.275997210E-01
 1.500000000E+00 -1.000000000E+00 7.190481018E-01
 2.000000000E+00 -1.000000000E+00 7.215793793E-01
 2.500000000E+00 -1.000000000E+00 7.252836536E-01
 3.000000000E+00 -1.000000000E+00 7.273792061E-01
 3.500000000E+00 -5.000000000E-01 7.331090954E-01
 3.500000000E+00 -2.752797990E-12 7.350305606E-01
 3.500000000E+00 5.000000000E-01 7.323350260E-01
 3.000000000E+00 1.000000000E+00 7.250498178E-01
 2.500000000E+00 1.000000000E+00 7.274125190E-01
 2.000000000E+00 1.000000000E+00 7.326111529E-01
 1.500000000E+00 1.000000000E+00 7.456527783E-01
 1.000000000E+00 1.000000000E+00 7.674005219E-01
 5.000000000E-01 1.000000000E+00 7.647077754E-01
 1.733724275E-12 1.000000000E+00 7.289539040E-01
 6.821625477E-01 -3.709386472E-02 7.083075530E-01
 7.831126965E-01 -2.246852447E-02 6.489280727E-01
 9.037980330E-01 -8.796254620E-03 5.949351835E-01
 7.064066006E-01 5.433332340E-02 8.856637136E-01
 2.770396112E-01 -6.741840981E-02 9.330511854E-01
 2.744440497E-01 6.926998041E-02 9.159038704E-01
 9.060207482E-01 3.210215243E-02 7.696644018E-01
 8.058346913E-01 4.638381428E-02 8.332138725E-01
 5.639900153E-01 -5.072692575E-02 7.977529928E-01
 6.130937072E-01 6.446129956E-02 9.483711254E-01
 3.975613073E-01 -7.262987709E-02 9.684856455E-01
 4.215030209E-01 7.555830524E-02 9.687472584E-01
 5.177538755E-01 6.848577625E-02 9.868214532E-01
 1.789383812E+00 -5.350695866E-01 7.276897755E-01
 1.800807036E+00 6.673219761E-01 7.428775454E-01
 3.031186664E+00 2.156788260E-01 7.384490631E-01
 7.307949487E-01 -5.691101104E-01 7.411202085E-01
 4.746074603E-01 -6.379718410E-02 9.000786446E-01
 7.669631039E-01 5.915160842E-01 8.141275543E-01
 2.734820863E+00 -5.327188121E-01 7.328445047E-01
 1.198506760E+00 6.163992672E-01 7.564102774E-01
 9.948177595E-01 3.557006158E-01 7.650693407E-01
 1.233336943E+00 -6.419477205E-01 7.158257899E-01
 1.518441156E+00 -2.665285116E-01 7.255410843E-01
 3.401512519E-01 6.196601818E-01 7.988175452E-01
 1.079902982E-01 4.836647630E-02 8.272304663E-01
 1.646682827E-01 5.864181894E-02 8.619828464E-01
 3.517888875E-01 6.951266598E-02 9.467501493E-01
 2.088501861E-01 -5.297823729E-01 7.649605570E-01
 8.691023519E-02 -4.314544090E-02 8.183251403E-01
 1.415202211E-01 -5.341785045E-02 8.531726616E-01
 1.933705880E-01 -5.903100877E-02 8.807658244E-01
 2.241084709E+00 -5.779411171E-01 7.305525968E-01
 2.026685593E+00 -2.000286347E-01 7.353501122E-01
 2.420077202E+00 -1.843899161E-01 7.373386302E-01
 2.184529473E+00 1.580085637E-01 7.416251355E-01
 1.777472735E+00 1.254710194E-01 7.389551650E-01
 -2.711207112E-01 -2.547362333E-01 6.842861401E-01
 -1.619887079E-01 -5.646146477E-01 7.132400356E-01
 -2.715979533E-01 2.406023927E-01 6.862648967E-01
 -7.739442803E-02 6.171618541E-01 7.250036268E-01
 4.381045037E-02 3.180557038E-01 7.434578959E-01
 5.178651212E-02 3.743589773E-02 7.728042546E-01
 2.242299469E+00 5.574337199E-01 7.394889298E-01
 2.746552996E+00 5.965553172E-01 7.356427479E-01
 -2.509799161E-01 -9.829982317E-04 6.638410353E-01
 -1.422701614E-01 -1.291415027E-01 6.558844379E-01
 3.381095057E-02 -2.951795331E-02 7.388059480E-01
 4.110473538E-02 -3.612065922E-01 7.360179677E-01
 2.778857184E-01 -3.171065326E-01 8.218879170E-01
 3.412899561E-01 -7.232136486E-02 9.685810593E-01
 -1.419016231E-01 1.309527089E-01 6.596796610E-01
 -1.196928708E-01 5.420838609E-04 6.167632180E-01
 -5.659862831E-02 -6.631359989E-02 5.996432728E-01
 1.686300033E-02 -2.013603040E-02 6.642061790E-01
 -5.029720178E-02 -1.503870930E-01 6.643369385E-01
 1.977100918E-03 -9.407457018E-02 6.668145770E-01
 2.809114450E-02 -1.987642387E-01 7.239188068E-01
 6.579980923E-02 -1.073904821E-01 7.654764839E-01
 1.148913877E-01 -1.569087941E-01 7.971442372E-01
 -1.547514381E-02 -5.285908822E-02 5.883894262E-01
 -5.371300030E-02 -3.954276330E-03 5.366894650E-01
 1.170615272E-01 -1.001381698E-01 8.254292522E-01
 1.116242084E-01 -4.939359740E-02 8.350753705E-01
 1.738571638E-01 -1.235834154E-01 8.511310234E-01
 2.427933583E-01 -6.723518794E-02 9.104440552E-01
 1.800934085E-01 -1.757064305E-01 8.329096152E-01
 2.341648269E-01 -1.458998480E-01 8.750556838E-01
 1.286068759E-01 -2.443116486E-01 7.843593763E-01
 2.203907012E-01 -1.015670427E-01 8.891847036E-01
 2.195300062E-01 -6.354453843E-02 8.969311684E-01
 2.634333238E-01 -1.067118848E-01 9.120230149E-01
 2.922412471E-01 -1.494393690E-01 8.991387036E-01
 3.055017031E-01 -1.066502746E-01 9.348058341E-01
 3.469100558E-01 -1.393795918E-01 9.234212702E-01
 3.193800475E-01 -6.572404705E-02 9.587273935E-01
 3.213118235E-01 -2.150251864E-01 8.736920399E-01
 3.933143296E-01 -1.930306975E-01 8.851545734E-01
 4.062540369E-01 -1.304913582E-01 9.218244746E-01
 4.572761636E-01 -1.780644065E-01 8.672552082E-01
 4.450688843E-01 -2.600872723E-01 8.427014622E-01
 5.361134297E-01 -2.217742637E-01 8.074557610E-01
 6.265333120E-01 -4.886592851E-02 7.473562940E-01
 5.999092268E-01 -4.767658659E-02 7.674045775E-01
 4.353301175E-01 -6.504639653E-02 9.457044925E-01
 5.237664435E-01 -3.379246827E-01 8.002166812E-01
 6.322657592E-01 -2.805232248E-01 7.583648852E-01
 6.520830061E-01 -1.763144678E-01 7.434340206E-01
 7.374764750E-01 -3.049294912E-02 6.761473019E-01
 7.323946065E-01 -2.242205943E-01 7.153233389E-01
 8.425281161E-01 -1.657206687E-02 6.190374846E-01
 7.563006358E-01 -1.425658709E-01 6.931453113E-01
 8.171268333E-01 -1.762149377E-01 6.812138255E-01
 9.694406457E-01 -9.170864953E-03 5.958230666E-01
 9.452774224E-01 -7.249298889E-03 5.913538285E-01
 8.255182169E-01 -1.033986972E-01 6.597911641E-01
 8.884581348E-01 -1.372221937E-01 6.555652124E-01
 9.009662599E-01 -2.296090868E-01 6.811542748E-01
 9.855886884E-01 -1.786090199E-01 6.675344406E-01
 9.795591504E-01 -2.914902479E-01 6.884919913E-01
 1.101772481E+00 -2.246804147E-01 6.904543910E-01
 1.091145962E+00 -9.910614145E-02 6.800291804E-01
 1.182544465E+00 -1.389467412E-01 7.009881579E-01
 1.175762546E+00 -1.663984999E-02 6.996162399E-01
 1.321945793E+00 -1.051275935E-01 7.143892824E-01
 1.271987400E+00 9.507297018E-02 7.219269400E-01
 8.990732201E-01 -8.057606542E-02 6.339478542E-01
 5.382086673E-01 -1.408288070E-01 8.138738347E-01
 5.070625684E-01 -6.354811148E-02 8.600136341E-01
 1.007832787E+00 -1.015185507E-01 6.543395698E-01
 6.785948996E-01 -1.069104195E-01 7.247734136E-01
 1.131134973E+00 1.111765269E-01 7.126383825E-01
 9.710750393E-01 2.163852892E-02 6.910675345E-01
 1.206161406E+00 3.030676947E-01 7.374114773E-01
 9.599930308E-01 1.724813821E-01 7.541793608E-01
 8.573569782E-01 3.978035228E-02 8.079002268E-01
 8.300854097E-01 3.932311924E-02 8.212029344E-01
 7.736772526E-01 -8.483908505E-02 6.741976267E-01
 1.255224117E+00 -3.048545738E-01 7.122212058E-01
 4.588491188E-01 -1.172261866E-01 8.952690815E-01
 1.087319295E+00 -3.390171093E-03 6.771474037E-01
 8.394941424E-01 -6.286531773E-02 6.412585753E-01
 1.445479638E+00 2.377336101E-01 7.378284728E-01
 3.683442612E-01 -1.044192340E-01 9.546594927E-01
 3.727069294E-01 -6.898699494E-02 9.757377428E-01
 1.055416553E+00 7.126939532E-02 6.958706723E-01
 8.798463701E-01 -3.658446799E-01 7.053773418E-01
 1.021505082E+00 -4.592631035E-01 7.078205695E-01
 3.109345360E+00 -2.612987915E-01 7.365315887E-01
 1.522534119E+00 -2.044382905E-02 7.289922491E-01
 3.407630698E-01 -9.769653728E-02 9.550417003E-01
 2.987334020E-01 -8.286825113E-02 9.427361222E-01
 1.577946284E-01 -8.668442502E-02 8.566817571E-01
 1.726478214E-01 -5.713221450E-02 8.699273555E-01
 2.419913292E-01 -2.233316886E-01 8.397935252E-01
 9.493897415E-01 -1.012225914E-01 6.402728024E-01
 9.355678831E-01 -5.861244140E-02 6.210406713E-01
 9.762807919E-01 -5.844531557E-02 6.271080983E-01
 9.013855256E-01 -4.134110961E-02 6.157149742E-01
 8.810454184E-01 -1.368779476E-02 6.034773803E-01
 1.031192931E+00 -4.941188490E-02 6.480594028E-01
 9.294676709E-01 -2.855285514E-02 6.053261799E-01
 9.225947139E-01 -1.018177490E-02 5.931009397E-01
 -2.609556414E-02 -2.587361809E-02 5.196671257E-01
 4.761660122E-03 -1.195243585E-02 5.268695244E-01
 4.255188126E-01 -1.006955866E-01 9.384486301E-01
 3.982651542E-01 -9.616037174E-02 9.561112306E-01
 3.302016160E-01 -6.683932712E-02 9.646973509E-01
 3.597985551E-01 -8.035906990E-02 9.692395055E-01
 3.971321477E-01 -3.685057011E-01 8.174266499E-01
 4.889322381E-01 -4.950737814E-01 7.823261154E-01
 3.793050979E-02 -7.389336698E-02 7.314051850E-01
 6.118645298E-02 -3.916857619E-02 7.908275726E-01
 1.305758048E-02 -5.153311856E-02 6.617681682E-01
 4.106527782E-01 -6.624209951E-02 9.658260445E-01
 9.128858499E-01 -7.592295066E-03 5.919315495E-01
 9.106110702E-01 -1.959119551E-02 6.004151243E-01
 8.937730862E-01 -2.093269319E-02 6.047209615E-01
 8.763264259E-01 -2.937466727E-02 6.149829037E-01
 8.646851342E-01 -1.898692178E-02 6.107460264E-01
 2.929990539E-01 -6.692650686E-02 9.409268259E-01
 8.510267909E-01 -3.275816745E-02 6.248083199E-01
 8.201616333E-01 -1.876175268E-02 6.303721673E-01
 8.319858170E-01 -2.805840363E-02 6.296687552E-01
 8.118026712E-01 -3.137100137E-02 6.402794193E-01
 7.973930422E-01 -2.085809643E-02 6.416755568E-01
 7.935580588E-01 -3.351480988E-02 6.495134840E-01
 7.605488383E-01 -2.611028395E-02 6.622225108E-01
 8.033193412E-01 -5.651672319E-02 6.526031744E-01
 7.740261892E-01 -4.018537466E-02 6.612104487E-01
 7.511420451E-01 -3.876936874E-02 6.713798076E-01
 7.317072590E-01 -5.026319362E-02 6.848168131E-01
 7.101297824E-01 -3.412299731E-02 6.911794610E-01
 -4.571735399E-03 -3.382219330E-02 5.608968737E-01
 4.213853753E-01 -6.455743854E-02 9.588880032E-01
 7.231782537E-01 -3.168543545E-02 6.832699831E-01
 3.532899869E-01 -6.653479593E-02 9.749271232E-01
 3.058498606E-01 -6.690486186E-02 9.506417601E-01
 8.309457878E-01 -1.487741644E-02 6.231916424E-01
 7.480883669E-01 -2.525278729E-02 6.688892822E-01
 7.717364260E-01 -2.266727217E-02 6.548323165E-01
 4.465121239E-01 -6.305024405E-02 9.322371972E-01
 4.428930094E-01 -8.021543998E-02 9.298914221E-01
 4.745334634E-01 -8.472727941E-02 8.947798768E-01
 4.996018839E-01 -1.131319550E-01 8.536560632E-01
 4.986303740E-01 -8.462870015E-02 8.668414256E-01
 4.891229161E-01 -6.896877149E-02 8.811362292E-01
 5.245940261E-01 -8.075766290E-02 8.404388642E-01
 5.702969424E-01 -1.011359364E-01 7.931072451E-01
 5.368459399E-01 -5.966767101E-02 8.260412454E-01
 5.865884183E-01 -1.589481186E-01 7.789632181E-01
 6.232452225E-01 -1.072147565E-01 7.565000117E-01
 6.537123829E-01 -7.769852092E-02 7.339744857E-01
 6.558429824E-01 -4.117824807E-02 7.262630767E-01
 6.876884756E-01 -7.330028835E-02 7.128610311E-01
 5.967326400E-01 -7.876197446E-02 7.741372573E-01
 6.248333843E-01 -7.229551792E-02 7.527300642E-01
 5.901037808E-01 -5.913790947E-02 7.784434331E-01
 6.408417163E-01 -4.177957806E-02 7.357325088E-01
 5.225810983E-01 -5.908478784E-02 8.416522020E-01
 9.353386401E-01 -1.099239583E-02 5.931197994E-01
 9.568781900E-01 -1.013752013E-02 5.926762077E-01
 9.474318090E-01 -2.087250572E-02 6.001477735E-01
 8.085608476E-01 -1.740169921E-02 6.353647200E-01
 3.663421371E-01 -2.719617336E-01 8.527198617E-01
 3.626979429E-01 -6.600918792E-02 9.766428772E-01
 2.563455973E+00 2.044180573E-01 7.409069657E-01
 9.031220254E-02 -7.925312031E-02 8.128540375E-01
 6.743970080E-02 -7.023422849E-02 7.907872117E-01
 4.519081125E-02 -5.160352342E-02 7.574469923E-01
 2.412452893E-02 -3.626371823E-02 7.111726576E-01
 2.560395090E-02 -2.517978018E-02 7.083430163E-01
 9.282937875E-02 -5.761497646E-02 8.201092720E-01
 6.125481633E-01 -4.507795524E-02 7.566024699E-01
 9.687023316E-01 -2.622883338E-02 6.061878307E-01
 9.965635363E-01 -2.975802697E-02 6.168056882E-01
 7.376153397E-01 -3.570940063E-01 7.277856945E-01
 3.226922525E-01 -8.079805146E-02 9.551700707E-01
 1.877804383E-01 -9.108922588E-02 8.733999007E-01
 1.575911110E-01 -6.411703277E-02 8.618780089E-01
 1.357030167E-01 -7.095065535E-02 8.481093781E-01
 1.123533116E-01 -6.811458972E-02 8.340009982E-01
 5.886528350E-01 -4.612082360E-02 7.762252539E-01
 5.768720013E-01 -5.051624422E-02 7.866445703E-01
 1.044667125E+00 -8.337270287E-03 6.514033083E-01
 1.017796978E+00 -1.606315704E-02 6.268590319E-01
 1.028276010E+00 2.670603649E-02 6.601499880E-01
 9.975158410E-01 6.755589930E-02 7.046240100E-01
 5.483265765E-01 -7.827608583E-02 8.147572455E-01
 3.804685336E-01 -8.132205320E-02 9.684815515E-01
 1.747565627E+00 -1.862507713E-01 7.328134843E-01
 9.844086508E-01 -1.335134216E-02 5.895816307E-01
 7.238111278E-01 -9.109967259E-02 6.976860132E-01
 7.084645385E-01 -5.521568599E-02 6.979587049E-01
 6.727451969E-01 -5.393544208E-02 7.198942668E-01
 6.966384477E-01 -3.683870520E-02 6.999819687E-01
 6.899079537E-01 -5.089657406E-02 7.069138127E-01
 5.381192760E-01 -1.040008481E-01 8.215110781E-01
 -7.604387983E-03 -1.846177408E-02 4.652904906E-01
 -2.331472203E-03 -9.752232802E-03 3.858530292E-01
 -1.174407101E-02 -1.454978230E-03 3.052585941E-01
 2.792476261E-01 -8.648345622E-02 9.308745847E-01
 2.615090961E-01 -7.352099014E-02 9.213424350E-01
 2.442501460E-01 -8.504978415E-02 9.090780067E-01
 9.570753496E-03 -3.046584108E-02 6.328737769E-01
 1.055328010E-02 -1.655855228E-02 6.080235340E-01
 1.728381722E-03 -2.286273450E-02 5.464675562E-01
 2.788385830E-03 -1.535908096E-02 5.198721899E-01
 6.695869120E-01 -3.677915877E-02 7.157512413E-01
 8.924533193E-01 -9.661318041E-03 5.975149680E-01
 8.135898819E-01 -2.705966610E-01 7.009502817E-01
 9.626040583E-01 5.551136539E-01 7.813269135E-01
 7.365179302E-01 3.154663085E-01 8.379265635E-01
 8.312793638E-01 4.223375811E-01 8.049875895E-01
 5.567993405E-01 4.517258825E-01 8.478711302E-01
 5.431799229E-01 2.512771544E-01 9.096685198E-01
 5.639681551E-01 6.751306081E-02 9.723920092E-01
 5.517287878E-01 6.797768600E-01 8.147683820E-01
 3.248565367E-01 3.566034823E-01 8.433756001E-01
 1.573914131E-01 4.929316297E-01 7.717028100E-01
 1.905010505E-01 2.583460745E-01 8.195326448E-01
 2.263415670E-01 6.352672611E-02 8.927411865E-01
 3.354691666E-01 2.124225187E-01 8.925208283E-01
 6.170598857E-02 1.786231349E-01 7.561488526E-01
 2.607787847E-01 1.806990293E-01 8.779772660E-01
 1.405447413E-01 1.665500127E-01 8.181529079E-01
 2.053962356E-01 1.292501074E-01 8.664274659E-01
 2.577674871E-01 1.120849429E-01 9.017245163E-01
 3.152144831E-01 6.698272512E-02 9.307842838E-01
 3.092575162E-01 1.372774914E-01 9.132800869E-01
 3.875359232E-01 1.607408150E-01 9.292422995E-01
 4.639994534E-01 7.627917357E-02 9.777054327E-01
 3.877866972E-01 7.099776389E-02 9.597730258E-01
 2.501447340E-01 6.651955021E-02 9.039509931E-01
 4.311167254E-01 2.292612906E-01 9.096881710E-01
 4.721751884E-01 1.614873383E-01 9.466560295E-01
 5.705967008E-01 1.648796073E-01 9.389968983E-01
 6.569617280E-01 5.784489267E-02 9.164826052E-01
 4.385998034E-01 1.273015416E-01 9.556413468E-01
 3.547933425E-01 1.186277950E-01 9.367507467E-01
 1.600591921E-01 1.043147825E-01 8.520411179E-01
 1.028466257E-01 1.167162185E-01 8.049186295E-01
 2.593770785E-02 1.118747147E-01 7.176742267E-01
 1.953111445E-02 2.096836846E-02 6.961483980E-01
 6.508225134E-02 8.316749578E-02 7.751872402E-01
 8.439799112E-02 4.648163702E-02 8.093573859E-01
 1.277839721E-01 8.400054935E-02 8.374128907E-01
 1.402154620E-01 5.410831242E-02 8.479422743E-01
 -2.795816693E-02 1.695228221E-01 6.871792185E-01
 1.950564732E-01 8.619390887E-02 8.781093594E-01
 1.881003779E-01 6.242230965E-02 8.750159535E-01
 4.843147028E-01 3.454755490E-01 8.731666292E-01
 2.970944482E-01 1.035857929E-01 9.213141152E-01
 3.240181040E-01 9.915370594E-02 9.330974299E-01
 3.048166795E-01 6.640212787E-02 9.262998991E-01
 3.274615225E-01 7.240918896E-02 9.366768679E-01
 2.029954221E-01 6.407358347E-02 8.821739772E-01
 1.726678436E-01 7.374855362E-02 8.687452416E-01
 1.486701128E-01 6.995209195E-02 8.549435407E-01
 1.216504992E-01 6.131187382E-02 8.375462512E-01
 9.698582222E-02 7.766927684E-02 8.169416224E-01
 3.403983940E-01 6.858116788E-02 9.426787644E-01
 3.438679016E-01 8.558712327E-02 9.441302250E-01
 3.654352560E-01 8.632334618E-02 9.507507865E-01
 3.912575931E-01 1.130415009E-01 9.512030681E-01
 3.080377502E-01 8.170978932E-02 9.282744167E-01
 9.477332089E-02 5.886831073E-02 8.208727322E-01
 2.149080203E-01 6.104174797E-02 8.874931377E-01
 2.160785441E-01 7.572501421E-02 8.890024686E-01
 2.377323806E-01 8.065255681E-02 8.995167752E-01
 4.184022820E-01 9.747740774E-02 9.641901920E-01
 4.480247736E-01 9.411854337E-02 9.718972317E-01
 4.064930281E-01 8.178810874E-02 9.639479711E-01
 4.389914978E-01 7.779429603E-02 9.726425368E-01
 4.750470233E-01 9.754203646E-02 9.737805574E-01
 4.932063505E-01 6.953884548E-02 9.847095772E-01
 5.236236469E-01 1.347167819E-01 9.609332809E-01
 5.083502004E-01 1.033171037E-01 9.756983748E-01
 4.814061298E-01 7.496093885E-02 9.805846915E-01
 5.212862471E-01 1.840844159E-01 9.381703088E-01
 5.667373828E-01 1.146277349E-01 9.599289538E-01
 6.170572128E-01 1.334519522E-01 9.297291035E-01
 6.214612176E-01 2.081695068E-01 9.050307126E-01
 6.724059906E-01 1.604929984E-01 8.928592328E-01
 7.550367231E-01 4.994258003E-02 8.602393104E-01
 6.644832958E-01 1.117208826E-01 9.083850194E-01
 7.133725423E-01 1.146569971E-01 8.793414833E-01
 7.335768510E-01 1.729442725E-01 8.592639991E-01
 7.743940859E-01 1.203793119E-01 8.474983737E-01
 8.047108803E-01 1.858935262E-01 8.258190298E-01
 8.374576859E-01 1.295327686E-01 8.152749651E-01
 5.376755787E-01 9.647055278E-02 9.753356349E-01
 6.905321651E-01 2.325839249E-01 8.685576905E-01
 8.145379669E-01 9.250074864E-02 8.308555068E-01
 8.583667659E-01 8.272547748E-02 8.072506894E-01
 8.971400516E-01 1.234346904E-01 7.837265281E-01
 9.058473655E-01 7.566567782E-02 7.767073157E-01
 8.825825701E-01 3.651703296E-02 7.923428241E-01
 8.768215912E-01 1.914237747E-01 7.911141517E-01
 6.871450081E-01 8.924191498E-02 8.976397808E-01
 6.814226116E-01 5.788052692E-02 9.017595295E-01
 5.397064729E-01 7.376200286E-02 9.807862837E-01
 5.992521094E-01 1.002435413E-01 9.511459103E-01
 5.893841118E-01 6.714759050E-02 9.621330001E-01
 6.305829148E-01 9.395486965E-02 9.335456294E-01
 6.345119846E-01 6.231589288E-02 9.333490166E-01
 8.419143477E-01 2.849817703E-01 8.019496959E-01
 7.456526461E-01 8.927265305E-02 8.651231210E-01
 7.281900647E-01 5.306368013E-02 8.727089379E-01
 9.448470872E-01 1.038375249E-01 7.463862141E-01
 9.493553531E-01 6.267799512E-02 7.376951361E-01
 9.314300445E-01 2.658065374E-02 7.417910828E-01
 7.398343229E-01 4.996728920E-02 8.668613793E-01
 7.373035825E-01 6.516700275E-02 8.693334033E-01
 5.519243621E-01 6.746089350E-02 9.767232606E-01
 7.692802885E-01 4.966882549E-02 8.514024180E-01
 7.614547387E-01 6.694308579E-02 8.572842856E-01
 7.822448694E-01 6.070077052E-02 8.466545972E-01
 7.803381904E-01 4.671539331E-02 8.454356368E-01
 5.287708721E-01 6.822384861E-02 9.860135102E-01
 7.931256006E-01 4.828459625E-02 8.397375669E-01
 7.167258859E-01 6.361801785E-02 8.801630043E-01
 7.169311777E-01 5.150318686E-02 8.786207472E-01
 5.563320904E-01 8.372005514E-02 9.737610503E-01
 5.783276171E-01 8.253294296E-02 9.645373929E-01
 6.041248822E-01 7.890218223E-02 9.521411960E-01
 5.219555232E-01 8.394651440E-02 9.830114933E-01
 6.591445767E-01 8.545401409E-02 9.154605622E-01
 6.960272997E-01 6.823590181E-02 8.928836454E-01
 8.314392730E-01 6.926167093E-02 8.241727528E-01
 8.736349784E-01 5.319963396E-02 7.982409604E-01
 7.576153223E-02 6.073603476E-02 8.030187125E-01
 2.998413843E-02 6.551042024E-02 7.232525814E-01
 -9.315094753E-03 7.437872082E-02 6.525007142E-01
 3.258750444E-03 1.085644727E-02 5.655110969E-01
 3.450140134E-02 3.241365443E-02 7.381455041E-01
 8.365142747E-03 4.902767735E-02 6.563602027E-01
 -1.889394079E-02 3.332632792E-02 5.498092367E-01
 7.079580321E-02 4.550859063E-02 7.976440567E-01
 5.652383291E-02 5.377472724E-02 7.793338191E-01
 3.981829702E-02 4.426310938E-02 7.534924033E-01
 7.799067059E-01 8.374607107E-02 8.482993561E-01
 2.599634190E-01 8.158768244E-02 9.102399936E-01
 8.039480197E-01 6.503055069E-02 8.359463907E-01
 8.456929430E-01 5.376099016E-02 8.153226589E-01