TITLE     = "Visualization of the solution"
VARIABLES = "x"
"y"
"Mach"
ZONE T="Zone"
 STRANDID=0, SOLUTIONTIME=0
 Nodes=685, Elements=1155, ZONETYPE=FEQuadrilateral
 DATAPACKING=POINT
 DT=(DOUBLE DOUBLE DOUBLE )
 9.998494387E-01 5.111120990E-04 5.276411406E-01
 9.851767421E-01 3.479547566E-03 6.236303502E-01
 9.719367027E-01 6.197355688E-03 6.455971269E-01
 9.553030133E-01 9.588973597E-03 6.690452832E-01
 9.408419132E-01 1.257797983E-02 6.884057924E-01
 9.273532033E-01 1.521132886E-02 7.014443470E-01
 9.161604643E-01 1.751051284E-02 7.179771430E-01
 9.047895074E-01 1.980617829E-02 7.313640585E-01
 8.929411173E-01 2.208271809E-02 7.403609975E-01
 8.810076714E-01 2.439849079E-02 7.543281190E-01
 8.692349792E-01 2.668569796E-02 7.687406969E-01
 8.567898273E-01 2.896570787E-02 7.798666396E-01
 8.446320891E-01 3.118420579E-02 7.885760882E-01
 8.331205249E-01 3.318035230E-02 7.974941051E-01
 8.216957450E-01 3.520657495E-02 8.067556475E-01
 8.090809584E-01 3.730899468E-02 8.148492059E-01
 7.964714766E-01 3.941361234E-02 8.232142451E-01
 7.845380306E-01 4.135490954E-02 8.339594878E-01
 7.724457383E-01 4.328165203E-02 8.428075142E-01
 7.611812353E-01 4.502920434E-02 8.513034110E-01
 7.485964894E-01 4.695275053E-02 8.609782400E-01
 7.352188826E-01 4.893305525E-02 8.718698361E-01
 7.247275114E-01 5.046172068E-02 8.821900041E-01
 7.138177156E-01 5.200988799E-02 8.932276045E-01
 7.022764683E-01 5.360696465E-02 9.046620461E-01
 6.893797517E-01 5.531723425E-02 9.162801830E-01
 6.770305037E-01 5.689767748E-02 9.287917785E-01
 6.664585471E-01 5.820757523E-02 9.411944027E-01
 6.550328732E-01 5.956420675E-02 9.547156389E-01
 6.439954042E-01 6.084544212E-02 9.683301803E-01
 6.322537661E-01 6.211070716E-02 9.812605002E-01
 6.208866239E-01 6.330332160E-02 9.946056283E-01
 6.105614901E-01 6.430625916E-02 1.007982578E+00
 5.988820791E-01 6.542078406E-02 1.019572492E+00
 5.872014761E-01 6.641508639E-02 1.028554244E+00
 5.737866759E-01 6.749133766E-02 1.039894564E+00
 5.612335205E-01 6.844990700E-02 1.046438834E+00
 5.485464334E-01 6.927674264E-02 1.046326893E+00
 5.374131799E-01 6.993228942E-02 1.046318695E+00
 5.255063176E-01 7.058594376E-02 1.048893567E+00
 5.130307078E-01 7.119835913E-02 1.046576199E+00
 5.019726157E-01 7.162240148E-02 1.041639772E+00
 4.889628589E-01 7.210212946E-02 1.035958484E+00
 4.756236374E-01 7.245115191E-02 1.028877211E+00
 4.617849588E-01 7.274521887E-02 1.024098754E+00
 4.481016099E-01 7.295835018E-02 1.020006891E+00
 4.352363944E-01 7.305292785E-02 1.014937141E+00
 4.224264324E-01 7.308951765E-02 1.008103875E+00
 4.096159339E-01 7.300993055E-02 1.000568314E+00
 3.966216147E-01 7.286923379E-02 9.954775689E-01
 3.846526742E-01 7.268086821E-02 9.897270107E-01
 3.728197515E-01 7.240625471E-02 9.820305982E-01
 3.592798412E-01 7.202958316E-02 9.764704178E-01
 3.464494348E-01 7.160090655E-02 9.716975336E-01
 3.331776857E-01 7.106383145E-02 9.659779235E-01
 3.226666749E-01 7.057913393E-02 9.598261646E-01
 3.100025654E-01 6.992554665E-02 9.534463507E-01
 2.971843481E-01 6.917500496E-02 9.466606636E-01
 2.833821476E-01 6.828154624E-02 9.406592182E-01
 2.711425722E-01 6.739928573E-02 9.343730414E-01
 2.591987848E-01 6.646385789E-02 9.288612311E-01
 2.469006330E-01 6.543806195E-02 9.233764268E-01
 2.344501466E-01 6.428992003E-02 9.169355943E-01
 2.222536057E-01 6.308962405E-02 9.110044002E-01
 2.103153914E-01 6.182164326E-02 9.030298413E-01
 1.985186487E-01 6.047236174E-02 8.944120996E-01
 1.861378402E-01 5.896225199E-02 8.859560352E-01
 1.744073778E-01 5.743996799E-02 8.781818473E-01
 1.627973616E-01 5.581991747E-02 8.710429728E-01
 1.511743516E-01 5.409377068E-02 8.638462643E-01
 1.404002011E-01 5.240419507E-02 8.539513675E-01
 1.291703284E-01 5.050328001E-02 8.418070718E-01
 1.180401295E-01 4.850234464E-02 8.304758974E-01
 1.075062081E-01 4.648861662E-02 8.187678330E-01
 9.771963954E-02 4.449588805E-02 8.063190853E-01
 8.711306006E-02 4.218623042E-02 7.890551913E-01
 7.573048770E-02 3.950916603E-02 7.719225936E-01
 6.578287482E-02 3.698283434E-02 7.537652142E-01
 5.602455512E-02 3.428837657E-02 7.343040474E-01
 4.697518423E-02 3.156334907E-02 7.100519422E-01
 3.910886869E-02 2.897589840E-02 6.842549102E-01
 3.220237792E-02 2.649166249E-02 6.626750682E-01
 2.627803572E-02 2.415003628E-02 6.427126937E-01
 2.190043777E-02 2.226551622E-02 6.241331890E-01
 1.766356453E-02 2.027821541E-02 6.047756632E-01
 1.441320777E-02 1.860565878E-02 5.863884394E-01
 1.154715195E-02 1.698535867E-02 5.648503706E-01
 9.416067973E-03 1.567800343E-02 5.480687986E-01
 7.518466562E-03 1.439840067E-02 5.268338690E-01
 5.795176141E-03 1.312960126E-02 4.958069439E-01
 3.599544289E-03 1.128855161E-02 4.676554548E-01
 1.766763511E-03 9.441299364E-03 4.349391989E-01
 2.562119334E-04 7.520132232E-03 3.518157788E-01
 -1.201091567E-03 4.805362318E-03 3.048630487E-01
 -1.781086554E-03 2.765468089E-03 1.656948444E-01
 -1.942269853E-03 1.126437215E-03 1.140242098E-01
 -1.805937616E-03 -7.781698951E-04 8.703918434E-02
 -1.287022606E-03 -2.815194894E-03 1.702328878E-01
 -1.892576256E-04 -5.259056576E-03 1.732701168E-01
 1.468979055E-03 -7.794733159E-03 3.415375983E-01
 3.713064129E-03 -1.040683128E-02 4.792592994E-01
 5.696585402E-03 -1.232175529E-02 4.928329687E-01
 7.995734923E-03 -1.426247880E-02 5.718083875E-01
 9.764255024E-03 -1.560536493E-02 5.941431822E-01
 1.196204778E-02 -1.714465395E-02 6.057149887E-01
 1.446306426E-02 -1.874492876E-02 6.250531752E-01
 1.782026887E-02 -2.070826478E-02 6.342301984E-01
 2.095953561E-02 -2.238777280E-02 6.392913477E-01
 2.505114861E-02 -2.438861504E-02 6.493618540E-01
 3.049963340E-02 -2.680107951E-02 6.677233256E-01
 3.630933166E-02 -2.912540920E-02 6.905013118E-01
 4.330138490E-02 -3.166161850E-02 7.088633640E-01
 5.082458258E-02 -3.413109109E-02 7.244984409E-01
 5.973531306E-02 -3.678530827E-02 7.470318281E-01
 6.841854006E-02 -3.914190084E-02 7.678347412E-01
 7.871069014E-02 -4.170507938E-02 7.840182161E-01
 8.845253289E-02 -4.393113777E-02 8.007680457E-01
 9.895535558E-02 -4.615208134E-02 8.160580112E-01
 1.100413501E-01 -4.831776395E-02 8.262241136E-01
 1.214797646E-01 -5.040111393E-02 8.352208711E-01
 1.331573576E-01 -5.237695947E-02 8.459583361E-01
 1.433386356E-01 -5.398749188E-02 8.542177526E-01
 1.546315253E-01 -5.565614253E-02 8.618044907E-01
 1.664813459E-01 -5.729698017E-02 8.705864752E-01
 1.779347956E-01 -5.877346918E-02 8.795813296E-01
 1.895788312E-01 -6.016899645E-02 8.877344406E-01
 2.000826895E-01 -6.134533137E-02 8.971466997E-01
 2.112535834E-01 -6.251975894E-02 9.067899218E-01
 2.233491838E-01 -6.367155910E-02 9.161818124E-01
 2.355228961E-01 -6.474106014E-02 9.263717555E-01
 2.472686023E-01 -6.565721333E-02 9.360235825E-01
 2.593445778E-01 -6.651289761E-02 9.468036940E-01
 2.702370584E-01 -6.719451398E-02 9.568632710E-01
 2.826525271E-01 -6.786392629E-02 9.660452040E-01
 2.946105599E-01 -6.841254234E-02 9.760370096E-01
 3.076211214E-01 -6.886704266E-02 9.845729848E-01
 3.192431629E-01 -6.917630136E-02 9.925709110E-01
 3.320701420E-01 -6.938359141E-02 9.993311442E-01
 3.427159190E-01 -6.944905967E-02 1.003778208E+00
 3.544041514E-01 -6.941664219E-02 1.007317275E+00
 3.653608263E-01 -6.928148121E-02 1.009164168E+00
 3.761288226E-01 -6.903856993E-02 1.007868991E+00
 3.880091608E-01 -6.867518276E-02 1.002196486E+00
 4.012614489E-01 -6.810864806E-02 9.929630798E-01
 4.136858284E-01 -6.744739413E-02 9.820473554E-01
 4.265351593E-01 -6.664129347E-02 9.691148417E-01
 4.390965402E-01 -6.568676978E-02 9.525876573E-01
 4.518737197E-01 -6.461089849E-02 9.337412462E-01
 4.640541375E-01 -6.344678998E-02 9.150341998E-01
 4.764105380E-01 -6.218767539E-02 8.975035168E-01
 4.885729253E-01 -6.082239002E-02 8.788968185E-01
 5.013654828E-01 -5.932337791E-02 8.599287951E-01
 5.151782036E-01 -5.759136751E-02 8.407465451E-01
 5.284721851E-01 -5.581984669E-02 8.206267196E-01
 5.411581993E-01 -5.408817902E-02 8.031680091E-01
 5.544190407E-01 -5.220717564E-02 7.872768904E-01
 5.676470399E-01 -5.024662614E-02 7.705587923E-01
 5.807527900E-01 -4.828834161E-02 7.553107695E-01
 5.934969187E-01 -4.635734856E-02 7.422469743E-01
 6.064080000E-01 -4.437539354E-02 7.294119524E-01
 6.202040315E-01 -4.223181680E-02 7.169913734E-01
 6.342239380E-01 -4.004389420E-02 7.052040854E-01
 6.484313011E-01 -3.781541437E-02 6.950646065E-01
 6.613100171E-01 -3.579131886E-02 6.852768665E-01
 6.746592522E-01 -3.365572169E-02 6.747348740E-01
 6.869906187E-01 -3.170683235E-02 6.646667107E-01
 6.990769506E-01 -2.979495749E-02 6.556541854E-01
 7.139026523E-01 -2.745381743E-02 6.461372547E-01
 7.269757986E-01 -2.540529706E-02 6.375227727E-01
 7.385004163E-01 -2.363803424E-02 6.298767102E-01
 7.516663671E-01 -2.158104070E-02 6.209865249E-01
 7.646240592E-01 -1.966532320E-02 6.132050876E-01
 7.778336406E-01 -1.766595431E-02 6.043100569E-01
 7.901996374E-01 -1.586767659E-02 5.963061594E-01
 8.032020926E-01 -1.401439961E-02 5.897613397E-01
 8.138889670E-01 -1.247062068E-02 5.803038699E-01
 8.253620863E-01 -1.093504764E-02 5.723480333E-01
 8.374722600E-01 -9.304652922E-03 5.649331068E-01
 8.499080539E-01 -7.748687640E-03 5.570851521E-01
 8.623030782E-01 -6.297625136E-03 5.494699217E-01
 8.730881214E-01 -5.094450433E-03 5.421355174E-01
 8.842890263E-01 -3.948041238E-03 5.362082276E-01
 8.968963027E-01 -2.797632478E-03 5.318469259E-01
 9.067124724E-01 -1.977879088E-03 5.264159384E-01
 9.173934460E-01 -1.234948169E-03 5.235912416E-01
 9.271094203E-01 -6.570941769E-04 5.203640492E-01
 9.363296032E-01 -2.026402071E-04 5.183557742E-01
 9.481860399E-01 2.382814273E-04 5.170781663E-01
 9.617168903E-01 5.618670257E-04 5.178031258E-01
 9.764229059E-01 7.054938469E-04 5.096500072E-01
 9.893611670E-01 6.545677315E-04 5.314316710E-01
 -5.000000000E-01 -1.000000000E+00 7.094389689E-01
 3.500000000E+00 -1.000000000E+00 7.316537262E-01
 3.500000000E+00 1.000000000E+00 7.281214551E-01
 -5.000000000E-01 1.000000000E+00 7.069755041E-01
 -5.000000000E-01 5.000000000E-01 6.921982393E-01
 -5.000000000E-01 2.752797990E-12 6.791190471E-01
 -5.000000000E-01 -5.000000000E-01 6.914441419E-01
 -9.421907698E-13 -1.000000000E+00 7.226964068E-01
 5.000000000E-01 -1.000000000E+00 7.467280048E-01
 1.000000000E+00 -1.000000000E+00 7.338145831E-01
 1.500000000E+00 -1.000000000E+00 7.193764174E-01
 2.000000000E+00 -1.000000000E+00 7.224392611E-01
 2.500000000E+00 -1.000000000E+00 7.273509775E-01
 3.000000000E+00 -1.000000000E+00 7.295157022E-01
 3.500000000E+00 -5.000000000E-01 7.343555762E-01
 3.500000000E+00 -2.752797990E-12 7.362986165E-01
 3.500000000E+00 5.000000000E-01 7.331772156E-01
 3.000000000E+00 1.000000000E+00 7.254200204E-01
 2.500000000E+00 1.000000000E+00 7.279628982E-01
 2.000000000E+00 1.000000000E+00 7.330433184E-01
 1.500000000E+00 1.000000000E+00 7.465214048E-01
 1.000000000E+00 1.000000000E+00 7.779686124E-01
 5.000000000E-01 1.000000000E+00 7.784401323E-01
 1.733724275E-12 1.000000000E+00 7.278099070E-01
 6.684158029E-01 -4.995236249E-02 6.970479518E-01
 7.699940158E-01 -3.200433741E-02 6.239317209E-01
 8.904781903E-01 -1.380079329E-02 5.505863286E-01
 5.760099966E-01 -6.363515129E-02 7.750567290E-01
 7.095749466E-01 6.553711756E-02 9.042230853E-01
 2.770944180E-01 8.003584032E-02 9.429813572E-01
 3.672245917E-01 8.448840068E-02 9.848459609E-01
 9.121117310E-01 3.290582367E-02 7.338219775E-01
 2.875436823E-01 -8.291759060E-02 9.713539489E-01
 8.187338483E-01 5.129522855E-02 8.176349750E-01
 5.825190336E-01 8.035055422E-02 1.034949358E+00
 4.090834074E-01 -7.994805770E-02 9.857620681E-01
 4.828109636E-01 8.505506968E-02 1.034633568E+00
 1.836122394E+00 -6.022597984E-01 7.292093502E-01
 1.783286850E+00 6.789448112E-01 7.455727062E-01
 3.031180303E+00 2.156819063E-01 7.394770788E-01
 7.636017931E-01 -6.072901150E-01 7.437261445E-01
 4.829615487E-01 -7.295255245E-02 8.937722958E-01
 3.333359704E-01 -6.179549394E-01 7.815060310E-01
 1.257817479E-01 -6.249921675E-02 8.403665012E-01
 1.858274689E-01 -7.007905098E-02 8.901875969E-01
 7.882984311E-01 5.338441338E-01 8.347199792E-01
 2.869736796E-01 6.836906321E-01 7.896049440E-01
 1.207492328E-01 6.274849485E-02 8.474247189E-01
 1.801692209E-01 6.835171606E-02 8.898219374E-01
 2.734835560E+00 -5.327038688E-01 7.348049743E-01
 1.191468167E+00 6.812378840E-01 7.675656261E-01
 9.664882078E-01 3.267133088E-01 7.642180278E-01
 1.255281482E+00 -6.146278325E-01 7.187415881E-01
 1.536352153E+00 -2.495614232E-01 7.283938397E-01
 2.248887347E+00 -5.891196687E-01 7.325830226E-01
 1.982091435E+00 -2.150884967E-01 7.348924532E-01
 2.413061150E+00 -1.872087657E-01 7.384318558E-01
 2.184577032E+00 1.581264251E-01 7.415591869E-01
 1.785091576E+00 1.301222672E-01 7.380208741E-01
 -2.220509234E-01 -2.274457980E-01 6.676645056E-01
 -1.485412201E-01 -6.314218026E-01 7.107610691E-01
 1.346287427E-01 -3.538663009E-01 7.848282969E-01
 7.043087958E-02 -5.374697116E-02 7.688764432E-01
 -2.718843178E-01 2.375616097E-01 6.722196473E-01
 -6.697703352E-02 6.047390480E-01 7.281061590E-01
 1.081262478E-01 3.655398264E-01 7.720792159E-01
 6.884489552E-02 4.717019722E-02 7.722569834E-01
 2.239794855E+00 5.591137301E-01 7.413592505E-01
 2.746132426E+00 5.968366578E-01 7.369693465E-01
 -2.416425079E-01 2.772064395E-03 6.442672555E-01
 -1.205136021E-01 1.428891122E-01 6.417299321E-01
 -6.823651386E-02 3.236651713E-01 7.019433748E-01
 9.540560547E-03 1.864045717E-01 7.051369194E-01
 3.448320047E-02 3.395695020E-02 6.844965624E-01
 1.591529350E-01 2.215754838E-01 8.325705460E-01
 2.267903853E-01 7.699966837E-02 9.194589920E-01
 2.017307048E-01 7.414593634E-02 9.054261240E-01
 -3.675499875E-02 9.975417297E-02 6.243319712E-01
 -1.086189480E-01 2.547387487E-02 5.855040932E-01
 3.650513715E-02 1.142398972E-01 7.233761678E-01
 3.109353531E+00 -2.612855430E-01 7.377912091E-01
 -5.016903680E-02 4.082859909E-02 5.551518450E-01
 -6.788903959E-03 6.194298123E-02 5.988644839E-01
 9.416137851E-03 1.901336016E-02 5.559142307E-01
 1.722295250E-02 2.499415078E-02 6.059847321E-01
 3.266370768E-02 7.251582154E-02 7.159295224E-01
 4.854158423E-02 4.269451717E-02 7.278329022E-01
 -1.264251186E-02 2.064060631E-02 4.142299290E-01
 -2.257600470E-02 -8.692757728E-03 3.575824432E-01
 1.955995715E-03 1.633370293E-02 4.706287418E-01
 2.561812748E+00 2.043055424E-01 7.419005873E-01
 6.834514579E-02 2.636417196E-01 7.521249633E-01
 2.606678018E-01 3.118412253E-01 8.572788496E-01
 2.768882842E-01 1.969358060E-01 9.117162702E-01
 3.285537998E-01 7.977835061E-02 9.675983677E-01
 3.018163837E-01 8.313336545E-02 9.551007829E-01
 3.638184298E-01 2.521029643E-01 9.250535249E-01
 4.275493363E-01 8.301059281E-02 1.012769587E+00
 4.017481240E-01 8.212462139E-02 1.000526773E+00
 4.548689472E-01 8.831982056E-02 1.025127592E+00
 3.627182117E-01 1.737797364E-01 9.643661063E-01
 4.448828199E-01 1.953805203E-01 9.810010851E-01
 5.319520483E-01 8.271013775E-02 1.048581305E+00
 5.569048387E-01 8.202383240E-02 1.046540896E+00
 4.633093325E-01 2.919832476E-01 9.352735920E-01
 5.427897978E-01 2.164359282E-01 9.812193587E-01
 6.507121067E-01 7.135895710E-02 9.646468100E-01
 6.279341797E-01 7.397314731E-02 9.900655423E-01
 6.759317844E-01 6.843073375E-02 9.361805558E-01
 6.058655582E-01 7.702416342E-02 1.014893921E+00
 5.658726692E-01 3.033384492E-01 9.350574866E-01
 6.556713951E-01 2.376527696E-01 9.369856030E-01
 6.098580247E-01 1.612162874E-01 9.926678413E-01
 7.063677191E-01 1.585870471E-01 9.104565703E-01
 7.692569350E-01 5.289071327E-02 8.512380280E-01
 7.429918514E-01 5.814376741E-02 8.731566600E-01
 7.916537045E-01 4.857754980E-02 8.338008477E-01
 7.533285585E-01 2.594227570E-01 8.640668782E-01
 7.816309386E-01 1.708039750E-01 8.508900705E-01
 8.647344250E-01 4.145471551E-02 7.820740227E-01
 2.067853144E-01 1.512124834E-01 8.948732148E-01
 1.193095444E-01 1.393386726E-01 8.333167854E-01
 5.510021953E-01 1.486854518E-01 1.025957968E+00
 7.497145587E-01 1.210386462E-01 8.796469943E-01
 7.992159627E-01 1.093544385E-01 8.459314772E-01
 8.466678309E-01 1.552335217E-01 8.122065919E-01
 9.641634331E-01 2.422039960E-02 6.773812281E-01
 8.523182859E-01 2.515289616E-01 8.056789306E-01
 9.263780153E-01 1.977340727E-01 7.653370468E-01
 1.073181231E+00 2.232434272E-01 7.277733923E-01
 9.299151451E-01 1.160680725E-01 7.538383456E-01
 8.509406345E-01 9.088146286E-02 8.078631992E-01
 8.411563095E-01 4.533741477E-02 7.998892019E-01
 6.740416177E-01 3.766421006E-01 8.807021801E-01
 6.555515596E-01 1.313496759E-01 9.638207272E-01
 2.631935549E-01 1.372758566E-01 9.356397501E-01
 4.126398234E-01 1.435289785E-01 9.996180741E-01
 4.617288026E-01 1.392677442E-01 1.018221071E+00
 8.731147138E-02 1.095040936E-01 8.131470982E-01
 9.318109112E-02 5.561320296E-02 8.148200433E-01
 1.653994543E-01 1.189849723E-01 8.801709122E-01
 1.281559749E-01 1.023509952E-01 8.582497181E-01
 1.534784552E-01 6.803289973E-02 8.740177733E-01
 5.858812964E-01 1.215888687E-01 1.031020955E+00
 6.227301137E-01 1.094661711E-01 1.000597766E+00
 4.541484522E-01 4.434232438E-01 8.757479351E-01
 8.343014735E-01 3.795270593E-01 8.155527792E-01
 3.680388882E-01 1.264405748E-01 9.876919978E-01
 3.167475579E-01 1.344171614E-01 9.609775017E-01
 1.136223081E+00 3.976898311E-01 7.473049831E-01
 1.236391086E+00 2.206413689E-01 7.297321010E-01
 1.162343893E+00 7.044981141E-02 7.024233482E-01
 1.288259559E+00 5.614598428E-02 7.085260266E-01
 1.234605248E+00 -1.016533293E-01 6.944331860E-01
 1.124415639E+00 -6.512778218E-02 6.640746121E-01
 9.708564732E-01 -1.009975249E-02 5.295348774E-01
 9.321130804E-01 -8.414779807E-03 5.314210279E-01
 9.134484204E-01 -1.174438615E-02 5.415162544E-01
 9.265469604E-01 -2.565558260E-02 5.588968484E-01
 1.064643449E+00 1.160210820E-01 7.048334135E-01
 1.345628914E+00 4.402488794E-01 7.470678233E-01
 2.260902224E-01 1.166012678E-01 9.238725442E-01
 2.534302121E-01 8.266650475E-02 9.337630096E-01
 7.662838530E-01 8.933153605E-02 8.675206477E-01
 7.370231808E-01 9.127595395E-02 8.897039274E-01
 6.534526352E-02 8.092214695E-02 7.864385067E-01
 1.017764301E-01 7.632981684E-02 8.351214684E-01
 5.498873419E-02 5.737312099E-02 7.575147218E-01
 3.388170329E-01 1.110857862E-01 9.783869263E-01
 1.987010585E-01 1.132419401E-01 9.080410570E-01
 3.384688644E-01 8.034545286E-02 9.718623352E-01
 3.524782551E-01 8.337978935E-02 9.775227824E-01
 3.573887735E-01 9.949303360E-02 9.856084763E-01
 3.804878658E-01 9.810877431E-02 9.952621406E-01
 1.361506128E-01 7.685166730E-02 8.661022278E-01
 4.031850943E-01 1.137668201E-01 1.005634329E+00
 4.384019042E-01 1.117045289E-01 1.019493484E+00
 1.425504879E+00 -8.873466909E-02 7.158791220E-01
 2.865057451E-01 1.122637656E-01 9.538615588E-01
 9.937382131E-01 1.334092187E-01 7.251365941E-01
 3.516563946E-02 4.743267924E-02 7.032032197E-01
 1.583722634E-02 4.751705749E-02 6.402580000E-01
 2.253222942E-03 3.377127593E-02 5.528782367E-01
 2.312688752E-02 3.463327409E-02 6.459248121E-01
 3.122403270E-01 1.031050965E-01 9.653355578E-01
 3.178274829E-01 8.373764657E-02 9.632139887E-01
 8.132923745E-01 7.370258275E-02 8.317898032E-01
 7.895083788E-01 8.016840151E-02 8.502527022E-01
 1.554040539E-01 8.689886902E-02 8.835292497E-01
 3.896807583E-01 8.434878063E-02 9.966272014E-01
 8.038997671E-01 5.102058323E-02 8.272005886E-01
 8.346902645E-01 6.082865799E-02 8.133440435E-01
 8.539998818E-01 5.706860685E-02 7.980506181E-01
 8.778423881E-01 5.734462061E-02 7.797822396E-01
 8.885393022E-01 3.744012484E-02 7.573191454E-01
 9.022503082E-01 5.166772331E-02 7.532462050E-01
 9.237684767E-01 4.238231478E-02 7.282625168E-01
 9.360949499E-01 2.750613298E-02 7.057275935E-01
 9.497559025E-01 4.544148730E-02 7.076651194E-01
 8.944469921E-01 8.539084707E-02 7.733069917E-01
 9.492318424E-01 2.386699466E-02 6.901827905E-01
 9.816870754E-01 4.026006991E-02 6.735329644E-01
 9.628905276E-01 8.036647899E-02 7.181835046E-01
 7.564426997E-01 5.615691363E-02 8.610787746E-01
 8.522625066E-01 4.080213016E-02 7.901314924E-01
 7.811073521E-01 5.242637915E-02 8.432300950E-01
 2.584516821E-01 1.067218089E-01 9.399142243E-01
 1.472316029E+00 1.759582320E-01 7.331236994E-01
 5.482830117E-01 1.142129775E-01 1.043603255E+00
 5.164576607E-01 1.227530724E-01 1.039603782E+00
 5.082783930E-01 8.424847887E-02 1.045030196E+00
 5.015812019E-01 1.589502913E-01 1.017876078E+00
 8.762717532E-01 3.746472994E-02 7.694016526E-01
 9.011815866E-01 -1.095704037E-02 5.431682202E-01
 4.159522606E-01 8.414362452E-02 1.006579400E+00
 1.432902263E-01 6.249711914E-02 8.651885863E-01
 4.377564478E-01 8.827332856E-02 1.018700594E+00
 3.789731283E-01 8.240661571E-02 9.899439071E-01
 8.291628952E-01 4.408761324E-02 8.074521235E-01
 1.680524620E-01 7.081727997E-02 8.842327661E-01
 9.865460074E-01 -9.538457832E-03 5.362901195E-01
 1.331798414E-01 6.093795936E-02 8.569902876E-01
 1.013545413E+00 7.442752008E-02 6.917493271E-01
 1.065190462E+00 4.965214283E-02 6.732783563E-01
 1.014094070E+00 3.628173512E-02 6.510145338E-01
 9.952065704E-01 1.812461409E-02 6.325925167E-01
 1.040346794E+00 1.667279982E-03 6.098880456E-01
 9.796341047E-01 1.845639737E-02 6.416804393E-01
 1.010847243E+00 7.612513548E-03 5.818208824E-01
 9.521836894E-01 -1.753342493E-02 5.467020985E-01
 4.876086240E-01 1.213839265E-01 1.033695924E+00
 5.218129362E-01 9.853650652E-02 1.047446788E+00
 6.538607132E-01 1.024400419E-01 9.708097847E-01
 6.853949239E-01 1.034323818E-01 9.361816214E-01
 6.184469157E-01 8.659054957E-02 1.004102048E+00
 5.976600622E-01 9.283275759E-02 1.024950783E+00
 5.691879617E-01 9.518181646E-02 1.042027356E+00
 5.450988979E-01 9.311813955E-02 1.047623309E+00
 7.511030581E-01 7.207865986E-02 8.738288635E-01
 7.282823282E-01 6.997799872E-02 8.897859546E-01
 7.114795343E-01 8.618272901E-02 9.099204517E-01
 6.931107862E-01 7.481917218E-02 9.234377932E-01
 7.179959834E-01 1.121033516E-01 9.060546685E-01
 2.887995174E-01 7.911351602E-02 9.475946867E-01
 7.724381669E-02 6.119418492E-02 7.992872648E-01
 9.707914172E-01 5.253122434E-01 7.870597936E-01
 1.480368945E+00 6.439453450E-01 7.510517334E-01
 1.320017822E+00 -2.935749349E-01 7.188976105E-01
 1.161878675E+00 -2.308234326E-01 7.025448645E-01
 9.780467158E-01 -3.047999464E-02 5.614797143E-01
 1.657453698E+00 -9.496754644E-02 7.286731557E-01
 1.064325387E-01 6.230915442E-02 8.347351527E-01
 5.687264061E-01 7.869948955E-02 1.044212122E+00
 1.108028168E+00 -7.796590164E-04 6.533574192E-01
 1.060195363E+00 -5.093723280E-02 6.289608965E-01
 1.026282425E+00 -3.356760827E-02 5.972128041E-01
 9.967513996E-01 -6.424329777E-02 6.130689310E-01
 1.053441411E+00 -1.102699239E-01 6.600262991E-01
 9.759257578E-01 -1.370732976E-01 6.522231891E-01
 8.339575583E-01 -2.223652411E-02 5.830841563E-01
 8.563812876E-01 -1.842483067E-02 5.685529756E-01
 8.113186900E-01 -2.725745155E-02 5.997700725E-01
 9.368729953E-01 -8.514655365E-02 6.220432362E-01
 8.984248776E-01 -1.467050323E-01 6.553443121E-01
 9.314516514E-01 -2.145975669E-01 6.753393768E-01
 8.394851501E-01 -2.273992595E-01 6.910238860E-01
 7.941110843E-01 -1.578634830E-01 6.885943108E-01
 7.319547479E-01 -2.311979913E-01 7.236434557E-01
 7.204547783E-01 -4.000033998E-02 6.571680171E-01
 7.511979129E-01 -3.316141694E-02 6.343120546E-01
 6.920655436E-01 -1.458493230E-01 7.323668377E-01
 6.347365494E-01 -1.986720628E-01 7.656192983E-01
 6.127987575E-01 -5.781353706E-02 7.393111126E-01
 5.996453638E-01 -1.444953020E-01 7.924372664E-01
 5.452991082E-01 -2.135888214E-01 8.300253777E-01
 5.256886277E-01 -6.974589352E-02 8.342601250E-01
 5.506969852E-01 -6.561357566E-02 8.028966019E-01
 6.176163798E-01 -3.089046617E-01 7.808812670E-01
 4.670645710E-01 -2.979685978E-01 8.559352105E-01
 3.469918180E-01 -8.227783071E-02 1.004503010E+00
 4.440990072E-01 -1.925986455E-01 9.153019996E-01
 4.487848185E-01 -7.679843938E-02 9.415245890E-01
 3.639103702E-01 -2.672259147E-01 9.006153051E-01
 3.495274525E-01 -1.743224669E-01 9.637001569E-01
 2.407068645E-01 -7.860571554E-02 9.353446127E-01
 2.641332303E-01 -7.956312525E-02 9.540984961E-01
 5.225095978E-01 -1.436827124E-01 8.621727968E-01
 2.754572369E-01 -2.289081178E-01 9.095060269E-01
 8.315294746E-01 -9.991270290E-02 6.557392838E-01
 7.366386705E-01 -9.996264000E-02 7.004441505E-01
 9.162099816E-01 -3.652131275E-01 7.051176321E-01
 8.884102945E-01 -7.068897179E-02 6.229018764E-01
 6.349994192E-01 -1.032936633E-01 7.579800723E-01
 6.425078095E-01 -5.318896242E-02 7.154427680E-01
 2.785850584E-01 -1.520440838E-01 9.524191587E-01
 2.122576335E-01 -1.813304582E-01 8.993774872E-01
 4.666477605E-01 -1.324007735E-01 9.299731152E-01
 9.003336007E-01 -2.631590428E-02 5.651650928E-01
 8.803174823E-01 -2.430248722E-02 5.692890910E-01
 8.505970725E-01 -5.486344575E-02 6.156798123E-01
 8.202718298E-01 -6.165798316E-02 6.369952916E-01
 4.049359507E-01 -1.343283941E-01 9.777217395E-01
 5.002774573E-01 -4.466732326E-01 8.063889538E-01
 3.252770140E-01 -1.267639738E-01 9.873262884E-01
 3.168701868E-01 -8.038945431E-02 9.906777163E-01
 3.627637404E-01 -1.205028636E-01 9.984717647E-01
 3.811571213E-01 -8.121363733E-02 1.004650156E+00
 2.286970606E-01 -1.267374420E-01 9.287356650E-01
 1.693787701E-01 -1.271380769E-01 8.848791161E-01
 1.362630127E-01 -1.840528124E-01 8.386432204E-01
 2.238774702E-02 -3.278242699E-02 6.281412017E-01
 9.195857508E-02 -1.311791162E-01 8.092325613E-01
 6.456288109E-02 -1.801407731E-01 7.641172541E-01
 2.462212107E-02 -1.338930068E-01 7.073813268E-01
 9.110702877E-03 -2.182505892E-02 5.559466376E-01
 4.498922189E-02 -3.921402782E-02 7.044098179E-01
 1.876036665E-01 -2.631848200E-01 8.469479322E-01
 -2.650628702E-02 -3.500185009E-01 7.156419744E-01
 5.637223742E-01 -1.055743808E-01 8.144257928E-01
 1.297806890E-01 -1.042034127E-01 8.534101350E-01
 1.550975239E-01 -6.664188874E-02 8.665258017E-01
 1.991564479E-01 -1.038731907E-01 9.099727635E-01
 2.149389883E-01 -7.343771051E-02 9.125865069E-01
 4.319378560E-01 -1.129408051E-01 9.647924081E-01
 7.640551517E-01 -3.611630554E-01 7.311499685E-01
 1.004779929E+00 -6.001324677E-01 7.190822302E-01
 8.695282172E-01 -1.629812276E-02 5.601983510E-01
 1.005524289E+00 -1.829120755E-02 5.590321550E-01
 3.937172256E-01 -8.218330277E-02 9.976913238E-01
 4.070044210E-01 -1.004960451E-01 9.878260268E-01
 5.262065136E-01 -1.056671763E-01 8.564580581E-01
 4.906098476E-01 -1.075624323E-01 8.979394378E-01
 5.093952240E-01 -7.209576553E-02 8.564615068E-01
 2.585244304E-01 -3.840381223E-01 8.325547970E-01
 2.660368321E-01 -1.158516355E-01 9.584277581E-01
 2.930649517E-01 -1.077686466E-01 9.753008916E-01
 3.030802594E-01 -8.504697288E-02 9.819393143E-01
 9.122843019E-01 -4.860402180E-02 5.923382689E-01
 6.036176262E-02 -9.437033410E-02 7.665403434E-01
 9.752549183E-02 -9.040393303E-02 8.239635433E-01
 9.184703472E-02 -5.382291838E-02 8.029749452E-01
 5.381698331E-01 -6.538823272E-02 8.162502162E-01
 5.412782709E-01 -8.241286698E-02 8.250796769E-01
 5.636111374E-01 -7.654053683E-02 7.984498036E-01
 5.866852908E-01 -8.055671344E-02 7.817172428E-01
 4.331638500E-01 -7.923615500E-02 9.626872476E-01
 4.233297722E-01 -9.151861618E-02 9.746542631E-01
 8.654321262E-01 -2.978183975E-02 5.834635626E-01
 8.465110386E-01 -3.078489069E-02 5.898045396E-01
 2.735334831E-01 -9.378021007E-02 9.628915371E-01
 2.518828382E-01 -9.525338933E-02 9.465472113E-01
 2.246447898E-01 -9.211657411E-02 9.264044455E-01
 1.979889591E-01 -8.306036410E-02 9.050274044E-01
 1.796524828E-01 -9.035926096E-02 8.915749565E-01
 8.450014650E-01 -1.900708218E-02 5.730547932E-01
 2.526073363E-01 -7.595338088E-02 9.442495319E-01
 2.281700352E-01 -7.456381413E-02 9.236799047E-01
 8.795402075E-01 -1.268877899E-02 5.513810939E-01
 9.496968167E-01 -4.630767947E-02 5.872602493E-01
 1.552488953E-02 -8.598781500E-02 6.469602890E-01
 4.596636703E-01 -1.063431332E-01 9.348472052E-01
 4.670027028E-01 -8.341203087E-02 9.177936801E-01
 8.271134399E-01 -3.746350252E-02 6.071048601E-01
 4.421201844E-01 -9.539962423E-02 9.528428540E-01
 5.935471002E-01 -6.360623797E-02 7.593054119E-01
 6.100582023E-01 -8.013503305E-02 7.616367522E-01
 6.307823500E-01 -6.974595276E-02 7.386217283E-01
 6.556172155E-01 -7.038224889E-02 7.239184296E-01
 6.805845739E-01 -6.876684473E-02 7.091394797E-01
 7.022162821E-01 -4.150213917E-02 6.690523002E-01
 6.849730534E-01 -4.755927779E-02 6.843497812E-01
 1.115452681E+00 -3.842898398E-01 7.067320696E-01
 5.502615436E-01 -6.202145142E-01 7.764721165E-01
 4.978149046E-01 -8.715238727E-02 8.793488004E-01
 1.547280618E-01 -8.973676412E-02 8.750500889E-01
 1.399752411E-01 -7.526274833E-02 8.566846472E-01
 1.199831968E-01 -7.981960361E-02 8.428347054E-01
 8.009430150E-02 -7.055835209E-02 7.928370054E-01
 5.112323274E-02 -6.804251682E-02 7.294475619E-01
 1.052243483E-01 -6.724193096E-02 8.222843585E-01
 2.688129589E-02 -5.494249213E-02 6.517440612E-01
 -3.814805651E-04 -4.222393196E-02 5.356449523E-01
 -7.288774899E-02 -8.426401099E-02 6.019518725E-01
 3.186467227E-02 -4.165433285E-02 6.747953271E-01
 -2.121145140E-02 -2.059104376E-01 6.903583792E-01
 1.040825126E+00 -2.266082257E-01 6.817571858E-01
 6.281033773E-01 -5.260483265E-02 7.231990820E-01
 4.210741984E-01 9.845551988E-02 1.012888502E+00
 3.414808621E-01 -1.012193353E-01 1.000985370E+00
 3.183468619E-01 -9.917243051E-02 9.911964626E-01
 3.292898351E-01 -8.723628762E-02 9.981268505E-01
 5.990221301E-01 -1.028110185E-01 7.828416578E-01
 6.552564292E-01 -4.942606141E-02 7.037675006E-01
 3.846225599E-01 -4.027721613E-01 8.424221839E-01
 5.941212325E-01 7.598896547E-02 1.024667112E+00
 4.973331742E-01 9.894505473E-02 1.040967926E+00
 4.699423639E-01 1.027239159E-01 1.031093995E+00
 5.201160806E-01 8.145588521E-02 1.048732978E+00
 4.688693196E-01 8.452757736E-02 1.029037405E+00
 3.133974596E+00 6.339745962E-01 7.327081037E-01
 4.965533087E-01 -7.127101691E-02 8.740243627E-01
 1.699536132E-01 -7.214790236E-02 8.793269866E-01
 8.039458341E-01 -4.559124637E-02 6.247467046E-01
 7.884908150E-01 -6.638021163E-02 6.533900249E-01
 7.511024317E-01 -6.931947727E-02 6.731374601E-01
 7.959864682E-01 -3.121984500E-02 6.105637906E-01
 7.843176827E-01 -4.158554128E-02 6.305391051E-01
 7.620663580E-01 -4.788255568E-02 6.472324268E-01
 7.385561652E-01 -4.868759251E-02 6.585687832E-01
 7.199350948E-01 -6.253886920E-02 6.821562804E-01