TITLE     = "Visualization of the solution"
VARIABLES = "x"
"y"
"Mach"
ZONE T="Zone"
 STRANDID=0, SOLUTIONTIME=0
 Nodes=715, Elements=1215, ZONETYPE=FEQuadrilateral
 DATAPACKING=POINT
 DT=(DOUBLE DOUBLE DOUBLE )
 9.996210337E-01 5.124830641E-04 5.666752771E-01
 9.882141352E-01 2.735735383E-03 6.225759207E-01
 9.757223725E-01 5.136303138E-03 6.370093756E-01
 9.605888724E-01 8.130707778E-03 6.684141783E-01
 9.462212324E-01 1.088287868E-02 6.863138287E-01
 9.316120148E-01 1.379352529E-02 7.059384944E-01
 9.200699925E-01 1.596099325E-02 7.217349557E-01
 9.079841971E-01 1.825818233E-02 7.357925393E-01
 8.961978555E-01 2.038564347E-02 7.484674212E-01
 8.843513727E-01 2.252707258E-02 7.599277103E-01
 8.718051314E-01 2.470842004E-02 7.736457689E-01
 8.598647714E-01 2.679733001E-02 7.879224157E-01
 8.473184109E-01 2.886703610E-02 7.949299144E-01
 8.359909058E-01 3.062382154E-02 7.994117315E-01
 8.243007660E-01 3.245971352E-02 8.059461858E-01
 8.112768531E-01 3.442595899E-02 8.142725362E-01
 7.986663580E-01 3.632701933E-02 8.228661307E-01
 7.864166498E-01 3.809483722E-02 8.300570794E-01
 7.743096948E-01 3.980353847E-02 8.388245419E-01
 7.624305487E-01 4.147437215E-02 8.472729342E-01
 7.492415309E-01 4.322847724E-02 8.549623769E-01
 7.353602648E-01 4.504653066E-02 8.641151115E-01
 7.248786092E-01 4.640287533E-02 8.740263668E-01
 7.137809992E-01 4.778499901E-02 8.813939677E-01
 7.020310163E-01 4.919502884E-02 8.898704212E-01
 6.880734563E-01 5.082673579E-02 9.004694909E-01
 6.749124527E-01 5.230563506E-02 9.103210874E-01
 6.651640534E-01 5.334673822E-02 9.185236697E-01
 6.536523104E-01 5.454690382E-02 9.269001528E-01
 6.420621872E-01 5.570035428E-02 9.355546477E-01
 6.302925944E-01 5.680340901E-02 9.456296730E-01
 6.190744042E-01 5.782806501E-02 9.548119557E-01
 6.081620455E-01 5.874808505E-02 9.606333820E-01
 5.951749682E-01 5.976578221E-02 9.665165015E-01
 5.835143328E-01 6.062444672E-02 9.735749120E-01
 5.701535940E-01 6.153457239E-02 9.809414120E-01
 5.580519438E-01 6.228163838E-02 9.861388356E-01
 5.461883545E-01 6.294043362E-02 9.900325420E-01
 5.355816483E-01 6.347305328E-02 9.927142761E-01
 5.242210627E-01 6.399547309E-02 9.931341359E-01
 5.117075443E-01 6.446751952E-02 9.919404068E-01
 5.006524324E-01 6.484211236E-02 9.897049351E-01
 4.873575568E-01 6.519377977E-02 9.865901437E-01
 4.738642871E-01 6.547003239E-02 9.830712984E-01
 4.593682587E-01 6.566809863E-02 9.788396414E-01
 4.458164871E-01 6.576851755E-02 9.737587443E-01
 4.328646362E-01 6.578442454E-02 9.685516576E-01
 4.201235771E-01 6.573708355E-02 9.624159184E-01
 4.077240229E-01 6.560375541E-02 9.563901354E-01
 3.955781162E-01 6.542889029E-02 9.510120509E-01
 3.829626441E-01 6.516946107E-02 9.458524769E-01
 3.715957105E-01 6.488014013E-02 9.399325146E-01
 3.583680391E-01 6.447219849E-02 9.342433526E-01
 3.458220959E-01 6.402160972E-02 9.298624365E-01
 3.327555656E-01 6.348999590E-02 9.245565331E-01
 3.215319514E-01 6.296110153E-02 9.174628385E-01
 3.087365627E-01 6.230243295E-02 9.114224788E-01
 2.951354980E-01 6.152372807E-02 9.063029331E-01
 2.809627354E-01 6.062090769E-02 9.000661777E-01
 2.682625651E-01 5.974172428E-02 8.936155121E-01
 2.562319040E-01 5.882757157E-02 8.872055209E-01
 2.437444925E-01 5.781767145E-02 8.804592148E-01
 2.311701328E-01 5.671803281E-02 8.737892056E-01
 2.187277824E-01 5.556361005E-02 8.684305071E-01
 2.071864456E-01 5.441864207E-02 8.621211554E-01
 1.957100332E-01 5.319511518E-02 8.542307499E-01
 1.831861287E-01 5.178298056E-02 8.462323299E-01
 1.713128835E-01 5.036113784E-02 8.391422061E-01
 1.601278335E-01 4.893823341E-02 8.333047983E-01
 1.480976939E-01 4.730043560E-02 8.268785495E-01
 1.374230683E-01 4.578303546E-02 8.185624751E-01
 1.256760508E-01 4.399314150E-02 8.100571774E-01
 1.142060682E-01 4.213212430E-02 7.998337665E-01
 1.036801711E-01 4.031227902E-02 7.874730282E-01
 9.387981892E-02 3.850853443E-02 7.761952855E-01
 8.263381571E-02 3.630679101E-02 7.631019464E-01
 7.059570402E-02 3.374131769E-02 7.498040522E-01
 6.099869683E-02 3.152121231E-02 7.344186781E-01
 5.117497593E-02 2.905458212E-02 7.162682120E-01
 4.287676141E-02 2.677757293E-02 7.014253362E-01
 3.566850722E-02 2.461431175E-02 6.774948670E-01
 2.929489501E-02 2.251567878E-02 6.568803219E-01
 2.384000644E-02 2.055289783E-02 6.421115238E-01
 1.987179182E-02 1.898428798E-02 6.242862597E-01
 1.613374427E-02 1.737491414E-02 6.022649096E-01
 1.331340149E-02 1.604890823E-02 5.835798070E-01
 1.068298984E-02 1.470137481E-02 5.656446629E-01
 8.784598671E-03 1.364013739E-02 5.486241247E-01
 7.135353051E-03 1.263660192E-02 5.137673421E-01
 5.590619519E-03 1.161211915E-02 4.860676898E-01
 3.582373029E-03 1.011563744E-02 4.578319299E-01
 1.790864975E-03 8.528421633E-03 4.271920108E-01
 2.736030438E-04 6.845961791E-03 3.544492711E-01
 -1.177651109E-03 4.508487880E-03 2.655921026E-01
 -1.774765784E-03 2.749663545E-03 1.384450065E-01
 -1.942649484E-03 1.354447217E-03 1.195112303E-01
 -1.815999742E-03 -1.521371887E-04 2.059139409E-01
 -1.389274723E-03 -1.627115998E-03 2.728580750E-01
 -5.035763024E-04 -3.348256461E-03 4.332069424E-01
 8.648494841E-04 -5.147865042E-03 4.888636110E-01
 2.777491463E-03 -7.006544620E-03 5.554370742E-01
 4.484861623E-03 -8.347469382E-03 5.805915546E-01
 6.396504119E-03 -9.638454765E-03 5.984558132E-01
 7.957674563E-03 -1.058014948E-02 6.162143383E-01
 9.948393330E-03 -1.166051347E-02 6.311481194E-01
 1.222149935E-02 -1.278082374E-02 6.540523810E-01
 1.538956817E-02 -1.417706162E-02 6.779060259E-01
 1.823350042E-02 -1.530682296E-02 6.968011364E-01
 2.185277827E-02 -1.661612466E-02 7.133685275E-01
 2.708667144E-02 -1.831209473E-02 7.284678800E-01
 3.268252686E-02 -1.992806606E-02 7.375276142E-01
 3.985566273E-02 -2.178137749E-02 7.462680326E-01
 4.727124050E-02 -2.349816822E-02 7.584629375E-01
 5.610884354E-02 -2.535561845E-02 7.670592163E-01
 6.465445459E-02 -2.698884159E-02 7.765630587E-01
 7.447808236E-02 -2.872019075E-02 7.822684602E-01
 8.419194818E-02 -3.030043095E-02 7.879019331E-01
 9.415440261E-02 -3.181415051E-02 7.931961372E-01
 1.048120409E-01 -3.333014995E-02 7.993999087E-01
 1.159553006E-01 -3.481353074E-02 8.031259971E-01
 1.273635328E-01 -3.624368832E-02 8.080583401E-01
 1.380990893E-01 -3.751432151E-02 8.143203698E-01
 1.490326822E-01 -3.873329237E-02 8.192958573E-01
 1.610023975E-01 -3.999546915E-02 8.240486483E-01
 1.727576405E-01 -4.116872698E-02 8.299310179E-01
 1.849839985E-01 -4.231415689E-02 8.352919217E-01
 1.959699690E-01 -4.328278452E-02 8.414297207E-01
 2.072549462E-01 -4.422187433E-02 8.473848012E-01
 2.197964489E-01 -4.519672692E-02 8.541004247E-01
 2.329543680E-01 -4.613269866E-02 8.614675069E-01
 2.458283007E-01 -4.698179662E-02 8.684159662E-01
 2.585748136E-01 -4.773978889E-02 8.757274317E-01
 2.701895535E-01 -4.835715517E-02 8.828984804E-01
 2.834606767E-01 -4.899056256E-02 8.891110785E-01
 2.968882024E-01 -4.953216761E-02 8.972003435E-01
 3.099544346E-01 -4.996119440E-02 9.046976992E-01
 3.220569789E-01 -5.027347058E-02 9.107331688E-01
 3.346439600E-01 -5.048866570E-02 9.151720734E-01
 3.459384143E-01 -5.060023069E-02 9.199864487E-01
 3.574844301E-01 -5.063121766E-02 9.245420628E-01
 3.683542609E-01 -5.055842549E-02 9.274117311E-01
 3.791536987E-01 -5.041534826E-02 9.294465240E-01
 3.905843794E-01 -5.015907809E-02 9.297925326E-01
 4.036474824E-01 -4.974178597E-02 9.267048259E-01
 4.162546098E-01 -4.919580370E-02 9.212821352E-01
 4.291556776E-01 -4.851760343E-02 9.130786582E-01
 4.417656064E-01 -4.771745577E-02 9.039662562E-01
 4.537079036E-01 -4.684802145E-02 8.936949222E-01
 4.655811787E-01 -4.587659985E-02 8.813311167E-01
 4.778745770E-01 -4.476682469E-02 8.676596316E-01
 4.892180264E-01 -4.364831746E-02 8.532253946E-01
 5.015070438E-01 -4.233540967E-02 8.359820390E-01
 5.152128935E-01 -4.079685360E-02 8.175178335E-01
 5.286947489E-01 -3.921326995E-02 8.023675132E-01
 5.419827104E-01 -3.754144162E-02 7.862303013E-01
 5.545070767E-01 -3.594833240E-02 7.709414323E-01
 5.672872066E-01 -3.428951278E-02 7.574291177E-01
 5.799648762E-01 -3.260587528E-02 7.468856090E-01
 5.915449858E-01 -3.106608056E-02 7.360139405E-01
 6.032346487E-01 -2.946157940E-02 7.254884561E-01
 6.175319552E-01 -2.756575868E-02 7.151172848E-01
 6.315771341E-01 -2.563333139E-02 7.036855923E-01
 6.463230252E-01 -2.367421612E-02 6.938097881E-01
 6.591607332E-01 -2.194806561E-02 6.851803561E-01
 6.725322008E-01 -2.018726245E-02 6.770191559E-01
 6.847273707E-01 -1.858569868E-02 6.690530482E-01
 6.970651150E-01 -1.699320413E-02 6.613592640E-01
 7.111728787E-01 -1.522451453E-02 6.542233286E-01
 7.238992453E-01 -1.362553891E-02 6.469078433E-01
 7.359818220E-01 -1.219645143E-02 6.400772754E-01
 7.482019663E-01 -1.069780812E-02 6.329338562E-01
 7.603099346E-01 -9.339937009E-03 6.265688658E-01
 7.730303407E-01 -7.909397595E-03 6.203943265E-01
 7.843844295E-01 -6.678960286E-03 6.129834363E-01
 7.973564267E-01 -5.373238586E-03 6.081213522E-01
 8.084427714E-01 -4.294127226E-03 6.033125180E-01
 8.199974895E-01 -3.215185367E-03 5.972386970E-01
 8.328486085E-01 -2.096806420E-03 5.910705304E-01
 8.454013467E-01 -1.110360026E-03 5.855973246E-01
 8.579618335E-01 -2.419362718E-04 5.813787418E-01
 8.706006408E-01 5.237447913E-04 5.775741894E-01
 8.825951219E-01 1.156956190E-03 5.743731814E-01
 8.964199424E-01 1.705808332E-03 5.721615625E-01
 9.067010283E-01 2.012782730E-03 5.707858087E-01
 9.168983102E-01 2.221372444E-03 5.703485660E-01
 9.258892536E-01 2.326007234E-03 5.706882623E-01
 9.345796108E-01 2.358723897E-03 5.710740173E-01
 9.463485479E-01 2.298868261E-03 5.728360706E-01
 9.591361880E-01 2.104402985E-03 5.731706138E-01
 9.746989012E-01 1.690543955E-03 5.797419777E-01
 9.878559113E-01 1.167916460E-03 5.796699301E-01
 -5.000000000E-01 -1.000000000E+00 7.129355539E-01
 3.500000000E+00 -1.000000000E+00 7.307890130E-01
 3.500000000E+00 1.000000000E+00 7.281310418E-01
 -5.000000000E-01 1.000000000E+00 7.114390793E-01
 -5.000000000E-01 5.000000000E-01 7.009497031E-01
 -5.000000000E-01 2.752797990E-12 6.902558551E-01
 -5.000000000E-01 -5.000000000E-01 7.007514073E-01
 -9.421907698E-13 -1.000000000E+00 7.222179661E-01
 5.000000000E-01 -1.000000000E+00 7.362458320E-01
 1.000000000E+00 -1.000000000E+00 7.228582667E-01
 1.500000000E+00 -1.000000000E+00 7.155200932E-01
 2.000000000E+00 -1.000000000E+00 7.205630107E-01
 2.500000000E+00 -1.000000000E+00 7.258840979E-01
 3.000000000E+00 -1.000000000E+00 7.284439834E-01
 3.500000000E+00 -5.000000000E-01 7.330976405E-01
 3.500000000E+00 -2.752797990E-12 7.346013922E-01
 3.500000000E+00 5.000000000E-01 7.321318254E-01
 3.000000000E+00 1.000000000E+00 7.261881738E-01
 2.500000000E+00 1.000000000E+00 7.288981920E-01
 2.000000000E+00 1.000000000E+00 7.339107356E-01
 1.500000000E+00 1.000000000E+00 7.477923019E-01
 1.000000000E+00 1.000000000E+00 7.727517080E-01
 5.000000000E-01 1.000000000E+00 7.729635308E-01
 1.733724275E-12 1.000000000E+00 7.308709426E-01
 6.808942890E-01 -3.280348089E-02 6.827784697E-01
 7.918487485E-01 -1.574545166E-02 6.200185268E-01
 9.112812415E-01 -6.648636653E-03 5.802226421E-01
 2.743773836E-01 -6.089791975E-02 8.914774150E-01
 7.102102423E-01 6.063491942E-02 8.890424383E-01
 2.732885533E-01 7.498520116E-02 9.067586376E-01
 3.634709748E-01 7.368257116E-02 9.410700570E-01
 5.721020200E-01 -4.753349797E-02 7.658421624E-01
 9.004234315E-01 3.017735210E-02 7.498502214E-01
 8.093513469E-01 5.037320833E-02 8.237574006E-01
 6.131940018E-01 6.714185674E-02 9.605020800E-01
 4.471687900E-01 -5.665162721E-02 9.013879592E-01
 5.196129751E-01 7.593281124E-02 9.947075109E-01
 1.834257709E+00 -5.951685547E-01 7.267703784E-01
 1.779579208E+00 6.090699807E-01 7.450877357E-01
 3.031161605E+00 2.156905184E-01 7.373274357E-01
 7.441700089E-01 -6.229245571E-01 7.334892527E-01
 3.619293216E-01 -6.233070924E-02 9.279996313E-01
 7.488949117E-01 5.455072160E-01 8.261018517E-01
 3.242013023E-01 6.270289835E-01 7.907628252E-01
 1.188465071E-01 5.401511850E-02 8.158872391E-01
 1.883674556E-01 6.715434435E-02 8.644226839E-01
 4.382782307E-01 7.867593133E-02 9.756580220E-01
 2.734882517E+00 -5.326570543E-01 7.327974472E-01
 1.173077667E+00 6.919251944E-01 7.685907097E-01
 9.954427815E-01 3.550114752E-01 7.613534097E-01
 1.263367364E+00 -6.791434772E-01 7.150641440E-01
 1.477014605E+00 -2.533679354E-01 7.249588140E-01
 2.154713294E-01 -5.380882631E-01 7.587473568E-01
 6.956360089E-02 -3.696503346E-02 7.885951627E-01
 1.212455032E-01 -4.778348998E-02 8.210981516E-01
 1.788180728E-01 -5.298499966E-02 8.459654429E-01
 2.248617733E+00 -5.878732197E-01 7.305116745E-01
 1.991290295E+00 -2.112138400E-01 7.331359377E-01
 2.414600448E+00 -1.862512705E-01 7.360974835E-01
 2.184737245E+00 1.585003973E-01 7.397690582E-01
 1.757411774E+00 1.171657229E-01 7.346860648E-01
 -2.709747960E-01 -2.545721738E-01 6.851876725E-01
 -1.609537606E-01 -5.656798958E-01 7.130628460E-01
 -2.626466378E-01 2.107993078E-01 6.798909092E-01
 -8.366765974E-02 6.113070520E-01 7.287896560E-01
 2.708505444E-02 3.292762619E-01 7.349451943E-01
 5.153539219E-02 3.892347787E-02 7.315180532E-01
 2.215715823E+00 5.745414976E-01 7.404347080E-01
 2.742111061E+00 5.994115792E-01 7.360118857E-01
 -2.455318609E-01 -3.391084473E-03 6.648011840E-01
 -1.411446021E-01 -1.291354529E-01 6.578409145E-01
 4.377690906E-02 -3.989611246E-01 7.333405963E-01
 2.804490760E-01 -3.141157203E-01 8.125172673E-01
 -1.187831372E-01 1.006894893E-01 6.408455829E-01
 -1.205356335E-01 -6.772636110E-03 6.200536447E-01
 -5.617385784E-02 -6.691283670E-02 6.099157148E-01
 3.483567730E-02 -2.640268217E-02 7.473312757E-01
 1.798743091E-02 -2.135294711E-02 6.902277922E-01
 -4.958619584E-02 -1.501051977E-01 6.703348889E-01
 3.324809114E-03 -9.311001393E-02 6.863598374E-01
 3.242287027E-02 -1.705153127E-01 7.270017147E-01
 6.916938801E-02 -1.022267630E-01 7.784637918E-01
 1.191545088E-01 -1.551554714E-01 7.944847084E-01
 2.253630506E-01 -5.946887301E-02 8.695903536E-01
 -1.393219593E-02 -5.269811028E-02 6.175243534E-01
 8.108658386E-03 -1.267620921E-02 6.233793441E-01
 -6.010879054E-02 -8.436652930E-03 5.585820028E-01
 1.242751609E-01 -9.571633084E-02 8.294330852E-01
 1.816339068E-01 -1.274243100E-01 8.445591064E-01
 1.829697699E-01 -1.958009055E-01 8.144166181E-01
 2.443514320E-01 -1.587953780E-01 8.587333969E-01
 3.170354236E-01 -5.944913167E-02 9.124758183E-01
 2.362846945E-01 -1.110109258E-01 8.754610159E-01
 2.899910554E-01 -1.212026164E-01 8.925460598E-01
 3.051058849E-01 -1.653284676E-01 8.716008910E-01
 3.413063534E-01 -1.315219636E-01 8.983412227E-01
 4.116697951E-01 -6.200244446E-02 9.240750726E-01
 3.500062515E-01 -1.975456763E-01 8.615120469E-01
 5.096126764E-01 -5.272557167E-02 8.334615899E-01
 5.391111165E-01 -5.189830680E-02 7.984312694E-01
 4.837040114E-01 -5.659907368E-02 8.639582392E-01
 7.239666170E-02 -2.620813132E-01 7.545798610E-01
 3.261416822E-01 -9.854414668E-02 9.164937525E-01
 3.412749228E-01 -5.934031435E-02 9.210175507E-01
 3.615419558E-01 -9.757287438E-02 9.216988712E-01
 3.949411758E-01 -1.302747704E-01 9.004642728E-01
 4.466428043E-01 -1.745642656E-01 8.568182761E-01
 4.115036686E-01 -2.669674157E-01 8.298902571E-01
 5.083963431E-01 -2.429633379E-01 8.076543650E-01
 3.843083327E-01 -6.225233230E-02 9.307429082E-01
 4.872221070E-01 -3.528035194E-01 7.942984352E-01
 6.074077707E-01 -2.958034714E-01 7.571228947E-01
 6.389864920E-01 -1.882570025E-01 7.398941682E-01
 7.210301601E-01 -2.413718404E-01 7.136756717E-01
 7.321685074E-01 -2.223485338E-02 6.506868609E-01
 8.535668757E-01 -1.330798912E-02 5.960243773E-01
 6.401373717E-01 -3.628586713E-02 7.086713387E-01
 6.105869728E-01 -4.129297091E-02 7.316273395E-01
 7.416866025E-01 -1.435357208E-01 6.938025495E-01
 8.160256751E-01 -1.943074466E-01 6.826742667E-01
 9.684345633E-01 -1.144722116E-02 5.931326066E-01
 9.389816551E-01 -8.180743760E-03 5.840491644E-01
 8.342698557E-01 -1.111566863E-01 6.583571653E-01
 9.019785403E-01 -1.579720475E-01 6.629391672E-01
 9.045149827E-01 -2.724818103E-01 6.873232903E-01
 1.009108868E+00 -2.158440933E-01 6.794027053E-01
 9.104218656E-01 -8.200267831E-02 6.370369910E-01
 7.703922201E-01 -8.236577180E-02 6.697025351E-01
 6.755592532E-01 -1.061277499E-01 7.157526380E-01
 5.457488555E-01 -1.390243602E-01 8.017996813E-01
 9.915458829E-01 -3.451054451E-01 6.966836837E-01
 1.153716241E+00 -2.818416658E-01 7.024168320E-01
 1.166491096E+00 -1.247596103E-01 6.986470043E-01
 1.027596143E+00 -1.095575012E-01 6.677896093E-01
 4.933740291E-01 -1.279630819E-01 8.472970214E-01
 8.616436277E-01 -7.230290749E-02 6.374831106E-01
 1.292550389E+00 -1.968695299E-01 7.145623281E-01
 1.274436802E+00 -5.073783516E-02 7.077472076E-01
 1.147431785E+00 1.528571748E-02 6.906334326E-01
 1.262517846E+00 8.739290739E-02 7.154900407E-01
 1.432542799E+00 2.509374475E-02 7.209620392E-01
 1.426985434E+00 2.320766378E-01 7.352679883E-01
 1.131647659E+00 1.581184243E-01 7.171195750E-01
 1.076263495E+00 6.703103240E-02 6.921852105E-01
 9.539466933E-01 2.435837968E-02 6.924156866E-01
 1.074592677E+00 8.597613430E-03 6.595431561E-01
 4.012023937E-02 -6.969511382E-02 7.538528623E-01
 5.075673649E-02 -3.303863493E-02 7.709674908E-01
 1.320160169E-02 -5.025751553E-02 6.930068915E-01
 3.109379880E+00 -2.612446502E-01 7.356443055E-01
 1.979555135E-01 -8.721809843E-02 8.667504515E-01
 2.009320443E-01 -5.510216510E-02 8.561590435E-01
 2.662775196E-01 -9.149791182E-02 8.955199424E-01
 2.528528064E-01 -5.685397355E-02 8.799865535E-01
 1.030461881E+00 4.418859060E-02 6.686400470E-01
 1.023933076E+00 1.204880281E-01 7.146617732E-01
 -2.549997939E-02 -2.081267191E-02 5.081711358E-01
 9.411497570E-02 -7.582488873E-02 8.197747262E-01
 8.624716771E-02 -4.119587797E-02 8.018425173E-01
 7.074148792E-02 -6.759040167E-02 8.015300922E-01
 2.966361897E-01 -8.399258839E-02 9.080868811E-01
 9.634631518E-01 -1.269789763E-01 6.560396620E-01
 9.697554154E-01 -7.008922438E-02 6.356784029E-01
 1.019914232E+00 -5.348232035E-02 6.490226892E-01
 9.307651606E-01 -4.841482613E-02 6.185116088E-01
 1.079133173E+00 -6.427842230E-02 6.708775887E-01
 1.034159638E+00 -1.016092459E-02 6.320026759E-01
 9.881748528E-01 -3.987541033E-02 6.206000885E-01
 9.612855753E-01 -3.316971511E-02 6.107144205E-01
 2.893368903E-01 -6.328652045E-02 9.001518804E-01
 1.648529467E-01 -5.233277679E-02 8.405165910E-01
 1.736177929E-01 -6.843455691E-02 8.559580016E-01
 1.542739002E-01 -6.167234251E-02 8.457443070E-01
 1.428652858E-01 -4.966982980E-02 8.303910112E-01
 1.321039189E-01 -6.445340666E-02 8.385568519E-01
 1.082078819E-01 -4.578840265E-02 8.135946407E-01
 1.605956770E-01 -8.525706421E-02 8.514398860E-01
 9.838145499E-01 -2.058007232E-02 6.021751023E-01
 3.923113619E-01 -9.328886258E-02 9.247181718E-01
 4.252749164E-01 -9.453542337E-02 9.105279627E-01
 4.663932261E-01 -9.684847951E-02 8.841518448E-01
 -2.951744644E-03 -3.340525924E-02 5.985984678E-01
 1.533599362E-03 -1.132265207E-02 5.296700700E-01
 3.281753649E-01 -6.062311089E-02 9.176917754E-01
 9.842272518E-01 6.308684014E-02 6.962470821E-01
 9.359808628E-01 1.003468351E-01 7.495182235E-01
 8.528182439E-01 3.730758168E-02 7.952216151E-01
 8.276575861E-01 4.384448737E-02 8.096266337E-01
 9.861794735E-01 1.493796533E-02 6.422782468E-01
 9.595896388E-01 1.729288385E-01 7.505330240E-01
 8.830197968E-01 1.605291321E-01 7.865714200E-01
 7.582672610E-01 5.529656809E-02 8.564234452E-01
 7.824051576E-01 5.439796495E-02 8.406551738E-01
 8.733799728E-01 9.787849197E-02 7.953171071E-01
 8.211862460E-01 1.400670964E-01 8.257223914E-01
 8.234958163E-01 2.106575727E-01 8.183261920E-01
 7.446833286E-01 1.763356001E-01 8.665253306E-01
 6.604694894E-01 6.571612651E-02 9.260675780E-01
 6.820085512E-01 6.297351057E-02 9.105521748E-01
 7.470278753E-01 2.701898792E-01 8.530502424E-01
 6.570230173E-01 2.366098400E-01 8.998323647E-01
 5.638394641E-01 7.366195357E-02 9.867260147E-01
 6.626903232E-01 1.501676690E-01 9.218369577E-01
 5.845266756E-01 1.823696808E-01 9.482802602E-01
 5.720918555E-01 2.800658619E-01 9.087381821E-01
 4.883998749E-01 2.162317838E-01 9.399423474E-01
 4.660729743E-01 3.262447725E-01 8.981028452E-01
 3.761810006E-01 2.518411151E-01 9.007548868E-01
 4.098174283E-01 1.690648482E-01 9.453206236E-01
 4.026957187E-01 7.494523796E-02 9.593126392E-01
 2.966727124E-01 1.910736799E-01 8.919760969E-01
 3.273186472E-01 7.291807977E-02 9.276025831E-01
 3.028959648E-01 7.163044040E-02 9.155258978E-01
 2.656177609E-01 2.877016792E-01 8.461722247E-01
 2.065160635E-01 2.049182691E-01 8.427986455E-01
 4.755968684E-01 1.453604881E-01 9.730465048E-01
 4.820303473E-01 7.565182734E-02 9.874557189E-01
 7.197717366E-01 1.214058350E-01 8.913339196E-01
 2.378894350E-01 1.457064457E-01 8.820115951E-01
 2.229732783E-01 6.825273173E-02 8.819661940E-01
 1.717230762E-01 1.355707415E-01 8.473561487E-01
 1.528393501E-01 6.310494774E-02 8.426022981E-01
 6.063382625E-01 1.279529717E-01 9.608275799E-01
 3.461450949E-01 1.424860351E-01 9.316350089E-01
 1.154458664E-01 2.077005690E-01 7.868171681E-01
 9.953226727E-02 1.260553882E-01 7.937093669E-01
 8.536051766E-02 5.011434653E-02 7.820369968E-01
 2.910870926E-02 1.922231969E-01 7.236820451E-01
 2.826901361E-02 1.093484817E-01 7.095148013E-01
 1.576160217E-02 2.126630635E-02 6.046837868E-01
 3.102388039E-02 2.916760328E-02 6.717035061E-01
 6.409265684E-01 1.100842767E-01 9.462077627E-01
 6.378534124E-01 6.935655104E-02 9.436011746E-01
 4.323916769E-01 1.176277401E-01 9.728796528E-01
 5.307959182E-01 1.446651461E-01 9.778199361E-01
 3.628794133E-01 3.996541076E-01 8.514483919E-01
 1.908568106E-01 4.231533992E-01 7.842332529E-01
 8.242393928E-01 9.214599326E-02 8.257200318E-01
 7.761743860E-01 1.018056716E-01 8.550158752E-01
 5.054542482E-01 1.147298030E-01 9.901519950E-01
 9.263612717E-01 2.534766023E-01 7.744026842E-01
 6.806434540E-01 3.610339014E-01 8.643522206E-01
 5.312556101E-01 4.666962018E-01 8.580660133E-01
 7.417736988E-01 8.847583363E-02 8.773198854E-01
 7.331178555E-01 5.768133788E-02 8.734079232E-01
 1.412202188E-01 1.009641198E-01 8.463905331E-01
 2.135567195E-01 1.082296736E-01 8.860315312E-01
 1.005145849E+00 2.586004092E-02 6.401877750E-01
 5.353127299E-01 1.061478778E-01 9.930728875E-01
 5.424523082E-01 7.417511846E-02 9.935189902E-01
 2.530099873E-01 1.095391985E-01 9.039416338E-01
 2.488390201E-01 7.111234001E-02 8.937082723E-01
 2.893276277E-01 1.331483332E-01 9.120061123E-01
 5.910484507E-01 6.942994550E-01 8.218082827E-01
 7.071065600E-01 9.113723064E-02 8.994902428E-01
 8.396514840E-01 3.592609813E-01 8.080556813E-01
 7.595076284E-02 8.278454470E-02 7.836666041E-01
 1.108154474E-01 8.668721190E-02 8.257188099E-01
 5.785456055E-01 7.353403805E-02 9.798446583E-01
 5.712559219E-01 8.774277324E-02 9.857873373E-01
 5.924021803E-01 8.962560687E-02 9.741138156E-01
 7.455215874E-01 5.418060085E-02 8.630733148E-01
 5.528446294E-01 8.866379612E-02 9.923991799E-01
 5.901647247E-01 7.133169512E-02 9.728147849E-01
 4.658207386E-01 1.086598474E-01 9.856157729E-01
 4.943146760E-01 7.672553011E-02 9.912715942E-01
 9.058637134E-01 7.159814834E-02 7.678652330E-01
 8.782717632E-01 3.179978066E-02 7.709610621E-01
 -7.748643836E-02 2.328178764E-01 6.859123254E-01
 3.179341659E-01 1.103003450E-01 9.319009092E-01
 3.535253666E-01 1.058260983E-01 9.459686673E-01
 3.383637728E-01 7.593234156E-02 9.334873312E-01
 4.667431784E-01 8.317161862E-02 9.846391451E-01
 3.514105247E-01 7.587546091E-02 9.380273354E-01
 3.808648414E-01 9.287675721E-02 9.561567919E-01
 3.910726606E-01 7.753243031E-02 9.552938089E-01
 3.747731316E-01 7.713715030E-02 9.478029269E-01
 4.870983403E-01 9.178029229E-02 9.912408838E-01
 5.082268531E-01 9.174312725E-02 9.950956556E-01
 1.611043112E-01 2.905500357E-01 7.947981483E-01
 3.508470440E-01 -5.974636101E-02 9.244200344E-01
 3.457401952E-01 -7.394283714E-02 9.248949366E-01
 5.779509320E-01 -4.790916464E-01 7.599314369E-01
 7.233846043E-01 -3.926200649E-01 7.270939717E-01
 4.356812240E-01 -5.923425188E-02 9.106229120E-01
 4.476599211E-01 -7.301704500E-02 9.026600745E-01
 4.245890170E-01 -7.200991780E-02 9.184989948E-01
 3.146078649E-01 7.285753556E-02 9.223874080E-01
 2.630211388E-01 -5.765977452E-02 8.848836553E-01
 3.052960586E-01 -6.366914291E-02 9.078275591E-01
 4.515947492E-01 7.766273397E-02 9.796093588E-01
 4.233288967E-01 -5.936443385E-02 9.180389456E-01
 9.798791326E-01 5.173831139E-01 7.828045144E-01
 1.204581027E+00 3.903202454E-01 7.480637995E-01
 1.455060422E+00 5.227317598E-01 7.495369956E-01
 1.544054425E-01 -4.848074213E-02 8.325393235E-01
 5.526753400E-01 7.234458803E-02 9.902847863E-01
 1.125809749E-01 -6.425664835E-02 8.308754363E-01
 -3.425216062E-02 1.439514181E-01 6.634381436E-01
 -3.171466671E-02 8.358770223E-02 6.220116896E-01
 1.185089937E-02 6.701286806E-02 6.567306621E-01
 4.373706081E-02 7.039912523E-02 7.342492608E-01
 -1.483206005E-02 4.247159720E-02 5.607535281E-01
 8.997586208E-03 1.703241096E-02 5.606722580E-01
 -6.440439895E-02 3.758974524E-02 5.697403861E-01
 -2.309707993E-02 9.512411428E-03 4.067605709E-01
 4.601965580E-01 -5.847281778E-02 8.905641739E-01
 4.744126414E-01 -7.291924531E-02 8.774109888E-01
 5.011851808E-01 -8.837938222E-02 8.495833215E-01
 5.580694511E-01 -9.397369249E-02 7.924435297E-01
 5.966990022E-01 -1.316282722E-01 7.646474537E-01
 6.282046013E-01 -8.529528347E-02 7.411353304E-01
 7.975068318E-01 6.906892109E-02 8.376205945E-01
 1.282310297E+00 -4.074385628E-01 7.163777021E-01
 5.317422619E-01 7.285449635E-02 9.948204568E-01
 2.557431124E+00 2.075609921E-01 7.395432627E-01
 9.531680384E-01 -1.054185904E-02 5.881559810E-01
 9.386311842E-01 -2.519614800E-02 6.006390927E-01
 9.260651954E-01 -1.719068061E-02 5.921236720E-01
 9.058992049E-01 -4.250205042E-02 6.146433723E-01
 8.765553416E-01 -1.074117067E-02 5.883226563E-01
 8.883158400E-01 -7.810307660E-03 5.837899564E-01
 8.894145276E-01 -2.322015052E-02 5.995683528E-01
 8.682701485E-01 -2.258847565E-02 6.028681905E-01
 8.468942901E-01 -3.130389219E-02 6.168420315E-01
 8.143682858E-01 -1.498807897E-02 6.107999077E-01
 8.235286504E-01 -5.706051789E-02 6.399687866E-01
 7.920839923E-01 -5.107276155E-02 6.467998456E-01
 7.668308091E-01 -2.033094420E-02 6.342523663E-01
 7.803647426E-01 -1.887638791E-02 6.269267013E-01
 7.758214931E-01 -3.499324076E-02 6.418688384E-01
 7.566269838E-01 -3.447576615E-02 6.501775011E-01
 8.257987945E-01 -1.196562406E-02 6.035857886E-01
 8.258547947E-01 -2.576543526E-02 6.168510541E-01
 8.059806045E-01 -2.994768521E-02 6.267707924E-01
 7.553260258E-01 -2.032006552E-02 6.379655560E-01
 8.653909680E-01 -9.271165382E-03 5.892051401E-01
 8.038558249E-01 -1.465755235E-02 6.142961837E-01
 7.671803238E-01 -5.208355598E-02 6.564437550E-01
 7.430769783E-01 -5.673024516E-02 6.692260055E-01
 7.052060562E-01 -3.057491546E-02 6.696395333E-01
 7.438071482E-01 -2.222813509E-02 6.457076065E-01
 7.351652943E-01 -3.521673587E-02 6.602954417E-01
 7.154287991E-01 -4.920197344E-02 6.784596985E-01
 7.221703114E-01 -8.438983641E-02 6.901548791E-01
 6.893180192E-01 -6.709357527E-02 7.006062030E-01
 6.586040628E-01 -6.658620226E-02 7.169279994E-01
 4.147262533E-01 7.722267981E-02 9.653663663E-01
 4.069448129E-01 9.272341831E-02 9.662159526E-01
 4.273994603E-01 8.981798987E-02 9.743097950E-01
 4.459760170E-01 9.509263377E-02 9.812798551E-01
 4.266784315E-01 7.544762182E-02 9.698028503E-01
 4.723537933E-01 -5.572691226E-02 8.772207247E-01
 6.962734646E-01 6.242694820E-02 8.996510163E-01
 6.909552641E-01 7.829387515E-02 9.094802526E-01
 6.778842942E-01 1.014998072E-01 9.205754292E-01
 1.323354660E-01 -4.713294725E-02 8.238378561E-01
 9.004864668E-01 -9.023545930E-03 5.835741077E-01
 1.920013540E-01 -6.457954084E-02 8.606672797E-01
 5.676394740E-01 1.181668361E-01 9.822261607E-01
 7.948692688E-01 4.965239019E-02 8.315515281E-01
 7.716624539E-01 7.167621188E-02 8.557940971E-01
 8.493745225E-01 7.406152853E-02 8.091672359E-01
 7.698171061E-01 5.092659761E-02 8.479977393E-01
 1.637187565E+00 -9.675639581E-02 7.273172091E-01
 1.905410877E-01 -5.165272940E-02 8.486075337E-01
 4.951321081E-01 -5.297256022E-02 8.487831877E-01
 6.723687726E-01 7.552004453E-02 9.215208866E-01
 6.524600797E-01 8.209022685E-02 9.365852020E-01
 6.303726113E-01 8.627411057E-02 9.527547691E-01
 3.915142613E-01 1.202143393E-01 9.574681648E-01
 2.842587672E-01 9.645204588E-02 9.174239853E-01
 4.592609380E-01 -7.075022706E-01 7.521285518E-01
 3.067178386E-01 8.663711219E-02 9.248960724E-01
 5.331925749E-01 -7.767038363E-02 8.158077693E-01
 8.780153603E-01 6.114152084E-02 7.843846117E-01
 9.349753884E-01 4.803922982E-02 7.269059305E-01
 9.287089370E-01 2.561885203E-02 7.207273137E-01
 9.396696925E-01 2.420076960E-02 7.079414284E-01
 8.871346178E-01 3.999110776E-02 7.669115011E-01
 6.259881622E-01 -3.988141838E-02 7.202720872E-01
 6.197270194E-01 -5.579756218E-02 7.353463618E-01
 6.008485100E-01 -5.973108495E-02 7.507850085E-01
 9.052028715E-01 4.723419137E-02 7.558380480E-01
 2.905432262E-01 7.530823923E-02 9.126847530E-01
 -1.541057400E-01 3.880322401E-01 7.023887138E-01
 8.745768765E-01 -4.111245438E-01 7.081457399E-01
 1.026172689E+00 -5.410037746E-01 7.110995291E-01
 8.782740458E-01 -4.662389776E-02 6.193411951E-01
 9.109975645E-01 -1.996135434E-02 5.946386110E-01
 3.288294726E-01 9.119174001E-02 9.347994413E-01
 2.110258758E-01 -6.829128796E-02 8.699347206E-01
 2.341978026E-01 -7.947258884E-02 8.822772331E-01
 7.455731199E-01 6.698026839E-02 8.692004905E-01
 7.234405900E-01 7.078846715E-02 8.849535629E-01
 5.919495206E-01 -8.809734880E-02 7.684337820E-01
 5.759260383E-01 -6.985841091E-02 7.724170201E-01
 5.579097494E-01 -5.751864381E-02 7.865739207E-01
 4.954081204E-01 -6.659724025E-02 8.523465005E-01
 7.205067968E-01 -2.767975526E-02 6.602149916E-01
 6.928128992E-01 -4.329553697E-02 6.854166016E-01
 6.741567162E-01 -4.807827253E-02 6.983307730E-01
 6.545664155E-01 -4.010599137E-02 7.028827811E-01
 6.016293536E-01 7.156616903E-02 9.665262499E-01
 6.129859256E-01 8.132289398E-02 9.633483067E-01
 3.211643781E-01 -7.491020271E-02 9.178470437E-01
 2.602511377E-01 8.572273793E-02 9.061341910E-01
 2.342614354E-01 8.410789782E-02 8.953784159E-01
 6.923364598E-01 -2.863840720E-02 6.736553625E-01
 1.686230182E+00 -3.291360765E-01 7.304966510E-01