TITLE     = "Visualization of the solution"
VARIABLES = "x"
"y"
"Mach"
ZONE T="Zone"
 STRANDID=0, SOLUTIONTIME=0
 Nodes=692, Elements=1169, ZONETYPE=FEQuadrilateral
 DATAPACKING=POINT
 DT=(DOUBLE DOUBLE DOUBLE )
 9.999197125E-01 5.203022738E-04 5.859421115E-01
 9.868363738E-01 2.948033856E-03 6.344487197E-01
 9.743579030E-01 5.219350569E-03 6.578451833E-01
 9.595863223E-01 7.969243452E-03 6.808567340E-01
 9.453727603E-01 1.054383721E-02 6.998523707E-01
 9.322143793E-01 1.294284314E-02 7.186138836E-01
 9.209880233E-01 1.499337144E-02 7.345480450E-01
 9.083703756E-01 1.719174907E-02 7.486824632E-01
 8.967117667E-01 1.918318309E-02 7.613515477E-01
 8.845874667E-01 2.120873518E-02 7.724321950E-01
 8.721032739E-01 2.319947258E-02 7.810863977E-01
 8.599521518E-01 2.507381141E-02 7.903806263E-01
 8.477416039E-01 2.694839053E-02 7.994375963E-01
 8.359870911E-01 2.863409184E-02 8.035917791E-01
 8.241268396E-01 3.029848635E-02 8.085594209E-01
 8.113687634E-01 3.208250552E-02 8.152908918E-01
 7.982633114E-01 3.385426477E-02 8.208861673E-01
 7.859255075E-01 3.545767069E-02 8.278843656E-01
 7.736681700E-01 3.709437698E-02 8.348824424E-01
 7.613101602E-01 3.861417249E-02 8.394566572E-01
 7.483291626E-01 4.023343325E-02 8.475097186E-01
 7.345813513E-01 4.191576689E-02 8.561909884E-01
 7.235980034E-01 4.319917783E-02 8.636936803E-01
 7.124493122E-01 4.449736327E-02 8.714428219E-01
 7.007376552E-01 4.581231251E-02 8.789127379E-01
 6.870121360E-01 4.729110375E-02 8.881651220E-01
 6.739386916E-01 4.867911339E-02 8.974385848E-01
 6.635705233E-01 4.970320314E-02 9.038733567E-01
 6.520473361E-01 5.082599446E-02 9.109634553E-01
 6.407043338E-01 5.187800527E-02 9.197092332E-01
 6.289994717E-01 5.293184146E-02 9.286323165E-01
 6.177308559E-01 5.389100686E-02 9.339814285E-01
 6.068158746E-01 5.474294722E-02 9.394615249E-01
 5.944043398E-01 5.569162965E-02 9.484315479E-01
 5.826953650E-01 5.652891099E-02 9.574080176E-01
 5.692848563E-01 5.740389600E-02 9.637214119E-01
 5.566262007E-01 5.814122781E-02 9.685171977E-01
 5.442322493E-01 5.881367251E-02 9.722401393E-01
 5.329727530E-01 5.934314430E-02 9.737787534E-01
 5.212170482E-01 5.983712897E-02 9.755447239E-01
 5.085008740E-01 6.032096222E-02 9.749581110E-01
 4.971951246E-01 6.064045057E-02 9.716723745E-01
 4.839977920E-01 6.097349897E-02 9.697435249E-01
 4.707581103E-01 6.122386456E-02 9.698151190E-01
 4.565570951E-01 6.142201647E-02 9.684239661E-01
 4.427874386E-01 6.150395796E-02 9.654967210E-01
 4.297410548E-01 6.150946394E-02 9.621376219E-01
 4.168887436E-01 6.144587696E-02 9.579288024E-01
 4.046134651E-01 6.131238863E-02 9.537029660E-01
 3.920874298E-01 6.111010537E-02 9.502071436E-01
 3.799914718E-01 6.085889786E-02 9.469816693E-01
 3.690334260E-01 6.057782471E-02 9.422727140E-01
 3.558461964E-01 6.015964225E-02 9.362921898E-01
 3.437102437E-01 5.970996618E-02 9.311624075E-01
 3.311537504E-01 5.918836594E-02 9.277252936E-01
 3.206540048E-01 5.870983750E-02 9.233075360E-01
 3.082005084E-01 5.806349963E-02 9.172057015E-01
 2.952159047E-01 5.732981861E-02 9.119020816E-01
 2.813277841E-01 5.646840110E-02 9.070275910E-01
 2.686960399E-01 5.561073497E-02 9.007815698E-01
 2.567069530E-01 5.472279713E-02 8.936249084E-01
 2.441466600E-01 5.373550206E-02 8.868194776E-01
 2.312595397E-01 5.264138058E-02 8.816218394E-01
 2.189325690E-01 5.154010653E-02 8.765047386E-01
 2.070985138E-01 5.039453506E-02 8.710984542E-01
 1.956853420E-01 4.923686758E-02 8.656938698E-01
 1.830721945E-01 4.787729308E-02 8.597614492E-01
 1.710932553E-01 4.650314525E-02 8.527078069E-01
 1.594267339E-01 4.508600384E-02 8.461713909E-01
 1.473817527E-01 4.354207963E-02 8.404346299E-01
 1.365623474E-01 4.207277671E-02 8.331049553E-01
 1.249938756E-01 4.040798172E-02 8.266462761E-01
 1.134137735E-01 3.864359111E-02 8.200413727E-01
 1.027595177E-01 3.692127019E-02 8.116245265E-01
 9.303961694E-02 3.525751084E-02 8.045168055E-01
 8.194071800E-02 3.322948515E-02 7.951966060E-01
 7.022655010E-02 3.092714585E-02 7.847289900E-01
 6.045222655E-02 2.883849293E-02 7.723090314E-01
 5.087294802E-02 2.662777714E-02 7.524828769E-01
 4.209687561E-02 2.440653183E-02 7.416389481E-01
 3.465272859E-02 2.234147117E-02 7.361632499E-01
 2.812348679E-02 2.034283802E-02 7.247076220E-01
 2.267367393E-02 1.850190014E-02 7.103105372E-01
 1.872126944E-02 1.702393033E-02 6.897418537E-01
 1.504613832E-02 1.552154031E-02 6.688898413E-01
 1.237226836E-02 1.431378163E-02 6.571516839E-01
 9.987149388E-03 1.313250605E-02 6.410687760E-01
 8.238575421E-03 1.218326483E-02 6.435565125E-01
 6.666021887E-03 1.125843823E-02 6.250694293E-01
 5.232776981E-03 1.032747515E-02 5.799299886E-01
 3.356126137E-03 8.950310759E-03 4.956103089E-01
 1.731088734E-03 7.518299390E-03 4.270125014E-01
 3.298764059E-04 5.968614947E-03 3.916530060E-01
 -9.796562372E-04 3.893508110E-03 3.269045238E-01
 -1.574775088E-03 2.264376730E-03 1.892633446E-01
 -1.790024224E-03 9.600872872E-04 8.654255482E-02
 -1.757143764E-03 -6.062123575E-04 3.998663576E-02
 -1.361093833E-03 -2.369997790E-03 1.551890070E-01
 -4.610492906E-04 -4.389819689E-03 2.689867919E-01
 9.837107500E-04 -6.530573126E-03 3.234491861E-01
 3.046796657E-03 -8.788457140E-03 3.851750794E-01
 4.922683351E-03 -1.045951061E-02 4.414047336E-01
 7.082526106E-03 -1.211753022E-02 4.849349401E-01
 8.714470081E-03 -1.324009430E-02 5.192824083E-01
 1.074377261E-02 -1.451882068E-02 5.499368467E-01
 1.314168889E-02 -1.589589566E-02 5.784976548E-01
 1.638850383E-02 -1.759027317E-02 6.018183637E-01
 1.943999156E-02 -1.903175563E-02 6.279642091E-01
 2.337100543E-02 -2.073262446E-02 6.526341247E-01
 2.873035148E-02 -2.282309905E-02 6.787046392E-01
 3.448047116E-02 -2.484383062E-02 7.006418535E-01
 4.170412943E-02 -2.711878903E-02 7.280226662E-01
 4.922405258E-02 -2.926272899E-02 7.517060301E-01
 5.793913454E-02 -3.151982278E-02 7.679243418E-01
 6.665627658E-02 -3.357593715E-02 7.810732165E-01
 7.686167955E-02 -3.579097614E-02 7.911305697E-01
 8.660029620E-02 -3.773412108E-02 8.017891428E-01
 9.692168236E-02 -3.964689001E-02 8.120662340E-01
 1.077531204E-01 -4.151286185E-02 8.239735493E-01
 1.191865280E-01 -4.335038364E-02 8.346554719E-01
 1.306653321E-01 -4.507499933E-02 8.439311466E-01
 1.411718279E-01 -4.654924572E-02 8.508638342E-01
 1.520410478E-01 -4.798297584E-02 8.574798625E-01
 1.638026386E-01 -4.945657775E-02 8.651832721E-01
 1.753319651E-01 -5.078988522E-02 8.745535178E-01
 1.870891303E-01 -5.207258463E-02 8.839837140E-01
 1.975241303E-01 -5.313431099E-02 8.931281242E-01
 2.085647136E-01 -5.418593064E-02 9.001518402E-01
 2.206760794E-01 -5.524916947E-02 9.072050179E-01
 2.331103832E-01 -5.625693500E-02 9.149173418E-01
 2.453185767E-01 -5.714907870E-02 9.225986252E-01
 2.580475211E-01 -5.799838528E-02 9.330645395E-01
 2.692584991E-01 -5.865127593E-02 9.418750192E-01
 2.819709480E-01 -5.929673091E-02 9.510283758E-01
 2.944737673E-01 -5.981311947E-02 9.584244896E-01
 3.074518144E-01 -6.025782228E-02 9.658388553E-01
 3.192081153E-01 -6.054511666E-02 9.734291193E-01
 3.317272663E-01 -6.074686721E-02 9.808773885E-01
 3.425410986E-01 -6.082803383E-02 9.888603013E-01
 3.539305627E-01 -6.080856919E-02 9.947196670E-01
 3.649662137E-01 -6.069919840E-02 9.999616742E-01
 3.757044375E-01 -6.048763171E-02 1.001973518E+00
 3.872696459E-01 -6.016755104E-02 1.000338954E+00
 3.999395669E-01 -5.966338888E-02 9.965601836E-01
 4.124267995E-01 -5.904950947E-02 9.886704267E-01
 4.254367352E-01 -5.826098844E-02 9.773473168E-01
 4.381120205E-01 -5.737678334E-02 9.626956701E-01
 4.506846368E-01 -5.635586381E-02 9.449020974E-01
 4.630100429E-01 -5.523253977E-02 9.248009650E-01
 4.758118689E-01 -5.398790166E-02 9.066962607E-01
 4.875786602E-01 -5.272575840E-02 8.927157802E-01
 5.001512170E-01 -5.131131783E-02 8.766614341E-01
 5.137306452E-01 -4.965620488E-02 8.584246570E-01
 5.275325179E-01 -4.790613055E-02 8.392929978E-01
 5.410156250E-01 -4.615782574E-02 8.237473381E-01
 5.544064045E-01 -4.431840777E-02 8.080865931E-01
 5.674521923E-01 -4.251516610E-02 7.933983619E-01
 5.805565715E-01 -4.065182433E-02 7.806029594E-01
 5.930104852E-01 -3.888149187E-02 7.694786795E-01
 6.054853797E-01 -3.707535937E-02 7.590603931E-01
 6.189777851E-01 -3.509285301E-02 7.471330781E-01
 6.333293319E-01 -3.299405053E-02 7.359888504E-01
 6.470964551E-01 -3.095792048E-02 7.263283302E-01
 6.606097817E-01 -2.901094966E-02 7.176540146E-01
 6.741319895E-01 -2.703106590E-02 7.083409803E-01
 6.865710020E-01 -2.521594055E-02 6.980980812E-01
 6.989431977E-01 -2.343937010E-02 6.891263576E-01
 7.136657238E-01 -2.134755626E-02 6.806684978E-01
 7.267041206E-01 -1.954614185E-02 6.730651668E-01
 7.384854555E-01 -1.793935522E-02 6.669086790E-01
 7.511628270E-01 -1.623447239E-02 6.605670621E-01
 7.637202740E-01 -1.455599442E-02 6.529968001E-01
 7.766126394E-01 -1.287862565E-02 6.452480499E-01
 7.884590030E-01 -1.138014253E-02 6.377882970E-01
 8.011044860E-01 -9.822805412E-03 6.311718988E-01
 8.123774529E-01 -8.510467596E-03 6.247202822E-01
 8.235867023E-01 -7.213140838E-03 6.174412741E-01
 8.359172344E-01 -5.874632392E-03 6.113752879E-01
 8.483445048E-01 -4.625024740E-03 6.053856692E-01
 8.603643179E-01 -3.488207702E-03 6.002609028E-01
 8.722757101E-01 -2.485047327E-03 5.958783998E-01
 8.840960860E-01 -1.571853412E-03 5.909829550E-01
 8.972298503E-01 -7.077420596E-04 5.863670864E-01
 9.074344039E-01 -1.466587128E-04 5.835678725E-01
 9.177132845E-01 3.172750585E-04 5.822977899E-01
 9.272246361E-01 6.572165294E-04 5.812573927E-01
 9.361428618E-01 9.003113955E-04 5.807951403E-01
 9.485689998E-01 1.106392010E-03 5.800780138E-01
 9.621649981E-01 1.177193248E-03 5.830446386E-01
 9.769404531E-01 1.076252782E-03 5.720269340E-01
 9.893165827E-01 8.359256899E-04 5.893420105E-01
 -5.000000000E-01 -1.000000000E+00 7.125108217E-01
 3.500000000E+00 -1.000000000E+00 7.309167658E-01
 3.500000000E+00 1.000000000E+00 7.288827785E-01
 -5.000000000E-01 1.000000000E+00 7.111501044E-01
 -5.000000000E-01 5.000000000E-01 7.002823072E-01
 -5.000000000E-01 2.752797990E-12 6.878953087E-01
 -5.000000000E-01 -5.000000000E-01 6.995973455E-01
 -9.421907698E-13 -1.000000000E+00 7.221939559E-01
 5.000000000E-01 -1.000000000E+00 7.432367904E-01
 1.000000000E+00 -1.000000000E+00 7.315371296E-01
 1.500000000E+00 -1.000000000E+00 7.220745624E-01
 2.000000000E+00 -1.000000000E+00 7.237541934E-01
 2.500000000E+00 -1.000000000E+00 7.272714061E-01
 3.000000000E+00 -1.000000000E+00 7.290693333E-01
 3.500000000E+00 -5.000000000E-01 7.331889605E-01
 3.500000000E+00 -2.752797990E-12 7.348443332E-01
 3.500000000E+00 5.000000000E-01 7.325028628E-01
 3.000000000E+00 1.000000000E+00 7.274056237E-01
 2.500000000E+00 1.000000000E+00 7.300018569E-01
 2.000000000E+00 1.000000000E+00 7.349001562E-01
 1.500000000E+00 1.000000000E+00 7.459140228E-01
 1.000000000E+00 1.000000000E+00 7.668359917E-01
 5.000000000E-01 1.000000000E+00 7.664827479E-01
 1.733724275E-12 1.000000000E+00 7.294596786E-01
 6.815660888E-01 -3.958272314E-02 7.098792794E-01
 7.830220056E-01 -2.290921809E-02 6.485943913E-01
 9.051602827E-01 -1.379484635E-02 5.958443023E-01
 6.950313609E-01 5.728553333E-02 8.855313942E-01
 6.007846161E-01 6.756125522E-02 9.464778781E-01
 2.761505663E-01 -7.007779685E-02 9.491444062E-01
 2.704570654E-01 7.071829348E-02 9.035034472E-01
 9.029701152E-01 2.735696034E-02 7.567348037E-01
 7.922320309E-01 4.434818177E-02 8.275512541E-01
 5.737400325E-01 -5.577135430E-02 7.943824925E-01
 4.037987217E-01 -7.081833888E-02 9.923578089E-01
 4.197995812E-01 7.314858929E-02 9.600099268E-01
 1.838294214E+00 -5.933603721E-01 7.276459896E-01
 1.787492728E+00 6.443754533E-01 7.435762991E-01
 3.031179389E+00 2.156822456E-01 7.376297022E-01
 7.804150889E-01 -5.917145087E-01 7.348283477E-01
 4.801264004E-01 -6.946878765E-02 9.053996152E-01
 3.456531218E-01 -6.846271448E-01 7.679102769E-01
 1.116603651E-01 -5.663908883E-02 8.416817278E-01
 1.769884864E-01 -6.481224775E-02 8.896480103E-01
 7.550123635E-01 5.635109645E-01 8.127765956E-01
 5.084402049E-01 7.000572592E-02 9.738695312E-01
 2.734838448E+00 -5.327011287E-01 7.332873116E-01
 1.155431909E+00 6.901795766E-01 7.635604440E-01
 9.972472995E-01 3.329427892E-01 7.575604385E-01
 1.295876833E+00 -5.934743000E-01 7.181957820E-01
 1.514333208E+00 -2.456455714E-01 7.270123614E-01
 3.330568124E-01 6.149401711E-01 7.894177736E-01
 1.054980998E-01 5.020764400E-02 8.191016951E-01
 1.652142367E-01 5.564739690E-02 8.526151971E-01
 3.480873977E-01 6.903763955E-02 9.338854663E-01
 2.249251855E+00 -5.876322736E-01 7.310765084E-01
 2.037689918E+00 -2.251538968E-01 7.346107834E-01
 2.422391883E+00 -1.886323526E-01 7.368580624E-01
 2.184588094E+00 1.581490613E-01 7.400649969E-01
 1.809424438E+00 6.537467067E-02 7.362956098E-01
 -2.742051385E-01 2.319362982E-01 6.814106006E-01
 -1.006319302E-01 6.208762015E-01 7.255639076E-01
 2.903694806E-02 3.287986033E-01 7.298856487E-01
 4.556232702E-02 3.304879551E-02 7.542388364E-01
 -2.709667364E-01 -2.366695408E-01 6.806793027E-01
 -1.459933812E-01 -6.010123645E-01 7.172159827E-01
 1.099946768E-01 -3.791824229E-01 7.641176320E-01
 2.240396434E+00 5.541793126E-01 7.397820881E-01
 2.746232454E+00 5.960143782E-01 7.360071915E-01
 -2.351266811E-01 -4.622638756E-03 6.610098139E-01
 -1.277829894E-01 1.264114144E-01 6.519711628E-01
 -1.189648081E-01 -1.416929897E-01 6.550955302E-01
 6.259879047E-02 -4.125579148E-02 7.812938793E-01
 -7.929033410E-02 -3.241614337E-01 7.028797045E-01
 6.090609087E-03 -1.811962769E-01 6.971911220E-01
 3.094514461E-02 -2.950363511E-02 6.969481461E-01
 1.620694044E-01 -2.264701625E-01 8.149299583E-01
 3.387729830E-01 -7.221355589E-02 9.849643189E-01
 3.732566135E-01 -7.200143535E-02 9.991297540E-01
 3.143392528E-01 -7.320027520E-02 9.703341910E-01
 2.264302652E-01 -6.899084717E-02 9.171656975E-01
 -3.684281267E-02 -9.771054239E-02 6.224772427E-01
 -1.092299986E-01 -2.394539163E-02 6.027979827E-01
 -7.058309558E-02 5.534552265E-02 5.860131348E-01
 2.604121491E-02 -1.061582710E-01 7.082869121E-01
 3.109355185E+00 -2.612832453E-01 7.360322951E-01
 -4.619573452E-02 -3.640460525E-02 5.541750952E-01
 -5.091968282E-02 1.155294130E-02 5.358885514E-01
 -2.841200455E-02 5.024322055E-02 5.719666827E-01
 2.418866215E-02 2.621621284E-02 7.069300692E-01
 -3.693736305E-02 1.024394150E-01 6.351869064E-01
 3.433285586E-02 1.149679689E-01 7.167108003E-01
 7.387724508E-02 4.074555651E-02 7.910484152E-01
 -2.107845425E-02 1.848003265E-01 6.917181218E-01
 8.942821647E-02 1.908591893E-01 7.714237985E-01
 2.119510866E-01 6.310415463E-02 8.767555477E-01
 1.717510264E-01 3.019387783E-01 7.999522581E-01
 1.865976836E-01 6.475276640E-02 8.654109288E-01
 1.986631920E-01 1.846190241E-01 8.431604379E-01
 2.822472521E-01 2.657376590E-01 8.547253762E-01
 2.972720914E-01 1.662373508E-01 8.944375353E-01
 3.681083022E-01 2.226614756E-01 8.957636992E-01
 3.123536302E-01 7.176236695E-02 9.212047463E-01
 3.733306998E-01 1.459168211E-01 9.299568276E-01
 4.384545199E-01 1.838619649E-01 9.293390082E-01
 5.524942570E-01 7.124923053E-02 9.703087414E-01
 5.262279405E-01 7.171552531E-02 9.746456835E-01
 4.638207925E-01 7.301831905E-02 9.691116529E-01
 4.479526477E-01 2.720763160E-01 8.935507486E-01
 5.320081883E-01 2.096769599E-01 9.215082124E-01
 3.852170191E-01 7.318888435E-02 9.492375302E-01
 5.437888700E-01 3.465929860E-01 8.783743897E-01
 6.345504599E-01 2.633908844E-01 8.830775014E-01
 6.485125592E-01 6.038120018E-02 9.161219752E-01
 6.181324093E-01 1.622167422E-01 9.178502188E-01
 7.124488222E-01 1.864894703E-01 8.658451694E-01
 7.418737962E-01 5.311247125E-02 8.568037080E-01
 7.193755950E-01 5.595382438E-02 8.706787605E-01
 7.396019376E-01 2.715342368E-01 8.415803195E-01
 8.214132519E-01 2.017363480E-01 8.138686523E-01
 8.562377383E-01 3.929520965E-02 7.962448728E-01
 8.828701092E-01 3.804954808E-02 7.767922633E-01
 8.320468852E-01 4.375349941E-02 8.085287125E-01
 7.661156437E-01 1.325141174E-01 8.449701091E-01
 8.699933690E-01 1.317377747E-01 7.887648075E-01
 9.557833013E-01 2.219394909E-02 6.984725731E-01
 9.271096442E-01 2.313996125E-02 7.307394486E-01
 6.740478608E-01 1.283155774E-01 8.980556449E-01
 5.484961908E-01 1.413660989E-01 9.537214996E-01
 2.410506183E-01 1.265579348E-01 8.846766713E-01
 1.856672458E-01 1.241205289E-01 8.578248599E-01
 8.293451824E-01 9.912528212E-02 8.138226153E-01
 6.291038641E-01 1.104997900E-01 9.286990834E-01
 6.233467903E-01 6.658790275E-02 9.335143304E-01
 9.180446430E-01 2.166814138E-01 7.687701082E-01
 9.566247080E-01 1.259840997E-01 7.387034163E-01
 9.094885671E-01 8.778828818E-02 7.648566487E-01
 1.006877264E+00 2.144887772E-01 7.392391130E-01
 1.063010868E+00 1.473696899E-01 7.148292004E-01
 1.115471910E+00 2.630893220E-01 7.334733140E-01
 1.165569826E+00 1.335773052E-01 7.148818791E-01
 1.318213331E+00 2.786530198E-01 7.348212644E-01
 1.135988373E+00 -2.248041881E-03 6.877462009E-01
 1.286624694E+00 2.832196318E-02 7.156425628E-01
 1.213966941E+00 -1.221309509E-01 7.073082165E-01
 1.078748675E+00 -1.102213154E-01 6.809846637E-01
 9.551863583E-01 -1.117359009E-02 5.942914644E-01
 9.338160982E-01 -7.567596515E-03 5.880461209E-01
 9.399363561E-01 -2.930093349E-02 6.069124869E-01
 1.132852122E+00 -2.433514094E-01 6.978333838E-01
 9.849669619E-01 -2.153524479E-01 6.763592539E-01
 8.428719177E-01 -2.155352652E-02 6.205196246E-01
 1.036214901E+00 -3.654704328E-01 6.955246804E-01
 9.531562851E-01 6.905586355E-02 7.250544124E-01
 1.010593417E+00 6.486524167E-02 6.875310524E-01
 9.824820748E-01 1.541073736E-02 6.525924507E-01
 8.816056208E-02 1.061819894E-01 7.931755714E-01
 3.303861996E-01 1.193359644E-01 9.253818513E-01
 4.275282952E-01 1.279198473E-01 9.531649345E-01
 4.835789272E-01 1.316485127E-01 9.565500965E-01
 6.819908269E-01 3.858660617E-01 8.461041235E-01
 8.584947076E-01 -3.425828310E-01 7.010913303E-01
 8.264293776E-01 -1.837823579E-01 6.840311239E-01
 7.230345562E-01 -2.667483995E-01 7.246196097E-01
 7.328730505E-01 -2.869928384E-02 6.760914243E-01
 7.601007361E-01 -2.920810158E-02 6.633436504E-01
 6.944947569E-01 -1.707721013E-01 7.301826297E-01
 6.291195293E-01 -4.410545194E-02 7.457252055E-01
 9.174605246E-01 -1.303966286E-01 6.578017788E-01
 5.450881700E-01 -4.617603226E-01 7.822305007E-01
 5.238629176E-01 -2.334279285E-01 8.238650248E-01
 1.436019146E-01 4.548823596E-01 7.680687372E-01
 -1.992785520E-03 -5.787131113E-02 6.250405641E-01
 1.178822910E-02 -1.792340388E-02 5.641835148E-01
 5.183427572E-01 1.049277893E-01 9.695264444E-01
 4.273085914E-01 4.070287445E-01 8.529923840E-01
 1.072630964E+00 -2.668635379E-02 6.613299586E-01
 1.500269864E+00 1.148565208E-01 7.300210956E-01
 3.479639100E-02 -6.953514998E-02 7.414329779E-01
 4.585407979E-02 -3.639014721E-02 7.454466958E-01
 7.234939662E-02 -9.272910279E-02 7.951174030E-01
 7.959928634E-02 -4.860852298E-02 8.076433334E-01
 8.650421183E-02 -1.525232179E-01 7.823742798E-01
 1.445340032E-01 -5.764424202E-02 8.628759639E-01
 1.271098631E-01 -1.009373795E-01 8.500004567E-01
 5.530898620E-01 1.059289976E-01 9.670475958E-01
 5.777771949E-01 6.905294822E-02 9.608173556E-01
 6.595429193E-01 9.472700101E-02 9.136910743E-01
 6.707457606E-01 5.755643622E-02 9.020654755E-01
 6.959790364E-01 9.372315462E-02 8.902594338E-01
 7.182812506E-01 1.273029109E-01 8.724252909E-01
 7.333997289E-01 9.304196698E-02 8.669372676E-01
 1.321804377E+00 -3.159826777E-01 7.170031888E-01
 1.026657063E+00 -5.453812138E-01 7.135049654E-01
 3.631659347E-01 1.085999189E-01 9.404130525E-01
 3.954742022E-01 1.041032222E-01 9.506849995E-01
 3.604787159E-01 7.249088917E-02 9.393844180E-01
 1.720635214E-02 6.339811979E-02 6.878383370E-01
 5.639002429E-02 8.213601146E-02 7.649785043E-01
 7.569484265E-01 5.251035161E-02 8.473112102E-01
 9.213985564E-01 5.779160935E-02 7.488195973E-01
 3.380295095E-01 6.839717350E-02 9.306250126E-01
 3.417610259E-01 8.481565597E-02 9.339623052E-01
 1.455002736E+00 5.487860439E-01 7.482655115E-01
 5.630360645E-01 5.180657999E-01 8.389080721E-01
 2.119636162E-01 9.867239980E-02 8.776164275E-01
 2.377432001E-01 6.519902571E-02 8.875483271E-01
 3.274409991E-01 7.223648421E-02 9.276435809E-01
 3.206940737E-01 9.054550540E-02 9.247055253E-01
 2.964985075E-01 8.643904980E-02 9.164349197E-01
 6.820968036E-01 5.855404008E-02 8.955691895E-01
 6.736585787E-01 7.344372654E-02 9.038760560E-01
 7.109607273E-01 7.049213400E-02 8.796117480E-01
 4.549884117E-01 1.057730977E-01 9.650987176E-01
 4.852543580E-01 1.034054543E-01 9.691209493E-01
 4.448398849E-01 8.620105018E-02 9.666186338E-01
 4.243230883E-01 9.298103906E-02 9.610129760E-01
 4.063986774E-01 8.062814453E-02 9.558346658E-01
 2.999800134E-01 6.840812612E-02 9.154956933E-01
 4.488548421E-01 7.098271789E-02 9.668632562E-01
 4.930649153E-01 6.995620332E-02 9.712698977E-01
 4.775944424E-01 7.254704236E-02 9.705073225E-01
 8.485437250E-01 3.474762575E-01 7.995360668E-01
 9.164064631E-01 2.600623638E-02 7.449343162E-01
 7.495275900E-01 7.010521618E-02 8.564506659E-01
 7.708798413E-01 6.596535610E-02 8.441933713E-01
 4.350576483E-01 7.438780305E-02 9.638860488E-01
 8.916381016E-01 6.000044759E-02 7.746079134E-01
 8.923668788E-01 3.047493503E-02 7.667248244E-01
 8.685466775E-01 5.156015356E-02 7.896920494E-01
 8.478525035E-01 5.439872428E-02 8.030333895E-01
 8.631740440E-01 7.885393075E-02 7.954840380E-01
 8.220428822E-01 6.447705349E-02 8.172751294E-01
 6.606453636E-01 6.152657579E-02 9.087968284E-01
 3.735781084E-01 8.743171795E-02 9.454193576E-01
 7.688498098E-01 4.891817184E-02 8.404572584E-01
 8.192214114E-01 4.172873858E-02 8.150176134E-01
 9.390807724E-01 2.446359390E-02 7.166468924E-01
 9.443227797E-01 4.160809388E-02 7.207238695E-01
 9.712455399E-01 3.640589286E-02 6.865315682E-01
 7.801464632E-01 4.886702390E-02 8.354568663E-01
 -1.926253791E-02 -3.048870328E-02 5.193776130E-01
 2.175649421E-03 -1.311163982E-02 4.311803403E-01
 -1.736762350E-02 -5.560951991E-03 3.498651060E-01
 -8.578543208E-03 1.467356784E-02 4.416626394E-01
 8.679419901E-01 3.543563905E-02 7.867974211E-01
 9.686910283E-01 1.743983467E-02 6.756036685E-01
 5.655324667E-01 6.790404846E-02 9.661027708E-01
 5.680275539E-01 8.458957376E-02 9.654568634E-01
 5.883569517E-01 1.098340752E-01 9.514460620E-01
 5.892008060E-01 8.026314141E-02 9.549735322E-01
 6.110344272E-01 8.310473575E-02 9.420197732E-01
 6.356868826E-01 8.242146484E-02 9.281371595E-01
 5.392704173E-01 8.569437850E-02 9.724639248E-01
 2.563487822E+00 2.031144421E-01 7.397665840E-01
 5.390771259E-01 6.917155291E-02 9.731899836E-01
 8.439731644E-01 3.860598314E-02 8.028014939E-01
 9.709744541E-01 -8.939413306E-03 5.850308245E-01
 9.845896465E-01 -9.590654904E-03 5.960731309E-01
 9.735587277E-01 -2.906686317E-02 6.070374671E-01
 9.598705266E-01 -5.583225586E-02 6.290005692E-01
 9.205467682E-01 -6.344523890E-02 6.293795953E-01
 9.914422147E-01 -5.676883136E-02 6.329114487E-01
 1.010052843E+00 -3.048431748E-02 6.264720877E-01
 7.934468049E-01 6.003258033E-02 8.323057535E-01
 7.931564682E-01 9.255283736E-02 8.338141489E-01
 1.408417203E+00 -1.004672507E-01 7.229506562E-01
 1.602266969E+00 -7.995757669E-02 7.306187469E-01
 -1.202507318E-01 2.648189446E-01 6.888502992E-01
 7.996588116E-02 7.314107751E-02 8.021635316E-01
 1.261258802E-01 9.307093426E-02 8.295766242E-01
 1.397677822E-01 5.176150599E-02 8.386326501E-01
 5.476882919E-02 5.322037924E-02 7.731175488E-01
 4.817860005E-02 -4.932100999E-02 7.664062579E-01
 3.038870684E-02 -4.674925309E-02 7.041577690E-01
 1.214180532E-02 -3.799624268E-02 6.281388773E-01
 1.726367614E-02 -2.187825591E-02 6.143376646E-01
 6.567286203E-02 -6.202438274E-02 7.991801946E-01
 -1.420919356E-03 -3.081176290E-02 5.484382840E-01
 2.032064930E-02 -3.049532414E-02 6.503771243E-01
 7.329750599E-03 -2.313621351E-02 5.493137362E-01
 6.926329085E-03 -1.409211720E-02 5.070261734E-01
 7.077109301E-01 5.480823350E-02 8.776959671E-01
 9.778526789E-01 -1.014315006E-01 6.511075277E-01
 8.608276238E-01 -9.200533736E-02 6.533281783E-01
 7.786454726E-01 -1.140034117E-01 6.857444158E-01
 8.120839147E-01 -6.852951019E-02 6.596117165E-01
 8.178130892E-01 -1.956471625E-02 6.306153095E-01
 8.775008295E-01 -5.465758889E-02 6.307215837E-01
 8.781635038E-01 -1.479669661E-02 6.033126148E-01
 8.470251906E-01 -4.956608972E-02 6.369237102E-01
 8.293014284E-01 -1.719571035E-02 6.231897119E-01
 6.342312761E-01 -7.476203952E-01 7.585917897E-01
 3.432845233E-01 -4.043113832E-01 8.120078237E-01
 3.577787470E-01 -2.543765781E-01 8.802313735E-01
 7.312219184E-01 6.578369582E-02 8.665428047E-01
 8.259504432E-01 -3.487645041E-02 6.364887183E-01
 8.048755063E-01 -3.511441478E-02 6.460803416E-01
 7.837804576E-01 -5.152457647E-02 6.635568358E-01
 7.391365557E-01 -7.816786272E-02 6.942365616E-01
 7.575310370E-01 -5.009406998E-02 6.754570165E-01
 9.152743864E-02 -4.874449036E-02 8.187055532E-01
 9.611373500E-02 -6.675935266E-02 8.336744834E-01
 1.209548803E-01 -7.188185142E-02 8.584389050E-01
 1.007952683E-01 -5.066053674E-02 8.279667743E-01
 7.301301329E-01 5.199298723E-02 8.627791474E-01
 -2.259444027E-04 3.772985287E-02 6.145083291E-01
 8.529740697E-03 2.176666665E-02 6.220344434E-01
 6.676681371E-03 1.303969303E-02 6.191078932E-01
 1.657422057E-02 1.909303519E-02 6.764214225E-01
 1.609695837E-02 3.704215734E-02 6.888103701E-01
 3.238071461E-02 4.053299714E-02 7.327721278E-01
 1.117526334E-02 1.596837249E-02 6.377163749E-01
 9.160072474E-01 -3.184222813E-02 6.078299955E-01
 9.217676600E-01 -1.630160677E-02 5.955663261E-01
 8.929628039E-01 -3.107195879E-02 6.118666034E-01
 8.641405639E-01 -2.877076443E-02 6.175957211E-01
 2.901311014E-01 1.181443351E-01 9.113172360E-01
 2.684148439E-01 9.253045973E-02 9.043165519E-01
 2.545224310E-01 7.923987119E-02 8.958094785E-01
 7.740369782E-01 -3.604308975E-02 6.606053954E-01
 1.836266373E-01 9.083892647E-02 8.654339386E-01
 2.231889923E-01 7.892965576E-02 8.842663495E-01
 8.915225053E-01 -1.238861944E-02 5.972870070E-01
 2.853156865E-01 7.198235814E-02 9.103376014E-01
 2.854598840E-01 4.042579185E-01 8.244847448E-01
 1.263689162E-01 -5.975596482E-02 8.557512123E-01
 7.713267630E-01 -2.408798244E-02 6.543597979E-01
 5.889724643E-01 6.581957710E-02 9.542089836E-01
 4.585775875E-01 -3.154066737E-01 8.386191318E-01
 4.468352812E-01 -1.832617336E-01 8.926514614E-01
 4.442021725E-01 -6.890861472E-02 9.538514771E-01
 5.521638154E-01 -1.615780656E-01 8.125506229E-01
 5.191158928E-01 -6.306761583E-02 8.554956078E-01
 3.666675054E-01 -1.537421080E-01 9.373974364E-01
 4.989681037E-01 -1.333138355E-01 8.697794837E-01
 2.858938414E-01 -1.863516163E-01 8.932312432E-01
 2.544536349E-01 -2.781197075E-01 8.383158943E-01
 2.114868504E-01 -1.484908367E-01 8.782884842E-01
 6.171286092E-01 -2.255340699E-01 7.681394119E-01
 3.105424518E-01 -1.310633297E-01 9.429030258E-01
 4.140705036E-01 -1.226287095E-01 9.573481255E-01
 4.543785366E-01 -1.141250588E-01 9.285237771E-01
 3.507518824E-01 -1.123417685E-01 9.736678743E-01
 3.824026244E-01 -1.081078020E-01 9.821524870E-01
 4.899849802E-01 -9.210223528E-02 8.943892866E-01
 5.222858491E-01 -9.861958057E-02 8.560807259E-01
 5.491827286E-01 -6.247240540E-02 8.223042875E-01
 5.869574076E-01 -1.132811674E-01 7.931628458E-01
 5.547598047E-01 -8.839988605E-02 8.223573332E-01
 5.335878463E-01 -5.922384044E-02 8.370369231E-01
 4.293947516E-01 -9.854064785E-02 9.644489185E-01
 4.286895028E-01 -7.703748659E-02 9.696431373E-01
 3.173629781E-01 -1.040251200E-01 9.640036145E-01
 2.843606733E-01 -1.050021427E-01 9.481048078E-01
 6.289288470E-01 -1.563902338E-01 7.628564761E-01
 6.371191084E-01 -1.001131931E-01 7.582719867E-01
 6.062533805E-01 -7.146795050E-02 7.744623373E-01
 6.013877150E-01 -4.904623127E-02 7.691792982E-01
 6.854504682E-01 -1.131468982E-01 7.320731732E-01
 6.717495984E-01 -7.766031112E-02 7.321390204E-01
 6.545649518E-01 -4.317938831E-02 7.289728848E-01
 6.164503268E-01 -4.972067145E-02 7.581691011E-01
 5.790748771E-01 -7.450403089E-02 7.976687484E-01
 6.403176879E-01 -4.255459877E-02 7.372401136E-01
 6.374781714E-01 -6.153618260E-02 7.471177145E-01
 5.890038436E-01 -5.505381386E-02 7.816079994E-01
 6.715958078E-01 -5.495914432E-02 7.250215483E-01
 6.929704676E-01 -5.397669467E-02 7.103412958E-01
 7.065501222E-01 -3.709689023E-02 6.939943690E-01
 7.161314021E-01 -5.469730971E-02 6.977471186E-01
 5.312260020E-01 -7.507962570E-02 8.453975224E-01
 5.121465553E-01 -7.914703690E-02 8.696131578E-01
 4.656398460E-01 -8.030071042E-02 9.250269134E-01
 4.460910858E-01 -8.649501470E-02 9.501246216E-01
 7.269560142E-01 -1.231299042E-01 7.092133533E-01
 4.997520917E-01 -6.578613396E-02 8.804060489E-01
 7.212506794E-01 -3.453167767E-02 6.844560985E-01
 6.933201757E-01 -3.586232374E-02 7.003228143E-01
 7.072301297E-02 -2.650272424E-01 7.481780900E-01
 8.060958674E-01 4.608722074E-02 8.222816293E-01
 1.075689541E-01 7.119171398E-02 8.217936069E-01
 1.460837869E-01 7.968578076E-02 8.461963072E-01
 8.703879827E-02 5.390011857E-02 8.074740174E-01
 1.201163674E-01 5.618844363E-02 8.284911404E-01
 7.724886654E-01 -7.457490448E-02 6.782900983E-01
 1.746965760E+00 -2.680515089E-01 7.311401651E-01
 8.194965972E-01 -1.145801543E-01 6.718312244E-01
 9.572640536E-01 5.253362484E-01 7.776813534E-01
 7.452887939E-01 -3.132969452E-02 6.718440605E-01
 5.054575295E-01 -1.778953908E-01 8.557376724E-01
 5.641249392E-01 -6.732245672E-02 8.086075680E-01
 6.684937239E-01 -3.875265426E-02 7.181178089E-01
 7.626158544E-01 9.083589881E-02 8.516729093E-01
 3.272669766E-01 -7.080668828E-02 9.776900659E-01
 3.133974596E+00 6.339745962E-01 7.325062467E-01
 2.394808339E-01 9.603799966E-02 8.912958101E-01
 9.226918769E-01 -6.174217459E-03 5.874412901E-01
 5.974266968E-01 -3.294178462E-01 7.778989609E-01
 1.760889389E-01 5.790871083E-02 8.582011465E-01
 1.659404881E-01 7.310247007E-02 8.564888674E-01
 2.029076218E-01 7.610434303E-02 8.746676119E-01
 3.133974596E+00 -6.339745962E-01 7.322971499E-01
 6.523003623E-01 7.247673895E-02 9.166891247E-01
 1.509948237E-01 5.958194745E-02 8.467777701E-01
 1.031120676E+00 -6.511621385E-02 6.583738876E-01
 6.382584000E-01 6.444619224E-02 9.244758695E-01
 1.963695148E+00 3.587426109E-01 7.433261513E-01
 3.305827743E-01 -8.696863164E-02 9.774649080E-01
 3.497613193E-01 -8.394499670E-02 9.896899751E-01