TITLE     = "Visualization of the solution"
VARIABLES = "x"
"y"
"Pressure_Coefficient"
ZONE T="Zone"
 STRANDID=0, SOLUTIONTIME=0
 Nodes=12209, Elements=23836, ZONETYPE=FEQuadrilateral
 DATAPACKING=POINT
 DT=(DOUBLE DOUBLE DOUBLE )
 1.000159383E+00 5.027774023E-04 2.427628810E-01
 9.862558246E-01 3.110240446E-03 1.682322612E-01
 9.732755423E-01 5.639608484E-03 1.038211597E-01
 9.568002820E-01 8.777717128E-03 6.129129334E-02
 9.418240786E-01 1.166935917E-02 1.266423535E-02
 9.272757769E-01 1.438526716E-02 -1.020070853E-02
 9.151725769E-01 1.666945033E-02 -3.988078964E-02
 9.027243257E-01 1.898887195E-02 -6.234530493E-02
 8.908803463E-01 2.120996453E-02 -9.544893438E-02
 8.786805868E-01 2.343448438E-02 -1.168822892E-01
 8.665262461E-01 2.562846802E-02 -1.470306571E-01
 8.541193008E-01 2.777278610E-02 -1.597057172E-01
 8.416567445E-01 2.990526892E-02 -1.820282095E-01
 8.303084373E-01 3.178951144E-02 -1.967730166E-01
 8.186042309E-01 3.368359432E-02 -2.051693653E-01
 8.062723279E-01 3.567463532E-02 -2.234159194E-01
 7.937786579E-01 3.766642138E-02 -2.478089489E-01
 7.817019224E-01 3.951960802E-02 -2.562100366E-01
 7.696089149E-01 4.136913642E-02 -2.782461508E-01
 7.582250834E-01 4.305854067E-02 -2.933825376E-01
 7.455352545E-01 4.489156231E-02 -3.072901113E-01
 7.321405411E-01 4.678758234E-02 -3.287423208E-01
 7.215472460E-01 4.822639748E-02 -3.348058715E-01
 7.108299136E-01 4.967727140E-02 -3.517061948E-01
 6.995717287E-01 5.116717517E-02 -3.730152489E-01
 6.864915490E-01 5.281019583E-02 -3.819411572E-01
 6.739823818E-01 5.435699970E-02 -4.071100169E-01
 6.638457775E-01 5.554256961E-02 -4.149944159E-01
 6.526756883E-01 5.681524053E-02 -4.324141403E-01
 6.413754225E-01 5.803006142E-02 -4.411602599E-01
 6.296853423E-01 5.923527852E-02 -4.505008574E-01
 6.186038852E-01 6.034465134E-02 -4.701623565E-01
 6.082183719E-01 6.131498143E-02 -4.758384816E-01
 5.960772634E-01 6.240599975E-02 -4.947673540E-01
 5.845650434E-01 6.335220486E-02 -5.012276849E-01
 5.712689757E-01 6.436663866E-02 -5.115606118E-01
 5.588495731E-01 6.523268670E-02 -5.192826794E-01
 5.465888381E-01 6.601729989E-02 -5.313458784E-01
 5.354561210E-01 6.664473563E-02 -5.304777404E-01
 5.238565803E-01 6.725419313E-02 -5.429990121E-01
 5.112200975E-01 6.780521572E-02 -5.393280518E-01
 5.002760887E-01 6.824350357E-02 -5.486540265E-01
 4.869647920E-01 6.866210699E-02 -5.472624172E-01
 4.736086130E-01 6.898903847E-02 -5.426866704E-01
 4.595844150E-01 6.925494224E-02 -5.458910135E-01
 4.458651543E-01 6.941050291E-02 -5.400125443E-01
 4.330005646E-01 6.950448453E-02 -5.479198671E-01
 4.199723005E-01 6.948291510E-02 -5.382715273E-01
 4.074932933E-01 6.940888613E-02 -5.378036007E-01
 3.948538303E-01 6.925787777E-02 -5.349293350E-01
 3.826553822E-01 6.904811412E-02 -5.352766034E-01
 3.710425794E-01 6.877455860E-02 -5.297296090E-01
 3.575578332E-01 6.837490201E-02 -5.229984268E-01
 3.450787067E-01 6.794124842E-02 -5.185668407E-01
 3.322001100E-01 6.742931902E-02 -5.215735840E-01
 3.212199807E-01 6.690794975E-02 -5.095644681E-01
 3.084985316E-01 6.625562906E-02 -5.084270960E-01
 2.954684794E-01 6.549594551E-02 -5.006624192E-01
 2.815814018E-01 6.460122764E-02 -4.962202059E-01
 2.693284750E-01 6.372728944E-02 -4.881750016E-01
 2.574180067E-01 6.281288713E-02 -4.816929447E-01
 2.450259775E-01 6.179367006E-02 -4.793013933E-01
 2.326789647E-01 6.068804115E-02 -4.733877701E-01
 2.205215245E-01 5.950805545E-02 -4.654353431E-01
 2.088057548E-01 5.828348547E-02 -4.529465882E-01
 1.973068267E-01 5.702456459E-02 -4.502585869E-01
 1.850337386E-01 5.557505041E-02 -4.416375244E-01
 1.732185632E-01 5.408116803E-02 -4.305513741E-01
 1.619608253E-01 5.257416889E-02 -4.222262845E-01
 1.502165943E-01 5.089952052E-02 -4.135423072E-01
 1.395061165E-01 4.927381873E-02 -4.035299627E-01
 1.280832142E-01 4.741774499E-02 -3.869971434E-01
 1.168125644E-01 4.548277706E-02 -3.778713746E-01
 1.063310876E-01 4.356072098E-02 -3.638911550E-01
 9.656473994E-02 4.166366905E-02 -3.512579908E-01
 8.558842540E-02 3.936772794E-02 -3.309501148E-01
 7.395719737E-02 3.675349429E-02 -3.140969986E-01
 6.398878247E-02 3.431835026E-02 -2.920339806E-01
 5.414934456E-02 3.170685470E-02 -2.651549459E-01
 4.530100897E-02 2.914843522E-02 -2.372575948E-01
 3.768168017E-02 2.673132718E-02 -2.041644410E-01
 3.090768121E-02 2.438906394E-02 -1.717528759E-01
 2.516952716E-02 2.220934257E-02 -1.442902278E-01
 2.103511989E-02 2.049041353E-02 -1.023088635E-01
 1.707545668E-02 1.870795712E-02 -7.227428182E-02
 1.407508738E-02 1.723180525E-02 -2.558208217E-02
 1.133813243E-02 1.575729810E-02 1.341418740E-02
 9.323142469E-03 1.458365750E-02 5.604489510E-02
 7.526983041E-03 1.344161853E-02 8.994593223E-02
 5.889082327E-03 1.231143996E-02 1.708603130E-01
 3.741926979E-03 1.062738337E-02 2.737465581E-01
 1.912622596E-03 8.924062364E-03 3.842826413E-01
 3.665130353E-04 7.125730626E-03 5.869114402E-01
 -1.109543489E-03 4.654648714E-03 8.457976414E-01
 -1.736244885E-03 2.762707882E-03 1.002930489E+00
 -1.927569159E-03 1.268575084E-03 1.090457560E+00
 -1.829276793E-03 -4.154531634E-04 1.110561059E+00
 -1.375754480E-03 -2.195540350E-03 1.036267263E+00
 -3.900589072E-04 -4.304866772E-03 8.979354202E-01
 1.142004272E-03 -6.491801701E-03 6.893488929E-01
 3.247072455E-03 -8.747469634E-03 5.376650034E-01
 5.138282198E-03 -1.040745247E-02 3.932507057E-01
 7.342070807E-03 -1.207818463E-02 3.145632288E-01
 9.031836875E-03 -1.322389860E-02 2.286774774E-01
 1.114150696E-02 -1.453237049E-02 1.831280596E-01
 1.356361527E-02 -1.590812393E-02 1.101942390E-01
 1.688986085E-02 -1.761469059E-02 6.663971089E-02
 1.993568242E-02 -1.904232241E-02 5.589507563E-04
 2.392753400E-02 -2.074903622E-02 -3.228104008E-02
 2.933264151E-02 -2.283625677E-02 -7.253900766E-02
 3.510936350E-02 -2.483993582E-02 -1.135242099E-01
 4.226540402E-02 -2.708539553E-02 -1.398114193E-01
 4.982135072E-02 -2.923538350E-02 -1.688079178E-01
 5.874088034E-02 -3.153175116E-02 -1.936754824E-01
 6.750633568E-02 -3.358775005E-02 -2.084610649E-01
 7.775946707E-02 -3.580674529E-02 -2.229828195E-01
 8.758737892E-02 -3.776593506E-02 -2.363580562E-01
 9.788560122E-02 -3.966933489E-02 -2.494192138E-01
 1.088244244E-01 -4.155663401E-02 -2.620092124E-01
 1.199814007E-01 -4.334472865E-02 -2.708487145E-01
 1.315780431E-01 -4.508817196E-02 -2.829987908E-01
 1.419927478E-01 -4.655765370E-02 -2.944185733E-01
 1.531106085E-01 -4.802630097E-02 -3.018228595E-01
 1.649702042E-01 -4.950597510E-02 -3.141662938E-01
 1.765047610E-01 -5.084467679E-02 -3.225832838E-01
 1.882247180E-01 -5.212625489E-02 -3.352784098E-01
 1.987407357E-01 -5.320146307E-02 -3.474114198E-01
 2.098576277E-01 -5.425014347E-02 -3.531871576E-01
 2.219216526E-01 -5.531207472E-02 -3.641217909E-01
 2.342654318E-01 -5.630934983E-02 -3.757893094E-01
 2.464046180E-01 -5.720018968E-02 -3.881389348E-01
 2.586280107E-01 -5.798711628E-02 -3.930571837E-01
 2.695076168E-01 -5.862243474E-02 -4.055900953E-01
 2.820049226E-01 -5.925199017E-02 -4.137446141E-01
 2.942726016E-01 -5.977013335E-02 -4.235713615E-01
 3.069898486E-01 -6.018302962E-02 -4.259361799E-01
 3.186644018E-01 -6.047860160E-02 -4.365618827E-01
 3.312615454E-01 -6.067893654E-02 -4.408277654E-01
 3.418712914E-01 -6.074343994E-02 -4.414407659E-01
 3.532731533E-01 -6.072653458E-02 -4.437608175E-01
 3.641971350E-01 -6.061166897E-02 -4.445200108E-01
 3.749608099E-01 -6.039923057E-02 -4.420668988E-01
 3.864400387E-01 -6.005961075E-02 -4.344494796E-01
 3.994387388E-01 -5.954404548E-02 -4.223384689E-01
 4.118836224E-01 -5.893435702E-02 -4.148550778E-01
 4.248634875E-01 -5.815924332E-02 -4.014547489E-01
 4.374187291E-01 -5.726431310E-02 -3.798335436E-01
 4.498207867E-01 -5.628053844E-02 -3.655133288E-01
 4.618520737E-01 -5.518957600E-02 -3.365182726E-01
 4.743641019E-01 -5.397370830E-02 -3.152614114E-01
 4.862232208E-01 -5.274428427E-02 -2.980016953E-01
 4.988559186E-01 -5.131112412E-02 -2.647347528E-01
 5.126737952E-01 -4.966673255E-02 -2.353091097E-01
 5.263975263E-01 -4.796854407E-02 -2.111608997E-01
 5.395430326E-01 -4.625698924E-02 -1.813343660E-01
 5.527120829E-01 -4.449092224E-02 -1.534693781E-01
 5.662913918E-01 -4.265234619E-02 -1.340661224E-01
 5.794733167E-01 -4.079313576E-02 -1.040456911E-01
 5.918067098E-01 -3.902695328E-02 -7.768315899E-02
 6.046543717E-01 -3.721049801E-02 -6.264793766E-02
 6.187136769E-01 -3.517339379E-02 -3.608344553E-02
 6.331292391E-01 -3.308243304E-02 -1.301494591E-02
 6.476174593E-01 -3.097089007E-02 1.126451888E-02
 6.607709527E-01 -2.906481549E-02 3.133164573E-02
 6.745469570E-01 -2.710352838E-02 4.485218187E-02
 6.869887114E-01 -2.529514953E-02 7.044237657E-02
 6.993899345E-01 -2.354191616E-02 8.359100476E-02
 7.141435146E-01 -2.147147432E-02 1.028905008E-01
 7.274673581E-01 -1.964866370E-02 1.133205000E-01
 7.389141321E-01 -1.803005114E-02 1.424600022E-01
 7.523052096E-01 -1.625304669E-02 1.486309643E-01
 7.645474076E-01 -1.461251546E-02 1.720307948E-01
 7.779009342E-01 -1.289589144E-02 1.860281416E-01
 7.901832461E-01 -1.138224825E-02 1.958184065E-01
 8.028573990E-01 -9.817292914E-03 2.179373446E-01
 8.139790893E-01 -8.511104621E-03 2.307470912E-01
 8.255817294E-01 -7.215472870E-03 2.414911251E-01
 8.381161690E-01 -5.855618045E-03 2.596045139E-01
 8.505366445E-01 -4.594944417E-03 2.745213201E-01
 8.628515005E-01 -3.448645584E-03 2.865788249E-01
 8.741533756E-01 -2.476170892E-03 3.005227904E-01
 8.858358264E-01 -1.589203952E-03 3.088129100E-01
 8.986451030E-01 -7.344020996E-04 3.197216506E-01
 9.089140892E-01 -1.692056831E-04 3.256657753E-01
 9.192527533E-01 3.015205439E-04 3.298798113E-01
 9.287483096E-01 6.397751276E-04 3.326001446E-01
 9.377623796E-01 8.810688159E-04 3.363852852E-01
 9.495744109E-01 1.081352704E-03 3.368565686E-01
 9.625487328E-01 1.153848949E-03 3.390752200E-01
 9.767230749E-01 1.063770149E-03 3.466644827E-01
 9.891305566E-01 8.332731668E-04 3.663441476E-01
 -5.000000000E-01 -1.000000000E+00 1.382001286E-02
 3.500000000E+00 -1.000000000E+00 8.323219569E-03
 3.500000000E+00 1.000000000E+00 -2.359889011E-02
 -5.000000000E-01 1.000000000E+00 -8.304726027E-04
 9.932076037E-01 1.806508924E-03 2.539937655E-01
 9.797656834E-01 4.374924465E-03 1.337236169E-01
 9.650379121E-01 7.208662806E-03 8.193357304E-02
 9.493121803E-01 1.022353815E-02 3.297423114E-02
 9.345499277E-01 1.302731317E-02 2.310817024E-03
 9.212241769E-01 1.552735874E-02 -2.616592535E-02
 9.089484513E-01 1.782916114E-02 -5.020812887E-02
 8.968023360E-01 2.009941824E-02 -8.117798804E-02
 8.847804666E-01 2.232222445E-02 -1.056417777E-01
 8.726034164E-01 2.453147620E-02 -1.345652029E-01
 8.603227735E-01 2.670062706E-02 -1.518516500E-01
 8.478880227E-01 2.883902751E-02 -1.716553743E-01
 8.359825909E-01 3.084739018E-02 -1.898802037E-01
 8.244563341E-01 3.273655288E-02 -1.991662315E-01
 8.124382794E-01 3.467911482E-02 -2.143503178E-01
 8.000254929E-01 3.667052835E-02 -2.373901598E-01
 7.877402902E-01 3.859301470E-02 -2.500839539E-01
 7.756554186E-01 4.044437222E-02 -2.684671588E-01
 7.639169991E-01 4.221383855E-02 -2.864126452E-01
 7.518801689E-01 4.397505149E-02 -2.996142317E-01
 7.388378978E-01 4.583957233E-02 -3.184687875E-01
 7.268438935E-01 4.750698991E-02 -3.295594468E-01
 7.161885798E-01 4.895183444E-02 -3.432979415E-01
 7.052008212E-01 5.042222328E-02 -3.651474648E-01
 6.930316389E-01 5.198868550E-02 -3.754412051E-01
 6.802369654E-01 5.358359776E-02 -3.955531657E-01
 6.689140797E-01 5.494978465E-02 -4.102500912E-01
 6.582607329E-01 5.617890507E-02 -4.254107978E-01
 6.470255554E-01 5.742265098E-02 -4.368402657E-01
 6.355303824E-01 5.863266997E-02 -4.444121783E-01
 6.241446137E-01 5.978996493E-02 -4.617081461E-01
 6.134111285E-01 6.082981639E-02 -4.722399125E-01
 6.021478176E-01 6.186049059E-02 -4.865100836E-01
 5.903211534E-01 6.287910230E-02 -4.988201920E-01
 5.779170096E-01 6.385942176E-02 -5.060196869E-01
 5.650592744E-01 6.479966268E-02 -5.151717425E-01
 5.527192056E-01 6.562499329E-02 -5.259538936E-01
 5.410224795E-01 6.633101776E-02 -5.290710023E-01
 5.296563506E-01 6.694946438E-02 -5.401976998E-01
 5.175383389E-01 6.752970442E-02 -5.376306321E-01
 5.057480931E-01 6.802435964E-02 -5.481261272E-01
 4.936204404E-01 6.845280528E-02 -5.477247699E-01
 4.802867025E-01 6.882557273E-02 -5.443735381E-01
 4.665965140E-01 6.912199035E-02 -5.453378199E-01
 4.527247846E-01 6.933272257E-02 -5.407416093E-01
 4.394328594E-01 6.945749372E-02 -5.467152661E-01
 4.264864326E-01 6.949369982E-02 -5.409646883E-01
 4.137327969E-01 6.944590062E-02 -5.384396701E-01
 4.011735618E-01 6.933338195E-02 -5.358558141E-01
 3.887546062E-01 6.915299594E-02 -5.353588819E-01
 3.768489808E-01 6.891133636E-02 -5.337981795E-01
 3.643002063E-01 6.857473031E-02 -5.251489936E-01
 3.513182700E-01 6.815807521E-02 -5.207140211E-01
 3.386394083E-01 6.768528372E-02 -5.204873534E-01
 3.267100453E-01 6.716863438E-02 -5.147314050E-01
 3.148592561E-01 6.658178940E-02 -5.102103407E-01
 3.019835055E-01 6.587578729E-02 -5.049681114E-01
 2.885249406E-01 6.504858658E-02 -4.978422239E-01
 2.754549384E-01 6.416425854E-02 -4.914639275E-01
 2.633732408E-01 6.327008829E-02 -4.850333432E-01
 2.512219921E-01 6.230327860E-02 -4.813798900E-01
 2.388524711E-01 6.124085560E-02 -4.768632753E-01
 2.266002446E-01 6.009804830E-02 -4.694668241E-01
 2.146636397E-01 5.889577046E-02 -4.575999114E-01
 2.030562907E-01 5.765402503E-02 -4.536343318E-01
 1.911702827E-01 5.629980750E-02 -4.459378183E-01
 1.791261509E-01 5.482810922E-02 -4.352958096E-01
 1.675896943E-01 5.332766846E-02 -4.275224467E-01
 1.560887098E-01 5.173684470E-02 -4.173700410E-01
 1.448613554E-01 5.008666962E-02 -4.104158137E-01
 1.337946653E-01 4.834578186E-02 -3.944161210E-01
 1.224478893E-01 4.645026103E-02 -3.820887096E-01
 1.115718260E-01 4.452174902E-02 -3.721124558E-01
 9.107658267E-02 4.051569849E-02 -3.436697031E-01
 7.977281138E-02 3.806061111E-02 -3.212442451E-01
 6.897298992E-02 3.553592227E-02 -3.040990164E-01
 5.906906351E-02 3.301260248E-02 -2.841563179E-01
 7.263290137E-02 -3.469724767E-02 -2.183383643E-01
 9.273649007E-02 -3.871763498E-02 -2.486745359E-01
 1.033550128E-01 -4.061298445E-02 -2.547084362E-01
 1.144029126E-01 -4.245068133E-02 -2.676250468E-01
 1.257797219E-01 -4.421645030E-02 -2.767079290E-01
 1.367853954E-01 -4.582291283E-02 -2.901842732E-01
 1.475516781E-01 -4.729197733E-02 -2.981213144E-01
 1.590404063E-01 -4.876613803E-02 -3.070614428E-01
 1.707374826E-01 -5.017532595E-02 -3.193685524E-01
 1.823647395E-01 -5.148546584E-02 -3.283859565E-01
 1.934827268E-01 -5.266385898E-02 -3.423368336E-01
 2.042991817E-01 -5.372580327E-02 -3.503843142E-01
 2.158896402E-01 -5.478110909E-02 -3.574305414E-01
 2.280935422E-01 -5.581071228E-02 -3.694948007E-01
 2.403350249E-01 -5.675476976E-02 -3.821089670E-01
 2.525163144E-01 -5.759365298E-02 -3.920378827E-01
 2.640678138E-01 -5.830477551E-02 -3.996142503E-01
 2.757562697E-01 -5.893721245E-02 -4.080528216E-01
 2.881387621E-01 -5.951106176E-02 -4.185670621E-01
 3.006312251E-01 -5.997658148E-02 -4.255229698E-01
 3.128271252E-01 -6.033081561E-02 -4.308861001E-01
 3.249629736E-01 -6.057876907E-02 -4.380608868E-01
 3.365664184E-01 -6.071118824E-02 -4.441772294E-01
 3.475722224E-01 -6.073498726E-02 -4.411200841E-01
 3.587351441E-01 -6.066910177E-02 -4.446276782E-01
 3.695789725E-01 -6.050544977E-02 -4.437720080E-01
 3.807004243E-01 -6.022942066E-02 -4.379425900E-01
 3.929393888E-01 -5.980182812E-02 -4.278983548E-01
 4.056611806E-01 -5.923920125E-02 -4.188672202E-01
 4.183735549E-01 -5.854680017E-02 -4.082446562E-01
 4.311411083E-01 -5.771177821E-02 -3.934426622E-01
 4.436197579E-01 -5.677242577E-02 -3.718147251E-01
 4.558364302E-01 -5.573505722E-02 -3.541127023E-01
 4.681080878E-01 -5.458164215E-02 -3.249300863E-01
 4.802936614E-01 -5.335899629E-02 -3.060846514E-01
 4.925395697E-01 -5.202770419E-02 -2.833831464E-01
 5.057648569E-01 -5.048892833E-02 -2.498637585E-01
 5.195356607E-01 -4.881763831E-02 -2.229534074E-01
 5.329702795E-01 -4.711276665E-02 -1.978654865E-01
 5.461275578E-01 -4.537395574E-02 -1.677098830E-01
 5.595017374E-01 -4.357163422E-02 -1.423294813E-01
 5.728823543E-01 -4.172274098E-02 -1.210060875E-01
 5.856400132E-01 -3.991004452E-02 -9.163198745E-02
 5.982305408E-01 -3.811872564E-02 -6.822951622E-02
 6.116840243E-01 -3.619194590E-02 -5.051449470E-02
 6.259214580E-01 -3.412791342E-02 -2.414756685E-02
 6.403733492E-01 -3.202666156E-02 -1.385895042E-03
 6.541942060E-01 -3.001785278E-02 2.164355128E-02
 6.676589549E-01 -2.808417194E-02 3.937596423E-02
 6.807678342E-01 -2.619933896E-02 5.569086081E-02
 6.931893229E-01 -2.441853285E-02 7.779455199E-02
 7.067667246E-01 -2.250669524E-02 9.276912880E-02
 7.208054364E-01 -2.056006901E-02 1.100721544E-01
 7.331907451E-01 -1.883935742E-02 1.244127864E-01
 7.456096709E-01 -1.714154892E-02 1.474007761E-01
 7.584263086E-01 -1.543278107E-02 1.580451422E-01
 7.712241709E-01 -1.375420345E-02 1.791499966E-01
 7.840420902E-01 -1.213906985E-02 1.927463112E-01
 7.965203226E-01 -1.059977058E-02 2.050915384E-01
 8.084182441E-01 -9.164198767E-03 2.250705315E-01
 8.197804093E-01 -7.863288745E-03 2.366767228E-01
 8.318489492E-01 -6.535545457E-03 2.490703119E-01
 8.443264067E-01 -5.225281231E-03 2.669826936E-01
 8.566940725E-01 -4.021795001E-03 2.808816119E-01
 8.685024381E-01 -2.962408238E-03 2.933895171E-01
 8.799946010E-01 -2.032687422E-03 3.047245103E-01
 8.922404647E-01 -1.161803026E-03 3.133889206E-01
 9.037795961E-01 -4.518038913E-04 3.255172046E-01
 9.140834212E-01 6.615743041E-05 3.284864498E-01
 9.436683953E-01 9.812107601E-04 3.353756503E-01
 9.560615718E-01 1.117600827E-03 3.367836319E-01
 9.696359038E-01 1.108809549E-03 3.401800180E-01
 9.829268157E-01 9.485216578E-04 3.529733976E-01
 9.946449697E-01 6.680252845E-04 4.080991335E-01
 -5.000000000E-01 9.500000000E-01 -9.845836803E-04
 -5.000000000E-01 9.000000000E-01 -7.943009858E-04
 -5.000000000E-01 8.500000000E-01 1.331932507E-04
 -5.000000000E-01 8.000000000E-01 1.792065037E-03
 -5.000000000E-01 7.500000000E-01 4.177585886E-03
 -5.000000000E-01 7.000000000E-01 7.403674779E-03
 -5.000000000E-01 6.500000000E-01 1.149509013E-02
 -5.000000000E-01 6.000000000E-01 1.639279713E-02
 -5.000000000E-01 5.500000000E-01 2.237471345E-02
 -5.000000000E-01 5.000000000E-01 2.909831338E-02
 -5.000000000E-01 4.500000000E-01 3.668689806E-02
 -5.000000000E-01 4.000000000E-01 4.497080793E-02
 -5.000000000E-01 3.500000000E-01 5.380662911E-02
 -5.000000000E-01 3.000000000E-01 6.301355867E-02
 -5.000000000E-01 2.500000000E-01 7.232153366E-02
 -5.000000000E-01 2.000000000E-01 8.107803764E-02
 -5.000000000E-01 1.500000000E-01 8.912724322E-02
 -5.000000000E-01 1.000000000E-01 9.590593825E-02
 -5.000000000E-01 5.000000000E-02 1.011994162E-01
 -5.000000000E-01 2.752242878E-12 1.043755259E-01
 -5.000000000E-01 -5.000000000E-02 1.057306396E-01
 -5.000000000E-01 -1.000000000E-01 1.050878256E-01
 -5.000000000E-01 -1.500000000E-01 1.026701874E-01
 -5.000000000E-01 -2.000000000E-01 9.869329367E-02
 -5.000000000E-01 -2.500000000E-01 9.355418889E-02
 -5.000000000E-01 -3.000000000E-01 8.785848490E-02
 -5.000000000E-01 -3.500000000E-01 8.148969407E-02
 -5.000000000E-01 -4.000000000E-01 7.514507934E-02
 -5.000000000E-01 -4.500000000E-01 6.881801664E-02
 -5.000000000E-01 -5.000000000E-01 6.277164061E-02
 -5.000000000E-01 -5.500000000E-01 5.705330362E-02
 -5.000000000E-01 -6.000000000E-01 5.173748715E-02
 -5.000000000E-01 -6.500000000E-01 4.681077739E-02
 -5.000000000E-01 -7.000000000E-01 4.226600723E-02
 -5.000000000E-01 -7.500000000E-01 3.802555100E-02
 -5.000000000E-01 -8.000000000E-01 3.397588332E-02
 -5.000000000E-01 -8.500000000E-01 2.992177057E-02
 -5.000000000E-01 -9.000000000E-01 2.549605708E-02
 -5.000000000E-01 -9.500000000E-01 1.895394919E-02
 -4.500000000E-01 -1.000000000E+00 1.723602076E-02
 -4.000000000E-01 -1.000000000E+00 2.245650597E-02
 -3.500000000E-01 -1.000000000E+00 2.476749696E-02
 -3.000000000E-01 -1.000000000E+00 2.591384265E-02
 -2.500000000E-01 -1.000000000E+00 2.623415815E-02
 -2.000000000E-01 -1.000000000E+00 2.573683975E-02
 -1.500000000E-01 -1.000000000E+00 2.454488264E-02
 -1.000000000E-01 -1.000000000E+00 2.263359072E-02
 -5.000000000E-02 -1.000000000E+00 2.024384737E-02
 -9.424683256E-13 -1.000000000E+00 1.726006664E-02
 5.000000000E-02 -1.000000000E+00 1.408038101E-02
 1.000000000E-01 -1.000000000E+00 1.057490663E-02
 1.500000000E-01 -1.000000000E+00 7.105016417E-03
 2.000000000E-01 -1.000000000E+00 3.715611709E-03
 2.500000000E-01 -1.000000000E+00 6.076732126E-04
 3.000000000E-01 -1.000000000E+00 -2.042977229E-03
 3.500000000E-01 -1.000000000E+00 -4.224841533E-03
 4.000000000E-01 -1.000000000E+00 -5.679177964E-03
 4.500000000E-01 -1.000000000E+00 -6.329774818E-03
 5.000000000E-01 -1.000000000E+00 -6.278458327E-03
 5.500000000E-01 -1.000000000E+00 -5.545513259E-03
 6.000000000E-01 -1.000000000E+00 -3.983675653E-03
 6.500000000E-01 -1.000000000E+00 -1.951241947E-03
 7.000000000E-01 -1.000000000E+00 7.085994205E-04
 7.500000000E-01 -1.000000000E+00 3.795954118E-03
 8.000000000E-01 -1.000000000E+00 7.192201819E-03
 8.500000000E-01 -1.000000000E+00 1.067686823E-02
 9.000000000E-01 -1.000000000E+00 1.409943858E-02
 9.500000000E-01 -1.000000000E+00 1.747247283E-02
 1.000000000E+00 -1.000000000E+00 2.069525224E-02
 1.050000000E+00 -1.000000000E+00 2.359839611E-02
 1.100000000E+00 -1.000000000E+00 2.623768194E-02
 1.150000000E+00 -1.000000000E+00 2.850040866E-02
 1.200000000E+00 -1.000000000E+00 3.042045325E-02
 1.250000000E+00 -1.000000000E+00 3.197074124E-02
 1.300000000E+00 -1.000000000E+00 3.314010772E-02
 1.350000000E+00 -1.000000000E+00 3.400209851E-02
 1.400000000E+00 -1.000000000E+00 3.452929775E-02
 1.450000000E+00 -1.000000000E+00 3.485496687E-02
 1.500000000E+00 -1.000000000E+00 3.491287499E-02
 1.550000000E+00 -1.000000000E+00 3.477170771E-02
 1.600000000E+00 -1.000000000E+00 3.443857654E-02
 1.650000000E+00 -1.000000000E+00 3.403718836E-02
 1.700000000E+00 -1.000000000E+00 3.345353994E-02
 1.750000000E+00 -1.000000000E+00 3.285299200E-02
 1.800000000E+00 -1.000000000E+00 3.216804624E-02
 1.850000000E+00 -1.000000000E+00 3.141602586E-02
 1.900000000E+00 -1.000000000E+00 3.065253582E-02
 1.950000000E+00 -1.000000000E+00 2.988267080E-02
 2.000000000E+00 -1.000000000E+00 2.912289584E-02
 2.050000000E+00 -1.000000000E+00 2.834821563E-02
 2.100000000E+00 -1.000000000E+00 2.761640973E-02
 2.150000000E+00 -1.000000000E+00 2.685874557E-02
 2.200000000E+00 -1.000000000E+00 2.615516597E-02
 2.250000000E+00 -1.000000000E+00 2.552369760E-02
 2.300000000E+00 -1.000000000E+00 2.485062598E-02
 2.350000000E+00 -1.000000000E+00 2.427204265E-02
 2.400000000E+00 -1.000000000E+00 2.369001546E-02
 2.450000000E+00 -1.000000000E+00 2.315111998E-02
 2.500000000E+00 -1.000000000E+00 2.267381166E-02
 2.550000000E+00 -1.000000000E+00 2.221031801E-02
 2.600000000E+00 -1.000000000E+00 2.180585389E-02
 2.650000000E+00 -1.000000000E+00 2.143461190E-02
 2.700000000E+00 -1.000000000E+00 2.108993116E-02
 2.750000000E+00 -1.000000000E+00 2.078143077E-02
 2.800000000E+00 -1.000000000E+00 2.048014915E-02
 2.850000000E+00 -1.000000000E+00 2.021430342E-02
 2.900000000E+00 -1.000000000E+00 1.997363791E-02
 2.950000000E+00 -1.000000000E+00 1.970246769E-02
 3.000000000E+00 -1.000000000E+00 1.946890480E-02
 3.050000000E+00 -1.000000000E+00 1.918940900E-02
 3.100000000E+00 -1.000000000E+00 1.886312625E-02
 3.150000000E+00 -1.000000000E+00 1.852972738E-02
 3.200000000E+00 -1.000000000E+00 1.806477782E-02
 3.250000000E+00 -1.000000000E+00 1.746714947E-02
 3.300000000E+00 -1.000000000E+00 1.669684619E-02
 3.350000000E+00 -1.000000000E+00 1.562347374E-02
 3.400000000E+00 -1.000000000E+00 1.401972654E-02
 3.450000000E+00 -1.000000000E+00 1.127464581E-02
 3.500000000E+00 -9.500000000E-01 7.469591501E-03
 3.500000000E+00 -9.000000000E-01 8.837788916E-03
 3.500000000E+00 -8.500000000E-01 1.041460206E-02
 3.500000000E+00 -8.000000000E-01 1.194812322E-02
 3.500000000E+00 -7.500000000E-01 1.338733760E-02
 3.500000000E+00 -7.000000000E-01 1.485848442E-02
 3.500000000E+00 -6.500000000E-01 1.646359698E-02
 3.500000000E+00 -6.000000000E-01 1.821314645E-02
 3.500000000E+00 -5.500000000E-01 2.004211804E-02
 3.500000000E+00 -5.000000000E-01 2.198915868E-02
 3.500000000E+00 -4.500000000E-01 2.417373943E-02
 3.500000000E+00 -4.000000000E-01 2.634108463E-02
 3.500000000E+00 -3.500000000E-01 2.865372544E-02
 3.500000000E+00 -3.000000000E-01 3.080786305E-02
 3.500000000E+00 -2.500000000E-01 3.253223959E-02
 3.500000000E+00 -2.000000000E-01 3.332381387E-02
 3.500000000E+00 -1.500000000E-01 3.317154417E-02
 3.500000000E+00 -1.000000000E-01 3.258789453E-02
 3.500000000E+00 -5.000000000E-02 3.204773769E-02
 3.500000000E+00 -2.752242878E-12 3.131696521E-02
 3.500000000E+00 5.000000000E-02 3.058392960E-02
 3.500000000E+00 1.000000000E-01 2.944663238E-02
 3.500000000E+00 1.500000000E-01 2.753757978E-02
 3.500000000E+00 2.000000000E-01 2.490720368E-02
 3.500000000E+00 2.500000000E-01 2.172562597E-02
 3.500000000E+00 3.000000000E-01 1.861752139E-02
 3.500000000E+00 3.500000000E-01 1.552753175E-02
 3.500000000E+00 4.000000000E-01 1.270392241E-02
 3.500000000E+00 4.500000000E-01 1.003944369E-02
 3.500000000E+00 5.000000000E-01 7.625623090E-03
 3.500000000E+00 5.500000000E-01 5.596102456E-03
 3.500000000E+00 6.000000000E-01 4.289472859E-03
 3.500000000E+00 6.500000000E-01 3.784140446E-03
 3.500000000E+00 7.000000000E-01 3.674475618E-03
 3.500000000E+00 7.500000000E-01 3.135716910E-03
 3.500000000E+00 8.000000000E-01 3.642261456E-04
 3.500000000E+00 8.500000000E-01 -5.519873892E-03
 3.500000000E+00 9.000000000E-01 -1.298952673E-02
 3.500000000E+00 9.500000000E-01 -2.332119941E-02
 3.450000000E+00 1.000000000E+00 -1.420252024E-02
 3.400000000E+00 1.000000000E+00 -6.319195328E-03
 3.350000000E+00 1.000000000E+00 -2.358936264E-03
 3.300000000E+00 1.000000000E+00 -7.606751759E-04
 3.250000000E+00 1.000000000E+00 4.031345956E-04
 3.200000000E+00 1.000000000E+00 7.496514230E-04
 3.150000000E+00 1.000000000E+00 1.138057785E-03
 3.100000000E+00 1.000000000E+00 1.149482531E-03
 3.050000000E+00 1.000000000E+00 9.310992008E-04
 3.000000000E+00 1.000000000E+00 5.879502140E-04
 2.950000000E+00 1.000000000E+00 1.960453147E-04
 2.900000000E+00 1.000000000E+00 -3.925304334E-04
 2.850000000E+00 1.000000000E+00 -8.045037055E-04
 2.800000000E+00 1.000000000E+00 -1.580318838E-03
 2.750000000E+00 1.000000000E+00 -2.583889233E-03
 2.700000000E+00 1.000000000E+00 -3.295887095E-03
 2.650000000E+00 1.000000000E+00 -4.081270713E-03
 2.600000000E+00 1.000000000E+00 -5.694713438E-03
 2.550000000E+00 1.000000000E+00 -5.912628820E-03
 2.500000000E+00 1.000000000E+00 -7.501431382E-03
 2.450000000E+00 1.000000000E+00 -8.685012685E-03
 2.400000000E+00 1.000000000E+00 -9.945928060E-03
 2.350000000E+00 1.000000000E+00 -1.132296047E-02
 2.300000000E+00 1.000000000E+00 -1.277961452E-02
 2.250000000E+00 1.000000000E+00 -1.438001177E-02
 2.200000000E+00 1.000000000E+00 -1.595471011E-02
 2.150000000E+00 1.000000000E+00 -1.783838087E-02
 2.100000000E+00 1.000000000E+00 -1.972378391E-02
 2.050000000E+00 1.000000000E+00 -2.181365170E-02
 2.000000000E+00 1.000000000E+00 -2.399539117E-02
 1.950000000E+00 1.000000000E+00 -2.647860852E-02
 1.900000000E+00 1.000000000E+00 -2.866320897E-02
 1.850000000E+00 1.000000000E+00 -3.156188083E-02
 1.800000000E+00 1.000000000E+00 -3.444446770E-02
 1.750000000E+00 1.000000000E+00 -3.728407345E-02
 1.700000000E+00 1.000000000E+00 -4.116434267E-02
 1.650000000E+00 1.000000000E+00 -4.436405313E-02
 1.600000000E+00 1.000000000E+00 -4.857435308E-02
 1.550000000E+00 1.000000000E+00 -5.260890575E-02
 1.500000000E+00 1.000000000E+00 -5.724502162E-02
 1.450000000E+00 1.000000000E+00 -6.145755338E-02
 1.400000000E+00 1.000000000E+00 -6.645425823E-02
 1.350000000E+00 1.000000000E+00 -7.184009281E-02
 1.300000000E+00 1.000000000E+00 -7.705405102E-02
 1.250000000E+00 1.000000000E+00 -8.273226715E-02
 1.200000000E+00 1.000000000E+00 -8.832628639E-02
 1.150000000E+00 1.000000000E+00 -9.395834622E-02
 1.100000000E+00 1.000000000E+00 -1.002586882E-01
 1.050000000E+00 1.000000000E+00 -1.054102017E-01
 1.000000000E+00 1.000000000E+00 -1.112041813E-01
 9.500000000E-01 1.000000000E+00 -1.149747920E-01
 9.000000000E-01 1.000000000E+00 -1.191291720E-01
 8.500000000E-01 1.000000000E+00 -1.224221480E-01
 8.000000000E-01 1.000000000E+00 -1.245868230E-01
 7.500000000E-01 1.000000000E+00 -1.263789052E-01
 7.000000000E-01 1.000000000E+00 -1.261560234E-01
 6.500000000E-01 1.000000000E+00 -1.261087941E-01
 6.000000000E-01 1.000000000E+00 -1.229189538E-01
 5.500000000E-01 1.000000000E+00 -1.201620006E-01
 5.000000000E-01 1.000000000E+00 -1.147206420E-01
 4.500000000E-01 1.000000000E+00 -1.100141531E-01
 4.000000000E-01 1.000000000E+00 -1.028629526E-01
 3.500000000E-01 1.000000000E+00 -9.560871596E-02
 3.000000000E-01 1.000000000E+00 -8.770821145E-02
 2.500000000E-01 1.000000000E+00 -7.915022447E-02
 2.000000000E-01 1.000000000E+00 -7.067462669E-02
 1.500000000E-01 1.000000000E+00 -6.186351859E-02
 1.000000000E-01 1.000000000E+00 -5.328304833E-02
 5.000000000E-02 1.000000000E+00 -4.491756021E-02
 1.733724275E-12 1.000000000E+00 -3.706786190E-02
 -5.000000000E-02 1.000000000E+00 -3.000966153E-02
 -1.000000000E-01 1.000000000E+00 -2.360636551E-02
 -1.500000000E-01 1.000000000E+00 -1.802331820E-02
 -2.000000000E-01 1.000000000E+00 -1.318635473E-02
 -2.500000000E-01 1.000000000E+00 -9.178109344E-03
 -3.000000000E-01 1.000000000E+00 -6.103132812E-03
 -3.500000000E-01 1.000000000E+00 -3.881295524E-03
 -4.000000000E-01 1.000000000E+00 -2.269869413E-03
 -4.500000000E-01 1.000000000E+00 -1.226024860E-03
 9.013467191E-01 -5.229146749E-03 3.153526337E-01
 8.229231431E-01 -1.269407902E-02 2.354081991E-01
 9.857691824E-01 -3.087553566E-03 3.551294855E-01
 7.506393940E-01 -2.189351090E-02 1.467449512E-01
 6.784404466E-01 -3.203887133E-02 5.081255607E-02
 6.090130820E-01 -4.252538228E-02 -5.448892151E-02
 5.438329498E-01 -5.185385991E-02 -1.702414419E-01
 4.782866914E-01 -5.893794416E-02 -3.020450516E-01
 4.217801228E-01 -6.366424280E-02 -3.929686201E-01
 3.669648947E-01 -6.573395653E-02 -4.316541604E-01
 3.090118710E-01 -6.473860002E-02 -4.194291795E-01