TITLE     = "Visualization of the solution"
VARIABLES = "x"
"y"
"Pressure_Coefficient"
ZONE T="Zone"
 STRANDID=0, SOLUTIONTIME=0
 Nodes=12155, Elements=23726, ZONETYPE=FEQuadrilateral
 DATAPACKING=POINT
 DT=(DOUBLE DOUBLE DOUBLE )
 1.000227451E+00 5.091609200E-04 2.487480586E-01
 9.872643352E-01 3.062316217E-03 1.852105296E-01
 9.740654230E-01 5.699827336E-03 1.269209045E-01
 9.575976133E-01 9.059695527E-03 6.223526482E-02
 9.425032139E-01 1.205781102E-02 2.460181345E-02
 9.278418422E-01 1.495216414E-02 -1.074899403E-03
 9.162281156E-01 1.730687916E-02 -4.094459548E-02
 9.046035409E-01 1.962491125E-02 -7.732792498E-02
 8.925073743E-01 2.193938568E-02 -8.625272013E-02
 8.808876276E-01 2.422352321E-02 -1.281825975E-01
 8.689664602E-01 2.647965960E-02 -1.582276300E-01
 8.565057516E-01 2.872396447E-02 -1.724939390E-01
 8.440155387E-01 3.090908006E-02 -1.764056032E-01
 8.331729174E-01 3.284876794E-02 -2.113772415E-01
 8.216131330E-01 3.481746092E-02 -2.235429329E-01
 8.093920350E-01 3.686271608E-02 -2.384905978E-01
 7.970328927E-01 3.890319914E-02 -2.610480815E-01
 7.847604156E-01 4.086415842E-02 -2.755441894E-01
 7.726247907E-01 4.276627302E-02 -2.922072470E-01
 7.611528635E-01 4.452591017E-02 -3.105415467E-01
 7.480768561E-01 4.646430165E-02 -3.230606107E-01
 7.348124981E-01 4.839900136E-02 -3.472370394E-01
 7.241485119E-01 4.989195243E-02 -3.576125068E-01
 7.131102681E-01 5.140583217E-02 -3.735473625E-01
 7.014963031E-01 5.294132978E-02 -3.833406698E-01
 6.884179711E-01 5.463734269E-02 -4.057975099E-01
 6.757816076E-01 5.619776249E-02 -4.174900145E-01
 6.655415893E-01 5.744448304E-02 -4.421351738E-01
 6.539757252E-01 5.875283480E-02 -4.487812519E-01
 6.425047517E-01 5.999918655E-02 -4.572783168E-01
 6.308135390E-01 6.123219803E-02 -4.740764199E-01
 6.194602847E-01 6.237441674E-02 -4.967341890E-01
 6.087095141E-01 6.334894896E-02 -4.897967735E-01
 5.966476798E-01 6.443254650E-02 -5.096555084E-01
 5.852524042E-01 6.538157165E-02 -5.231495467E-01
 5.719246268E-01 6.638484448E-02 -5.295937924E-01
 5.597203374E-01 6.723207235E-02 -5.401261571E-01
 5.475326777E-01 6.798978150E-02 -5.469418549E-01
 5.365781188E-01 6.859554350E-02 -5.491869361E-01
 5.248125792E-01 6.917057186E-02 -5.435094119E-01
 5.126972795E-01 6.973551214E-02 -5.655130861E-01
 5.015331507E-01 7.013297081E-02 -5.538127683E-01
 4.885162413E-01 7.054766268E-02 -5.583245962E-01
 4.753405750E-01 7.087010890E-02 -5.559774312E-01
 4.617601335E-01 7.112190872E-02 -5.558237770E-01
 4.486219585E-01 7.128423452E-02 -5.577213250E-01
 4.358670712E-01 7.134956867E-02 -5.500032006E-01
 4.232628644E-01 7.136562467E-02 -5.569567472E-01
 4.108783901E-01 7.127605379E-02 -5.455136907E-01
 3.983288407E-01 7.113862783E-02 -5.465396790E-01
 3.859886229E-01 7.092030346E-02 -5.399346272E-01
 3.739944100E-01 7.065545022E-02 -5.381402514E-01
 3.609771430E-01 7.029335946E-02 -5.350721044E-01
 3.481874466E-01 6.986574084E-02 -5.343716611E-01
 3.353151679E-01 6.934129447E-02 -5.255446698E-01
 3.242285252E-01 6.884235889E-02 -5.225004521E-01
 3.115675151E-01 6.820033491E-02 -5.187092331E-01
 2.983122766E-01 6.744331867E-02 -5.110173252E-01
 2.847647071E-01 6.659729779E-02 -5.127691827E-01
 2.723475993E-01 6.571382284E-02 -5.002962862E-01
 2.606231868E-01 6.482901424E-02 -4.977232129E-01
 2.480176985E-01 6.378778815E-02 -4.888591296E-01
 2.357755154E-01 6.271059811E-02 -4.888806462E-01
 2.233260572E-01 6.150078028E-02 -4.755965734E-01
 2.114282995E-01 6.027579308E-02 -4.693117235E-01
 1.994461566E-01 5.896297842E-02 -4.647557996E-01
 1.870251447E-01 5.749161169E-02 -4.555567669E-01
 1.751278788E-01 5.598638952E-02 -4.485235138E-01
 1.634868830E-01 5.440053716E-02 -4.332510299E-01
 1.515248269E-01 5.268341303E-02 -4.272178602E-01
 1.405573189E-01 5.099825934E-02 -4.156848844E-01
 1.287885308E-01 4.906927794E-02 -4.039859577E-01
 1.174989715E-01 4.708967730E-02 -3.915400821E-01
 1.067707315E-01 4.507389292E-02 -3.747757888E-01
 9.658373147E-02 4.303972423E-02 -3.594438048E-01
 8.553508669E-02 4.067259654E-02 -3.404484192E-01
 7.391196489E-02 3.798083216E-02 -3.209375297E-01
 6.390355527E-02 3.546259180E-02 -2.959052084E-01
 5.405182019E-02 3.276406229E-02 -2.660217771E-01
 4.534444958E-02 3.016125411E-02 -2.339991116E-01
 3.785867617E-02 2.771466598E-02 -2.020862362E-01
 3.123165108E-02 2.534990571E-02 -1.637035124E-01
 2.557614446E-02 2.314702049E-02 -1.335734866E-01
 2.148224041E-02 2.140704729E-02 -9.326250756E-02
 1.755322516E-02 1.960056275E-02 -5.563864078E-02
 1.442391519E-02 1.802919991E-02 -6.430268255E-03
 1.156143099E-02 1.646050625E-02 3.848001507E-02
 9.447948076E-03 1.520137955E-02 8.420206460E-02
 7.609529421E-03 1.401033718E-02 1.253883786E-01
 5.894677248E-03 1.279766951E-02 2.072626293E-01
 3.655438777E-03 1.099686511E-02 3.119896418E-01
 1.767987502E-03 9.180370718E-03 4.067007899E-01
 2.590130898E-04 7.356811315E-03 6.490022135E-01
 -1.215267461E-03 4.766669590E-03 8.911368993E-01
 -1.801866107E-03 2.812081017E-03 1.043658823E+00
 -1.948502148E-03 1.240206533E-03 1.101869235E+00
 -1.786928042E-03 -4.588891461E-04 1.111169107E+00
 -1.298440504E-03 -2.164013684E-03 1.013006577E+00
 -2.878711384E-04 -4.205171019E-03 8.683252493E-01
 1.228329027E-03 -6.312593352E-03 6.752530236E-01
 3.270414425E-03 -8.463067003E-03 5.106619937E-01
 5.122693721E-03 -1.006984338E-02 3.764282994E-01
 7.272335235E-03 -1.168563496E-02 2.973056418E-01
 8.984117769E-03 -1.283792593E-02 2.132411626E-01
 1.112146210E-02 -1.415189356E-02 1.642241016E-01
 1.351192780E-02 -1.549053099E-02 1.053359110E-01
 1.684891991E-02 -1.718197018E-02 5.429178350E-02
 1.989151910E-02 -1.858911663E-02 7.474933235E-04
 2.376512997E-02 -2.022795379E-02 -3.667359427E-02
 2.907194383E-02 -2.225758880E-02 -7.551669750E-02
 3.472620249E-02 -2.420282178E-02 -1.141464533E-01
 4.162550718E-02 -2.635987662E-02 -1.388391954E-01
 4.922028258E-02 -2.849837579E-02 -1.647788194E-01
 5.824940652E-02 -3.081832267E-02 -1.845626806E-01
 6.708858162E-02 -3.287763149E-02 -2.053165758E-01
 7.730744034E-02 -3.506566584E-02 -2.164766277E-01
 8.734399080E-02 -3.705189377E-02 -2.307540153E-01
 9.771667421E-02 -3.895967081E-02 -2.432443415E-01
 1.088714898E-01 -4.086425155E-02 -2.527406271E-01
 1.201615110E-01 -4.266948253E-02 -2.651785145E-01
 1.319051981E-01 -4.442758113E-02 -2.781969350E-01
 1.426651180E-01 -4.592568427E-02 -2.858308563E-01
 1.540825665E-01 -4.742928967E-02 -2.970889608E-01
 1.663020700E-01 -4.893806949E-02 -3.089109079E-01
 1.781312823E-01 -5.029645935E-02 -3.180692642E-01
 1.900261194E-01 -5.157755688E-02 -3.295729215E-01
 2.009081990E-01 -5.267300457E-02 -3.412549164E-01
 2.124309987E-01 -5.374535173E-02 -3.487184352E-01
 2.248618305E-01 -5.481988937E-02 -3.601018120E-01
 2.373425514E-01 -5.580382049E-02 -3.717563123E-01
 2.495104671E-01 -5.666764453E-02 -3.808438190E-01
 2.616759241E-01 -5.744144320E-02 -3.905939937E-01
 2.727792263E-01 -5.806481838E-02 -3.996055700E-01
 2.852267325E-01 -5.867204070E-02 -4.084120205E-01
 2.975037098E-01 -5.917463452E-02 -4.195425663E-01
 3.100351393E-01 -5.956128240E-02 -4.216155258E-01
 3.217411339E-01 -5.983944237E-02 -4.326909848E-01
 3.343749642E-01 -6.001272798E-02 -4.346618809E-01
 3.450929224E-01 -6.005635485E-02 -4.350083297E-01
 3.565732539E-01 -6.001240015E-02 -4.355216828E-01
 3.675840199E-01 -5.988365039E-02 -4.414561731E-01
 3.783460259E-01 -5.963240936E-02 -4.312403250E-01
 3.899051249E-01 -5.926841125E-02 -4.261514058E-01
 4.029304981E-01 -5.871999264E-02 -4.128838846E-01
 4.154140353E-01 -5.807273835E-02 -4.023195274E-01
 4.282046258E-01 -5.727867037E-02 -3.866558096E-01
 4.406950474E-01 -5.638765544E-02 -3.731250968E-01
 4.526716173E-01 -5.540191755E-02 -3.485924549E-01
 4.644056261E-01 -5.435769632E-02 -3.331818825E-01
 4.767062962E-01 -5.314716324E-02 -3.078029044E-01
 4.884044528E-01 -5.190495774E-02 -2.831132498E-01
 5.010264516E-01 -5.047351867E-02 -2.529356002E-01
 5.148975849E-01 -4.884107411E-02 -2.297221336E-01
 5.280644298E-01 -4.719713330E-02 -1.997935227E-01
 5.411353707E-01 -4.551572725E-02 -1.763351561E-01
 5.539531112E-01 -4.379305243E-02 -1.452552768E-01
 5.674494505E-01 -4.195795581E-02 -1.213303326E-01
 5.807085037E-01 -4.012375697E-02 -9.772374402E-02
 5.930920243E-01 -3.838475421E-02 -7.598186879E-02
 6.058604717E-01 -3.657054901E-02 -5.281917005E-02
 6.201390624E-01 -3.453344852E-02 -3.064019634E-02
 6.345472932E-01 -3.246670216E-02 -8.350091610E-03
 6.493483782E-01 -3.032937460E-02 1.566833179E-02
 6.622518897E-01 -2.847001515E-02 3.593140862E-02
 6.758728027E-01 -2.652750351E-02 5.312237207E-02
 6.882205009E-01 -2.475384809E-02 7.631447386E-02
 7.007467151E-01 -2.301314846E-02 8.651359459E-02
 7.152411342E-01 -2.100259624E-02 1.043310412E-01
 7.281816602E-01 -1.918526739E-02 1.301763615E-01
 7.402400374E-01 -1.757482998E-02 1.380333260E-01
 7.538194060E-01 -1.576919295E-02 1.557493151E-01
 7.659040093E-01 -1.416551229E-02 1.784810201E-01
 7.795686126E-01 -1.246295311E-02 1.855169802E-01
 7.916402221E-01 -1.097218413E-02 2.013042487E-01
 8.040704727E-01 -9.443472140E-03 2.248133097E-01
 8.153164387E-01 -8.165168576E-03 2.315088843E-01
 8.268544078E-01 -6.882103160E-03 2.471317924E-01
 8.396517038E-01 -5.528719164E-03 2.612317033E-01
 8.519061804E-01 -4.292243160E-03 2.789316061E-01
 8.642151952E-01 -3.157767933E-03 2.915335865E-01
 8.754599094E-01 -2.212221036E-03 3.045701689E-01
 8.869624734E-01 -1.360262278E-03 3.126996951E-01
 8.996606469E-01 -5.251758848E-04 3.253017339E-01
 9.103018641E-01 2.831871461E-05 3.284968091E-01
 9.210300446E-01 4.949403810E-04 3.341889174E-01
 9.309741259E-01 8.228134830E-04 3.366235989E-01
 9.400975704E-01 1.038539805E-03 3.411544503E-01
 9.518957138E-01 1.198663493E-03 3.410765698E-01
 9.644179344E-01 1.227725181E-03 3.433306910E-01
 9.773754478E-01 1.104033086E-03 3.503161165E-01
 9.889828563E-01 8.583775489E-04 3.687069010E-01
 -5.000000000E-01 -1.000000000E+00 1.448823957E-02
 3.500000000E+00 -1.000000000E+00 8.761074528E-03
 3.500000000E+00 1.000000000E+00 -2.544812345E-02
 -5.000000000E-01 1.000000000E+00 -1.086056648E-03
 9.937458932E-01 1.785738568E-03 2.883440635E-01
 9.806648791E-01 4.381071776E-03 1.548594173E-01
 9.658315182E-01 7.379761431E-03 9.110540001E-02
 9.500504136E-01 1.055875327E-02 4.321137753E-02
 9.351725280E-01 1.350498758E-02 1.292875286E-02
 9.220349789E-01 1.612952165E-02 -2.358450682E-02
 9.104158282E-01 1.846589521E-02 -6.221667841E-02
 8.985554576E-01 2.078214847E-02 -7.718837615E-02
 8.866975009E-01 2.308145445E-02 -1.111271586E-01
 8.749270439E-01 2.535159141E-02 -1.460817193E-01
 8.627361059E-01 2.760181203E-02 -1.649192417E-01
 8.502606452E-01 2.981652226E-02 -1.701893677E-01
 8.385942280E-01 3.187892400E-02 -1.983994589E-01
 8.273930252E-01 3.383311443E-02 -2.168791862E-01
 8.155025840E-01 3.584008850E-02 -2.301261818E-01
 8.032124639E-01 3.788295761E-02 -2.510671554E-01
 7.908966541E-01 3.988367878E-02 -2.676425707E-01
 7.786926031E-01 4.181521572E-02 -2.838577813E-01
 7.668888271E-01 4.364609160E-02 -3.027919582E-01
 7.546148598E-01 4.549510591E-02 -3.155830444E-01
 7.414446771E-01 4.743165150E-02 -3.357937798E-01
 7.294805050E-01 4.914547689E-02 -3.517948657E-01
 7.186293900E-01 5.064889230E-02 -3.663918157E-01
 7.073032856E-01 5.217358097E-02 -3.775422241E-01
 6.949571371E-01 5.378933623E-02 -3.958052326E-01
 6.820997894E-01 5.541755259E-02 -4.090524325E-01
 6.706615984E-01 5.682112277E-02 -4.339246364E-01
 6.597586572E-01 5.809865892E-02 -4.446081008E-01
 6.482402384E-01 5.937601067E-02 -4.517693867E-01
 6.366591454E-01 6.061569229E-02 -4.657993205E-01
 6.251369119E-01 6.180330738E-02 -4.888748012E-01
 6.140848994E-01 6.286168285E-02 -4.891614731E-01
 6.026785970E-01 6.389074773E-02 -5.004038359E-01
 5.909500420E-01 6.490705907E-02 -5.196159636E-01
 5.785885155E-01 6.588320807E-02 -5.249488094E-01
 5.658224821E-01 6.680845842E-02 -5.357475517E-01
 5.536265075E-01 6.761092693E-02 -5.432667360E-01
 5.420553982E-01 6.829266250E-02 -5.489596651E-01
 5.306953490E-01 6.888305768E-02 -5.436318006E-01
 5.187549293E-01 6.945304200E-02 -5.584325994E-01
 5.071152151E-01 6.993424147E-02 -5.579818404E-01
 4.950246960E-01 7.034031674E-02 -5.568948687E-01
 4.819284081E-01 7.070888579E-02 -5.571227700E-01
 4.685503542E-01 7.099600881E-02 -5.554031199E-01
 4.551910460E-01 7.120307162E-02 -5.574821098E-01
 4.422445148E-01 7.131690159E-02 -5.517188157E-01
 4.295649678E-01 7.135759667E-02 -5.556078772E-01
 4.170706272E-01 7.132083923E-02 -5.489920064E-01
 4.046036154E-01 7.120734081E-02 -5.469669532E-01
 3.921587318E-01 7.102946565E-02 -5.420581318E-01
 3.799915165E-01 7.078787684E-02 -5.399357976E-01
 3.674857765E-01 7.047440484E-02 -5.363450281E-01
 3.545822948E-01 7.007955015E-02 -5.361396702E-01
 3.417513072E-01 6.960351765E-02 -5.276991632E-01
 3.297718465E-01 6.909182668E-02 -5.253110423E-01
 3.178980201E-01 6.852134690E-02 -5.214852780E-01
 3.049398959E-01 6.782182679E-02 -5.142332636E-01
 2.915384918E-01 6.702030823E-02 -5.131971693E-01
 2.785561532E-01 6.615556031E-02 -5.041402221E-01
 2.664853930E-01 6.527141854E-02 -5.009408915E-01
 2.543204427E-01 6.430840120E-02 -4.920207864E-01
 2.418966070E-01 6.324919313E-02 -4.910983913E-01
 2.295507863E-01 6.210568920E-02 -4.806980253E-01
 2.173771784E-01 6.088828668E-02 -4.725081563E-01
 2.054372281E-01 5.961938575E-02 -4.689611964E-01
 1.932356507E-01 5.822729506E-02 -4.597129440E-01
 1.810765117E-01 5.673900060E-02 -4.527881580E-01
 1.693073809E-01 5.519346334E-02 -4.401580386E-01
 1.575058550E-01 5.354197510E-02 -4.300315512E-01
 1.460410729E-01 5.184083618E-02 -4.233374691E-01
 1.346729249E-01 5.003376864E-02 -4.100327834E-01
 1.231437512E-01 4.807947762E-02 -3.981997833E-01
 1.121348515E-01 4.608178511E-02 -3.828082354E-01
 1.016772315E-01 4.405680858E-02 -3.697310408E-01
 9.105940908E-02 4.185616039E-02 -3.535907081E-01
 7.972352579E-02 3.932671435E-02 -3.289585708E-01
 6.890776008E-02 3.672171198E-02 -3.092857260E-01
 5.897768773E-02 3.411332704E-02 -2.882192192E-01
 7.219801098E-02 -3.397164866E-02 -2.113569966E-01
 8.232571557E-02 -3.605877981E-02 -2.253706954E-01
 9.253033251E-02 -3.800578229E-02 -2.371735417E-01
 1.032940820E-01 -3.991196118E-02 -2.483745048E-01
 1.145165004E-01 -4.176686704E-02 -2.596111850E-01
 1.260333546E-01 -4.354853183E-02 -2.715161097E-01
 1.372851580E-01 -4.517663270E-02 -2.842527054E-01
 1.483738422E-01 -4.667748697E-02 -2.907258925E-01
 1.601923183E-01 -4.818367958E-02 -3.023052308E-01
 1.722166762E-01 -4.961726442E-02 -3.143664868E-01
 1.840787008E-01 -5.093700811E-02 -3.238974556E-01
 1.954671592E-01 -5.212528072E-02 -3.361520654E-01
 2.066695988E-01 -5.320917815E-02 -3.450466924E-01
 2.186464146E-01 -5.428262055E-02 -3.533071480E-01
 2.311021909E-01 -5.531185493E-02 -3.657193833E-01
 2.434265092E-01 -5.623573251E-02 -3.766474484E-01
 2.555931956E-01 -5.705454387E-02 -3.855641531E-01
 2.672275752E-01 -5.775313079E-02 -3.959486785E-01
 2.790029794E-01 -5.836842954E-02 -4.024384119E-01
 2.913652211E-01 -5.892333761E-02 -4.137953102E-01
 3.037694246E-01 -5.936795846E-02 -4.216812127E-01
 3.158881366E-01 -5.970036238E-02 -4.263953217E-01
 3.280580491E-01 -5.992608517E-02 -4.334352272E-01
 3.397339433E-01 -6.003454141E-02 -4.375798313E-01
 3.508330882E-01 -6.003437750E-02 -4.340706732E-01
 3.620786369E-01 -5.994802527E-02 -4.376303824E-01
 3.729650229E-01 -5.975802988E-02 -4.388213932E-01
 3.841255754E-01 -5.945041031E-02 -4.274118316E-01
 3.964178115E-01 -5.899420194E-02 -4.190411206E-01
 4.091722667E-01 -5.839636549E-02 -4.082071374E-01
 4.218093306E-01 -5.767570436E-02 -3.948232607E-01
 4.344498366E-01 -5.683316290E-02 -3.800173138E-01
 4.466833323E-01 -5.589478649E-02 -3.632648684E-01
 4.585386217E-01 -5.487980694E-02 -3.399563060E-01
 4.705559611E-01 -5.375242978E-02 -3.214097018E-01
 4.825553745E-01 -5.252606049E-02 -2.964846613E-01
 4.947154522E-01 -5.118923821E-02 -2.686434097E-01
 5.079620183E-01 -4.965729639E-02 -2.399888740E-01
 5.214810073E-01 -4.801910371E-02 -2.163261378E-01
 5.345999002E-01 -4.635643028E-02 -1.875988643E-01
 5.475442410E-01 -4.465438984E-02 -1.623764657E-01
 5.607012808E-01 -4.287550412E-02 -1.325954778E-01
 5.740789771E-01 -4.104085639E-02 -1.094583052E-01
 5.869002640E-01 -3.925425559E-02 -8.709955944E-02
 5.994762480E-01 -3.747765161E-02 -6.470892983E-02
 6.129997671E-01 -3.555199876E-02 -4.176891954E-02
 6.273431778E-01 -3.350007534E-02 -1.953396870E-02
 6.419478357E-01 -3.139803838E-02 3.135812882E-03
 6.558001339E-01 -2.939969487E-02 2.592975584E-02
 6.690623462E-01 -2.749875933E-02 4.508797085E-02
 6.820466518E-01 -2.564067580E-02 6.346665183E-02
 6.944836080E-01 -2.388349827E-02 8.300080843E-02
 7.079939246E-01 -2.200787235E-02 9.498300601E-02
 7.217113972E-01 -2.009393182E-02 1.148300340E-01
 7.342108488E-01 -1.838004868E-02 1.368425948E-01
 7.470297217E-01 -1.667201146E-02 1.461484570E-01
 7.598617077E-01 -1.496735262E-02 1.653463054E-01
 7.727363110E-01 -1.331423270E-02 1.838308685E-01
 7.856044173E-01 -1.171756862E-02 1.934198532E-01
 7.978553474E-01 -1.020782813E-02 2.108367186E-01
 8.096934557E-01 -8.804320358E-03 2.309039850E-01
 8.210854232E-01 -7.523635868E-03 2.382982053E-01
 8.332530558E-01 -6.205411162E-03 2.534478315E-01
 8.457789421E-01 -4.910481162E-03 2.694528688E-01
 8.580606878E-01 -3.725005547E-03 2.855949266E-01
 8.698375523E-01 -2.684994484E-03 2.984463255E-01
 8.812111914E-01 -1.786241657E-03 3.086982029E-01
 8.933115602E-01 -9.427190816E-04 3.176232314E-01
 9.049812555E-01 -2.484285851E-04 3.300140794E-01
 9.156659544E-01 2.616295478E-04 3.312011784E-01
 9.459966421E-01 1.118601649E-03 3.396769391E-01
 9.581568241E-01 1.213194337E-03 3.418850271E-01
 9.708966911E-01 1.165879134E-03 3.457041347E-01
 9.831791520E-01 9.812053177E-04 3.563606556E-01
 9.946051538E-01 6.837692345E-04 4.254640000E-01
 -5.000000000E-01 9.500000000E-01 -1.349712439E-03
 -5.000000000E-01 9.000000000E-01 -1.208543144E-03
 -5.000000000E-01 8.500000000E-01 -3.623969032E-04
 -5.000000000E-01 8.000000000E-01 1.317606564E-03
 -5.000000000E-01 7.500000000E-01 3.726680112E-03
 -5.000000000E-01 7.000000000E-01 6.941407263E-03
 -5.000000000E-01 6.500000000E-01 1.117997616E-02
 -5.000000000E-01 6.000000000E-01 1.613728094E-02
 -5.000000000E-01 5.500000000E-01 2.220429501E-02
 -5.000000000E-01 5.000000000E-01 2.903359039E-02
 -5.000000000E-01 4.500000000E-01 3.680770077E-02
 -5.000000000E-01 4.000000000E-01 4.529631680E-02
 -5.000000000E-01 3.500000000E-01 5.435248446E-02
 -5.000000000E-01 3.000000000E-01 6.363454518E-02
 -5.000000000E-01 2.500000000E-01 7.318553572E-02
 -5.000000000E-01 2.000000000E-01 8.213314609E-02
 -5.000000000E-01 1.500000000E-01 9.034983788E-02
 -5.000000000E-01 1.000000000E-01 9.729761139E-02
 -5.000000000E-01 5.000000000E-02 1.026750844E-01
 -5.000000000E-01 2.752242878E-12 1.061145556E-01
 -5.000000000E-01 -5.000000000E-02 1.073982450E-01
 -5.000000000E-01 -1.000000000E-01 1.069702889E-01
 -5.000000000E-01 -1.500000000E-01 1.044671438E-01
 -5.000000000E-01 -2.000000000E-01 1.005528659E-01
 -5.000000000E-01 -2.500000000E-01 9.552248955E-02
 -5.000000000E-01 -3.000000000E-01 8.962984807E-02
 -5.000000000E-01 -3.500000000E-01 8.348260042E-02
 -5.000000000E-01 -4.000000000E-01 7.698779294E-02
 -5.000000000E-01 -4.500000000E-01 7.073016626E-02
 -5.000000000E-01 -5.000000000E-01 6.464222741E-02
 -5.000000000E-01 -5.500000000E-01 5.893370678E-02
 -5.000000000E-01 -6.000000000E-01 5.353511620E-02
 -5.000000000E-01 -6.500000000E-01 4.863934275E-02
 -5.000000000E-01 -7.000000000E-01 4.396045790E-02
 -5.000000000E-01 -7.500000000E-01 3.967405232E-02
 -5.000000000E-01 -8.000000000E-01 3.546362064E-02
 -5.000000000E-01 -8.500000000E-01 3.140115160E-02
 -5.000000000E-01 -9.000000000E-01 2.662988466E-02
 -5.000000000E-01 -9.500000000E-01 1.986950933E-02
 -4.500000000E-01 -1.000000000E+00 1.813470626E-02
 -4.000000000E-01 -1.000000000E+00 2.346883447E-02
 -3.500000000E-01 -1.000000000E+00 2.602386660E-02
 -3.000000000E-01 -1.000000000E+00 2.733681131E-02
 -2.500000000E-01 -1.000000000E+00 2.780060481E-02
 -2.000000000E-01 -1.000000000E+00 2.738824957E-02
 -1.500000000E-01 -1.000000000E+00 2.628348272E-02
 -1.000000000E-01 -1.000000000E+00 2.451115368E-02
 -5.000000000E-02 -1.000000000E+00 2.218181441E-02
 -9.424683256E-13 -1.000000000E+00 1.940691065E-02
 5.000000000E-02 -1.000000000E+00 1.629084635E-02
 1.000000000E-01 -1.000000000E+00 1.299036852E-02
 1.500000000E-01 -1.000000000E+00 9.529235573E-03
 2.000000000E-01 -1.000000000E+00 6.200309216E-03
 2.500000000E-01 -1.000000000E+00 3.231863033E-03
 3.000000000E-01 -1.000000000E+00 6.533729071E-04
 3.500000000E-01 -1.000000000E+00 -1.423007047E-03
 4.000000000E-01 -1.000000000E+00 -2.814619372E-03
 4.500000000E-01 -1.000000000E+00 -3.472205630E-03
 5.000000000E-01 -1.000000000E+00 -3.403106735E-03
 5.500000000E-01 -1.000000000E+00 -2.563625715E-03
 6.000000000E-01 -1.000000000E+00 -1.055121893E-03
 6.500000000E-01 -1.000000000E+00 1.095280751E-03
 7.000000000E-01 -1.000000000E+00 3.776137796E-03
 7.500000000E-01 -1.000000000E+00 6.799976512E-03
 8.000000000E-01 -1.000000000E+00 1.012957944E-02
 8.500000000E-01 -1.000000000E+00 1.355207883E-02
 9.000000000E-01 -1.000000000E+00 1.694764005E-02
 9.500000000E-01 -1.000000000E+00 2.032901378E-02
 1.000000000E+00 -1.000000000E+00 2.336679497E-02
 1.050000000E+00 -1.000000000E+00 2.632331037E-02
 1.100000000E+00 -1.000000000E+00 2.884042069E-02
 1.150000000E+00 -1.000000000E+00 3.104878179E-02
 1.200000000E+00 -1.000000000E+00 3.286637523E-02
 1.250000000E+00 -1.000000000E+00 3.432858251E-02
 1.300000000E+00 -1.000000000E+00 3.542206599E-02
 1.350000000E+00 -1.000000000E+00 3.621466714E-02
 1.400000000E+00 -1.000000000E+00 3.668968937E-02
 1.450000000E+00 -1.000000000E+00 3.689757113E-02
 1.500000000E+00 -1.000000000E+00 3.688156388E-02
 1.550000000E+00 -1.000000000E+00 3.664230964E-02
 1.600000000E+00 -1.000000000E+00 3.630981345E-02
 1.650000000E+00 -1.000000000E+00 3.576712009E-02
 1.700000000E+00 -1.000000000E+00 3.518163576E-02
 1.750000000E+00 -1.000000000E+00 3.444287515E-02
 1.800000000E+00 -1.000000000E+00 3.372228433E-02
 1.850000000E+00 -1.000000000E+00 3.287542811E-02
 1.900000000E+00 -1.000000000E+00 3.205330810E-02
 1.950000000E+00 -1.000000000E+00 3.120848250E-02
 2.000000000E+00 -1.000000000E+00 3.039283129E-02
 2.050000000E+00 -1.000000000E+00 2.956679437E-02
 2.100000000E+00 -1.000000000E+00 2.877687109E-02
 2.150000000E+00 -1.000000000E+00 2.796590823E-02
 2.200000000E+00 -1.000000000E+00 2.720019961E-02
 2.250000000E+00 -1.000000000E+00 2.651906905E-02
 2.300000000E+00 -1.000000000E+00 2.579624184E-02
 2.350000000E+00 -1.000000000E+00 2.521477422E-02
 2.400000000E+00 -1.000000000E+00 2.457430563E-02
 2.450000000E+00 -1.000000000E+00 2.399676104E-02
 2.500000000E+00 -1.000000000E+00 2.350060704E-02
 2.550000000E+00 -1.000000000E+00 2.299181998E-02
 2.600000000E+00 -1.000000000E+00 2.255611252E-02
 2.650000000E+00 -1.000000000E+00 2.215011674E-02
 2.700000000E+00 -1.000000000E+00 2.179546185E-02
 2.750000000E+00 -1.000000000E+00 2.144592932E-02
 2.800000000E+00 -1.000000000E+00 2.113685643E-02
 2.850000000E+00 -1.000000000E+00 2.084856585E-02
 2.900000000E+00 -1.000000000E+00 2.057656053E-02
 2.950000000E+00 -1.000000000E+00 2.032031022E-02
 3.000000000E+00 -1.000000000E+00 2.007997086E-02
 3.050000000E+00 -1.000000000E+00 1.975999968E-02
 3.100000000E+00 -1.000000000E+00 1.946775783E-02
 3.150000000E+00 -1.000000000E+00 1.906012529E-02
 3.200000000E+00 -1.000000000E+00 1.858366772E-02
 3.250000000E+00 -1.000000000E+00 1.805191205E-02
 3.300000000E+00 -1.000000000E+00 1.721930757E-02
 3.350000000E+00 -1.000000000E+00 1.618993332E-02
 3.400000000E+00 -1.000000000E+00 1.443398367E-02
 3.450000000E+00 -1.000000000E+00 1.177468869E-02
 3.500000000E+00 -9.500000000E-01 7.925301580E-03
 3.500000000E+00 -9.000000000E-01 9.332440817E-03
 3.500000000E+00 -8.500000000E-01 1.084353804E-02
 3.500000000E+00 -8.000000000E-01 1.249846926E-02
 3.500000000E+00 -7.500000000E-01 1.392786862E-02
 3.500000000E+00 -7.000000000E-01 1.557302032E-02
 3.500000000E+00 -6.500000000E-01 1.713453248E-02
 3.500000000E+00 -6.000000000E-01 1.888657270E-02
 3.500000000E+00 -5.500000000E-01 2.071086761E-02
 3.500000000E+00 -5.000000000E-01 2.271904443E-02
 3.500000000E+00 -4.500000000E-01 2.481727616E-02
 3.500000000E+00 -4.000000000E-01 2.706756032E-02
 3.500000000E+00 -3.500000000E-01 2.935958572E-02
 3.500000000E+00 -3.000000000E-01 3.153377052E-02
 3.500000000E+00 -2.500000000E-01 3.315981182E-02
 3.500000000E+00 -2.000000000E-01 3.386278726E-02
 3.500000000E+00 -1.500000000E-01 3.356772841E-02
 3.500000000E+00 -1.000000000E-01 3.263865949E-02
 3.500000000E+00 -5.000000000E-02 3.173073733E-02
 3.500000000E+00 -2.752242878E-12 3.111240971E-02
 3.500000000E+00 5.000000000E-02 3.058125615E-02
 3.500000000E+00 1.000000000E-01 2.970995543E-02
 3.500000000E+00 1.500000000E-01 2.782071328E-02
 3.500000000E+00 2.000000000E-01 2.519426237E-02
 3.500000000E+00 2.500000000E-01 2.193069305E-02
 3.500000000E+00 3.000000000E-01 1.863455577E-02
 3.500000000E+00 3.500000000E-01 1.548194263E-02
 3.500000000E+00 4.000000000E-01 1.263451796E-02
 3.500000000E+00 4.500000000E-01 9.917095134E-03
 3.500000000E+00 5.000000000E-01 7.398680564E-03
 3.500000000E+00 5.500000000E-01 5.421605512E-03
 3.500000000E+00 6.000000000E-01 4.203216009E-03
 3.500000000E+00 6.500000000E-01 3.714080513E-03
 3.500000000E+00 7.000000000E-01 3.719185280E-03
 3.500000000E+00 7.500000000E-01 3.234360932E-03
 3.500000000E+00 8.000000000E-01 -2.090713542E-06
 3.500000000E+00 8.500000000E-01 -6.129629069E-03
 3.500000000E+00 9.000000000E-01 -1.408329171E-02
 3.500000000E+00 9.500000000E-01 -2.507969042E-02
 3.450000000E+00 1.000000000E+00 -1.560017415E-02
 3.400000000E+00 1.000000000E+00 -7.291426185E-03
 3.350000000E+00 1.000000000E+00 -3.186914202E-03
 3.300000000E+00 1.000000000E+00 -1.286590187E-03
 3.250000000E+00 1.000000000E+00 -3.942920033E-05
 3.200000000E+00 1.000000000E+00 4.808927488E-04
 3.150000000E+00 1.000000000E+00 8.738576095E-04
 3.100000000E+00 1.000000000E+00 4.983907390E-04
 3.050000000E+00 1.000000000E+00 6.819287634E-04
 3.000000000E+00 1.000000000E+00 -9.278708777E-06
 2.950000000E+00 1.000000000E+00 -2.292457884E-04
 2.900000000E+00 1.000000000E+00 -7.922813903E-04
 2.850000000E+00 1.000000000E+00 -1.350963201E-03
 2.800000000E+00 1.000000000E+00 -2.296093353E-03
 2.750000000E+00 1.000000000E+00 -3.036000662E-03
 2.700000000E+00 1.000000000E+00 -3.829509214E-03
 2.650000000E+00 1.000000000E+00 -4.910647335E-03
 2.600000000E+00 1.000000000E+00 -5.509450191E-03
 2.550000000E+00 1.000000000E+00 -6.883500629E-03
 2.500000000E+00 1.000000000E+00 -7.897773674E-03
 2.450000000E+00 1.000000000E+00 -9.344306192E-03
 2.400000000E+00 1.000000000E+00 -1.085755603E-02
 2.350000000E+00 1.000000000E+00 -1.203783448E-02
 2.300000000E+00 1.000000000E+00 -1.370077066E-02
 2.250000000E+00 1.000000000E+00 -1.516869336E-02
 2.200000000E+00 1.000000000E+00 -1.719484663E-02
 2.150000000E+00 1.000000000E+00 -1.883556627E-02
 2.100000000E+00 1.000000000E+00 -2.096342111E-02
 2.050000000E+00 1.000000000E+00 -2.305681479E-02
 2.000000000E+00 1.000000000E+00 -2.530340829E-02
 1.950000000E+00 1.000000000E+00 -2.787668921E-02
 1.900000000E+00 1.000000000E+00 -3.034589525E-02
 1.850000000E+00 1.000000000E+00 -3.347446672E-02
 1.800000000E+00 1.000000000E+00 -3.635269488E-02
 1.750000000E+00 1.000000000E+00 -3.963247918E-02
 1.700000000E+00 1.000000000E+00 -4.306026651E-02
 1.650000000E+00 1.000000000E+00 -4.681128847E-02
 1.600000000E+00 1.000000000E+00 -5.078478160E-02
 1.550000000E+00 1.000000000E+00 -5.524850247E-02
 1.500000000E+00 1.000000000E+00 -5.956467525E-02
 1.450000000E+00 1.000000000E+00 -6.483187607E-02
 1.400000000E+00 1.000000000E+00 -6.960514162E-02
 1.350000000E+00 1.000000000E+00 -7.509634087E-02
 1.300000000E+00 1.000000000E+00 -8.059756019E-02
 1.250000000E+00 1.000000000E+00 -8.692868317E-02
 1.200000000E+00 1.000000000E+00 -9.316373321E-02
 1.150000000E+00 1.000000000E+00 -9.781990550E-02
 1.100000000E+00 1.000000000E+00 -1.048633893E-01
 1.050000000E+00 1.000000000E+00 -1.096937089E-01
 1.000000000E+00 1.000000000E+00 -1.151519022E-01
 9.500000000E-01 1.000000000E+00 -1.201664889E-01
 9.000000000E-01 1.000000000E+00 -1.242741845E-01
 8.500000000E-01 1.000000000E+00 -1.273066450E-01
 8.000000000E-01 1.000000000E+00 -1.300473790E-01
 7.500000000E-01 1.000000000E+00 -1.308880722E-01
 7.000000000E-01 1.000000000E+00 -1.313446968E-01
 6.500000000E-01 1.000000000E+00 -1.302118826E-01
 6.000000000E-01 1.000000000E+00 -1.280677042E-01
 5.500000000E-01 1.000000000E+00 -1.244708943E-01
 5.000000000E-01 1.000000000E+00 -1.196186725E-01
 4.500000000E-01 1.000000000E+00 -1.135898195E-01
 4.000000000E-01 1.000000000E+00 -1.069772333E-01
 3.500000000E-01 1.000000000E+00 -9.910609135E-02
 3.000000000E-01 1.000000000E+00 -9.096664343E-02
 2.500000000E-01 1.000000000E+00 -8.198338168E-02
 2.000000000E-01 1.000000000E+00 -7.335908855E-02
 1.500000000E-01 1.000000000E+00 -6.429326579E-02
 1.000000000E-01 1.000000000E+00 -5.540636059E-02
 5.000000000E-02 1.000000000E+00 -4.685960565E-02
 1.733724275E-12 1.000000000E+00 -3.880019411E-02
 -5.000000000E-02 1.000000000E+00 -3.140093528E-02
 -1.000000000E-01 1.000000000E+00 -2.480326698E-02
 -1.500000000E-01 1.000000000E+00 -1.900248491E-02
 -2.000000000E-01 1.000000000E+00 -1.400898209E-02
 -2.500000000E-01 1.000000000E+00 -9.996831066E-03
 -3.000000000E-01 1.000000000E+00 -6.780917527E-03
 -3.500000000E-01 1.000000000E+00 -4.337197518E-03
 -4.000000000E-01 1.000000000E+00 -2.689456480E-03
 -4.500000000E-01 1.000000000E+00 -1.560159129E-03
 9.022830592E-01 -5.147656813E-03 3.196249366E-01
 8.239148180E-01 -1.155460836E-02 2.396091609E-01
 9.859489627E-01 -3.730590578E-03 3.617351259E-01
 7.514375830E-01 -2.179925855E-02 1.507345418E-01
 6.794162092E-01 -3.100150643E-02 5.804542470E-02
 6.104756089E-01 -4.182215205E-02 -4.640761240E-02
 5.445208798E-01 -5.164921280E-02 -1.650734701E-01
 4.799920180E-01 -5.775010513E-02 -2.948002953E-01
 4.253433682E-01 -6.268636326E-02 -3.801119112E-01