TITLE     = "Visualization of the solution"
VARIABLES = "x"
"y"
"Pressure_Coefficient"
ZONE T="Zone"
 STRANDID=0, SOLUTIONTIME=0
 Nodes=12066, Elements=23551, ZONETYPE=FEQuadrilateral
 DATAPACKING=POINT
 DT=(DOUBLE DOUBLE DOUBLE )
 1.000086069E+00 5.237504374E-04 2.483203152E-01
 9.879241586E-01 2.978202421E-03 1.806318449E-01
 9.753530025E-01 5.427803379E-03 1.150360022E-01
 9.596300125E-01 8.502726443E-03 6.865311255E-02
 9.460538030E-01 1.124449540E-02 5.275004813E-03
 9.323847890E-01 1.383851934E-02 -1.373631615E-02
 9.214247465E-01 1.596863568E-02 -5.425083871E-02
 9.095446467E-01 1.819079556E-02 -7.249464676E-02
 8.983291388E-01 2.032265440E-02 -1.211707805E-01
 8.861052990E-01 2.245562524E-02 -1.249388225E-01
 8.739410043E-01 2.459916472E-02 -1.556705871E-01
 8.617110848E-01 2.666227892E-02 -1.775417186E-01
 8.493927717E-01 2.864041179E-02 -1.810620717E-01
 8.382399678E-01 3.043751605E-02 -2.031550915E-01
 8.264642954E-01 3.225807846E-02 -2.153486116E-01
 8.135616779E-01 3.419360146E-02 -2.201510584E-01
 8.008528948E-01 3.611103445E-02 -2.467718033E-01
 7.883265018E-01 3.791156784E-02 -2.497878988E-01
 7.761437893E-01 3.967389837E-02 -2.775116097E-01
 7.639330029E-01 4.132828489E-02 -2.722370396E-01
 7.510420084E-01 4.312599078E-02 -3.023236958E-01
 7.373996377E-01 4.492567480E-02 -3.129059594E-01
 7.265536189E-01 4.633952305E-02 -3.307456039E-01
 7.150432467E-01 4.778283089E-02 -3.401447666E-01
 7.031324506E-01 4.925008118E-02 -3.600747981E-01
 6.893334389E-01 5.085408315E-02 -3.662078526E-01
 6.760982275E-01 5.236480758E-02 -3.853693700E-01
 6.654536724E-01 5.352858454E-02 -3.943174437E-01
 6.534070373E-01 5.481597036E-02 -4.151347761E-01
 6.414223313E-01 5.600974709E-02 -4.195727402E-01
 6.295279860E-01 5.716914311E-02 -4.390031085E-01
 6.177926660E-01 5.823456123E-02 -4.475470850E-01
 6.068276167E-01 5.918392166E-02 -4.554419059E-01
 5.946461558E-01 6.019944698E-02 -4.777648063E-01
 5.827763677E-01 6.107919663E-02 -4.782248006E-01
 5.693484545E-01 6.201844662E-02 -4.913302487E-01
 5.566154718E-01 6.281624734E-02 -4.974413001E-01
 5.442077518E-01 6.352431327E-02 -5.072297746E-01
 5.329684615E-01 6.408497691E-02 -5.059798295E-01
 5.212064981E-01 6.462652236E-02 -5.159306870E-01
 5.086089969E-01 6.510781497E-02 -5.157889369E-01
 4.973367155E-01 6.548044831E-02 -5.174495376E-01
 4.842997491E-01 6.583623588E-02 -5.205598000E-01
 4.709287286E-01 6.610786170E-02 -5.199641371E-01
 4.569950402E-01 6.629526615E-02 -5.172543706E-01
 4.436149895E-01 6.639610231E-02 -5.152778437E-01
 4.307272136E-01 6.642608345E-02 -5.174324689E-01
 4.177914262E-01 6.636559218E-02 -5.130165485E-01
 4.051690698E-01 6.623310596E-02 -5.088754952E-01
 3.925449252E-01 6.602865458E-02 -5.017665873E-01
 3.803153932E-01 6.578253210E-02 -5.037250324E-01
 3.686860502E-01 6.547319144E-02 -4.964107966E-01
 3.556846976E-01 6.506746262E-02 -4.935215396E-01
 3.431811333E-01 6.460364908E-02 -4.871782090E-01
 3.302480876E-01 6.406175345E-02 -4.846816485E-01
 3.194010556E-01 6.355381012E-02 -4.820228170E-01
 3.070622087E-01 6.290618330E-02 -4.777381650E-01
 2.938287556E-01 6.211787462E-02 -4.635636453E-01
 2.799414396E-01 6.124785170E-02 -4.674386114E-01
 2.675787807E-01 6.036955491E-02 -4.570819999E-01
 2.555242479E-01 5.945508927E-02 -4.517252420E-01
 2.430361509E-01 5.843267217E-02 -4.462909900E-01
 2.304334790E-01 5.731509253E-02 -4.361952738E-01
 2.183148414E-01 5.618212372E-02 -4.341627418E-01
 2.064604461E-01 5.498289689E-02 -4.256349888E-01
 1.948437095E-01 5.373271182E-02 -4.165510850E-01
 1.825258881E-01 5.232887343E-02 -4.102625685E-01
 1.706787944E-01 5.088655278E-02 -4.011254109E-01
 1.590178609E-01 4.938254505E-02 -3.941884049E-01
 1.473374516E-01 4.777662084E-02 -3.847664745E-01
 1.367144287E-01 4.623073339E-02 -3.758642961E-01
 1.253484040E-01 4.447510093E-02 -3.656019528E-01
 1.141748577E-01 4.264246672E-02 -3.590433039E-01
 1.035835892E-01 4.077889398E-02 -3.437759799E-01
 9.389166534E-02 3.897866607E-02 -3.342229576E-01
 8.319166303E-02 3.684778139E-02 -3.193475726E-01
 7.202257961E-02 3.445100039E-02 -3.034268317E-01
 6.255525351E-02 3.225529566E-02 -2.863324094E-01
 5.312590301E-02 2.988567390E-02 -2.650361833E-01
 4.449421167E-02 2.752169594E-02 -2.457495913E-01
 3.709984943E-02 2.531004325E-02 -2.233989876E-01
 3.061570041E-02 2.318994515E-02 -1.985749674E-01
 2.492915466E-02 2.114429511E-02 -1.763337628E-01
 2.078867517E-02 1.951065287E-02 -1.425872848E-01
 1.684827358E-02 1.782088727E-02 -1.152285605E-01
 1.382897329E-02 1.639685594E-02 -7.152642628E-02
 1.112418529E-02 1.500031445E-02 -3.855664241E-02
 9.172727354E-03 1.390601601E-02 -2.313762718E-03
 7.408313453E-03 1.282406598E-02 2.506299178E-02
 5.779881030E-03 1.173321065E-02 1.040177884E-01
 3.674780251E-03 1.012288034E-02 1.990630818E-01
 1.869196771E-03 8.477278054E-03 2.970961561E-01
 3.877751878E-04 6.779234856E-03 5.467667164E-01
 -1.046109013E-03 4.399993457E-03 8.022245125E-01
 -1.648506266E-03 2.605852671E-03 9.801930315E-01
 -1.848900109E-03 1.128530130E-03 1.083510553E+00
 -1.762395725E-03 -5.001853569E-04 1.117809764E+00
 -1.331956126E-03 -2.263907343E-03 1.055124432E+00
 -3.834913659E-04 -4.343141336E-03 9.346385533E-01
 1.062077703E-03 -6.476290524E-03 7.548881980E-01
 3.088406287E-03 -8.718685247E-03 5.827515202E-01
 4.922833294E-03 -1.038188394E-02 4.374099260E-01
 7.018274162E-03 -1.202225219E-02 3.471584945E-01
 8.687949739E-03 -1.319328602E-02 2.667075927E-01
 1.077373978E-02 -1.453610510E-02 2.088474114E-01
 1.317025535E-02 -1.593494602E-02 1.454814781E-01
 1.642901637E-02 -1.766156591E-02 8.652945752E-02
 1.945737936E-02 -1.911397651E-02 2.626769613E-02
 2.333565988E-02 -2.082066052E-02 -1.283409723E-02
 2.875374816E-02 -2.296847105E-02 -5.969786727E-02
 3.461166099E-02 -2.505140193E-02 -1.071750746E-01
 4.168651253E-02 -2.731054835E-02 -1.364594255E-01
 4.936988279E-02 -2.952885628E-02 -1.651278179E-01
 5.826850608E-02 -3.186056390E-02 -1.884839506E-01
 6.715250015E-02 -3.397254273E-02 -2.111250523E-01
 7.738506794E-02 -3.620105237E-02 -2.248118580E-01
 8.743102849E-02 -3.821225092E-02 -2.379740103E-01
 9.809745103E-02 -4.019864649E-02 -2.528390367E-01
 1.093103811E-01 -4.213217273E-02 -2.641197475E-01
 1.210518107E-01 -4.400938377E-02 -2.738595569E-01
 1.329135746E-01 -4.578206316E-02 -2.864337737E-01
 1.436692774E-01 -4.728175327E-02 -2.954815650E-01
 1.549616903E-01 -4.876616970E-02 -3.062461540E-01
 1.670178920E-01 -5.025164783E-02 -3.167455640E-01
 1.787212491E-01 -5.159877613E-02 -3.267220238E-01
 1.907472461E-01 -5.289560929E-02 -3.387835574E-01
 2.014874816E-01 -5.397029594E-02 -3.472631940E-01
 2.129376680E-01 -5.504695326E-02 -3.595061464E-01
 2.253249735E-01 -5.611506850E-02 -3.687815001E-01
 2.379680276E-01 -5.710645020E-02 -3.785056354E-01
 2.500967085E-01 -5.796842650E-02 -3.884072029E-01
 2.625225186E-01 -5.876303464E-02 -4.002039411E-01
 2.737613320E-01 -5.939441547E-02 -4.090066177E-01
 2.865447104E-01 -6.001926959E-02 -4.200361454E-01
 2.988803983E-01 -6.050303206E-02 -4.246450530E-01
 3.119109869E-01 -6.090978906E-02 -4.315442375E-01
 3.237692714E-01 -6.118147820E-02 -4.391598274E-01
 3.363963068E-01 -6.137013808E-02 -4.501712937E-01
 3.471812010E-01 -6.140926480E-02 -4.478914929E-01
 3.587159812E-01 -6.136199459E-02 -4.509451784E-01
 3.697077334E-01 -6.121339276E-02 -4.502555001E-01
 3.805465102E-01 -6.096012518E-02 -4.438558379E-01
 3.924864233E-01 -6.058382243E-02 -4.409324803E-01
 4.054129720E-01 -6.003572047E-02 -4.314941086E-01
 4.178171158E-01 -5.937842280E-02 -4.218653333E-01
 4.305767119E-01 -5.855903774E-02 -4.059321457E-01
 4.428534806E-01 -5.762603879E-02 -3.807218267E-01
 4.554740191E-01 -5.658347905E-02 -3.686193272E-01
 4.675761163E-01 -5.544731021E-02 -3.431697356E-01
 4.797483683E-01 -5.419687927E-02 -3.160360428E-01
 4.915604293E-01 -5.291002244E-02 -2.939416359E-01
 5.038043261E-01 -5.148904398E-02 -2.678304920E-01
 5.174165964E-01 -4.982627556E-02 -2.404327444E-01
 5.306165814E-01 -4.812212661E-02 -2.111454180E-01
 5.434295535E-01 -4.639708251E-02 -1.810096558E-01
 5.563172102E-01 -4.463143647E-02 -1.581779286E-01
 5.691633224E-01 -4.279737920E-02 -1.244892942E-01
 5.821112990E-01 -4.096368328E-02 -1.080291255E-01
 5.943980813E-01 -3.916394338E-02 -7.889437169E-02
 6.069345474E-01 -3.733156249E-02 -5.851744046E-02
 6.207287312E-01 -3.530919552E-02 -3.719504288E-02
 6.345281601E-01 -3.324246034E-02 -7.084867301E-03
 6.486573219E-01 -3.119312972E-02 4.152765951E-03
 6.616880298E-01 -2.925456688E-02 3.052746000E-02
 6.749328971E-01 -2.731220052E-02 4.737110024E-02
 6.870514750E-01 -2.553623170E-02 6.706698107E-02
 6.994723678E-01 -2.373464219E-02 8.531837176E-02
 7.139416337E-01 -2.167578228E-02 1.022804315E-01
 7.269464731E-01 -1.985356584E-02 1.173583581E-01
 7.386116982E-01 -1.822114550E-02 1.360557974E-01
 7.515801787E-01 -1.644782908E-02 1.511847433E-01
 7.639167309E-01 -1.477851719E-02 1.713903916E-01
 7.772983909E-01 -1.305147633E-02 1.819511394E-01
 7.890647650E-01 -1.155408192E-02 1.986180561E-01
 8.017429709E-01 -9.980573319E-03 2.158261717E-01
 8.128306270E-01 -8.675519377E-03 2.250963664E-01
 8.239536285E-01 -7.364406250E-03 2.483831737E-01
 8.367564082E-01 -5.981138907E-03 2.582708276E-01
 8.493640423E-01 -4.712167662E-03 2.695537024E-01
 8.611276746E-01 -3.570620902E-03 2.895219412E-01
 8.728746176E-01 -2.579586115E-03 2.942569028E-01
 8.842518926E-01 -1.675999258E-03 3.105345907E-01
 8.972610831E-01 -8.066909504E-04 3.172611030E-01
 9.075429440E-01 -2.323620283E-04 3.233022534E-01
 9.180570245E-01 2.591293014E-04 3.281160856E-01
 9.279624224E-01 6.174017908E-04 3.296571916E-01
 9.370236397E-01 8.701403858E-04 3.342380968E-01
 9.493664503E-01 1.077724155E-03 3.338504776E-01
 9.625335932E-01 1.151472912E-03 3.360686413E-01
 9.769650698E-01 1.058958005E-03 3.450354196E-01
 9.891898632E-01 8.288779063E-04 3.602700472E-01
 -5.000000000E-01 -1.000000000E+00 1.309784104E-02
 3.500000000E+00 -1.000000000E+00 7.779657797E-03
 3.500000000E+00 1.000000000E+00 -2.184070076E-02
 -5.000000000E-01 1.000000000E+00 -4.751323040E-04
 9.940051138E-01 1.750976429E-03 2.681990843E-01
 9.816385806E-01 4.203002900E-03 1.430610469E-01
 9.674915075E-01 6.965264911E-03 9.174014777E-02
 9.528419077E-01 9.873610921E-03 3.030483997E-02
 9.392192960E-01 1.254150737E-02 -1.813430342E-03
 9.269047678E-01 1.490357751E-02 -3.735328278E-02
 9.154846966E-01 1.707971562E-02 -6.057156392E-02
 9.039368927E-01 1.925672498E-02 -1.048845113E-01
 8.922172189E-01 2.138913982E-02 -1.188538454E-01
 8.800231516E-01 2.352739498E-02 -1.429600400E-01
 8.678260446E-01 2.563072182E-02 -1.684620858E-01
 8.555519283E-01 2.765134536E-02 -1.758914379E-01
 8.438163698E-01 2.953896392E-02 -1.943813665E-01
 8.323521316E-01 3.134779725E-02 -2.098741920E-01
 8.200129867E-01 3.322583996E-02 -2.149576604E-01
 8.072072864E-01 3.515231796E-02 -2.356243921E-01
 7.945896983E-01 3.701130114E-02 -2.459806737E-01
 7.822351456E-01 3.879273310E-02 -2.681261785E-01
 7.700383961E-01 4.050109163E-02 -2.696265759E-01
 7.574875057E-01 4.222713783E-02 -2.910715530E-01
 7.442208230E-01 4.402583279E-02 -3.058226623E-01
 7.319766283E-01 4.563259892E-02 -3.230945413E-01
 7.207984328E-01 4.706117697E-02 -3.344397275E-01
 7.090878487E-01 4.851645604E-02 -3.528685272E-01
 6.962329447E-01 5.005208217E-02 -3.613787553E-01
 6.827158332E-01 5.160944536E-02 -3.758631715E-01
 6.707759500E-01 5.294669606E-02 -3.891494398E-01
 6.594303548E-01 5.417227745E-02 -4.070167263E-01
 6.474146843E-01 5.541285872E-02 -4.153200426E-01
 6.354751587E-01 5.658944510E-02 -4.310223732E-01
 6.236603260E-01 5.770185217E-02 -4.421890656E-01
 6.123101413E-01 5.870924145E-02 -4.505047422E-01
 6.007368863E-01 5.969168432E-02 -4.697119088E-01
 5.887112617E-01 6.063932180E-02 -4.769240610E-01
 5.760624111E-01 6.154882163E-02 -4.852583787E-01
 5.629819632E-01 6.241734698E-02 -4.937370718E-01
 5.504116118E-01 6.317028031E-02 -5.028383487E-01
 5.385881066E-01 6.380464509E-02 -5.051653730E-01
 5.270874798E-01 6.435574964E-02 -5.133900776E-01
 5.149077475E-01 6.486716866E-02 -5.143870084E-01
 5.029728562E-01 6.529413164E-02 -5.175601754E-01
 4.908182323E-01 6.565834209E-02 -5.198318966E-01
 4.776142389E-01 6.597204879E-02 -5.207663839E-01
 4.639618844E-01 6.620156392E-02 -5.178848593E-01
 4.503050149E-01 6.634568423E-02 -5.154554631E-01
 4.371711016E-01 6.641109288E-02 -5.174616519E-01
 4.242593199E-01 6.639583781E-02 -5.147631741E-01
 4.114802480E-01 6.629934907E-02 -5.110458245E-01
 3.988569975E-01 6.613088027E-02 -5.040313630E-01
 3.864301592E-01 6.590559334E-02 -5.035603455E-01
 3.745007217E-01 6.562786177E-02 -5.001793288E-01
 3.621853739E-01 6.527032703E-02 -4.950590012E-01
 3.494329154E-01 6.483555585E-02 -4.901936515E-01
 3.367146105E-01 6.433270127E-02 -4.846027320E-01
 3.248245716E-01 6.380778179E-02 -4.848411512E-01
 3.132316321E-01 6.322999671E-02 -4.814563858E-01
 3.004454821E-01 6.251202896E-02 -4.686852524E-01
 2.868850976E-01 6.168286316E-02 -4.669190120E-01
 2.737601101E-01 6.080870330E-02 -4.612775688E-01
 2.615515143E-01 5.991232209E-02 -4.549904696E-01
 2.492801994E-01 5.894388072E-02 -4.497058492E-01
 2.367348149E-01 5.787388235E-02 -4.397153288E-01
 2.243741602E-01 5.674860813E-02 -4.364031390E-01
 2.123876438E-01 5.558251031E-02 -4.296230922E-01
 2.006520778E-01 5.435780436E-02 -4.215696622E-01
 1.886847988E-01 5.303079262E-02 -4.135511112E-01
 1.766023412E-01 5.160771310E-02 -4.055877389E-01
 1.648483276E-01 5.013454892E-02 -3.983495468E-01
 1.531776562E-01 4.857958294E-02 -3.884428892E-01
 1.420259401E-01 4.700367711E-02 -3.815672921E-01
 1.310314164E-01 4.535291716E-02 -3.708444218E-01
 1.197616309E-01 4.355878383E-02 -3.625948693E-01
 1.088792235E-01 4.171068035E-02 -3.513518875E-01
 8.854166418E-02 3.791322373E-02 -3.289801290E-01
 7.760712132E-02 3.564939089E-02 -3.142854259E-01
 7.226878405E-02 -3.508679755E-02 -2.202080959E-01
 8.240804821E-02 -3.720665164E-02 -2.343069779E-01
 9.276423976E-02 -3.920544870E-02 -2.445510953E-01
 1.037039161E-01 -4.116540961E-02 -2.585065974E-01
 1.151810959E-01 -4.307077825E-02 -2.695826413E-01
 1.269826926E-01 -4.489572346E-02 -2.804966388E-01
 1.382914260E-01 -4.653190821E-02 -2.930045277E-01
 1.493154839E-01 -4.802396148E-02 -3.005311577E-01
 1.609897912E-01 -4.950890876E-02 -3.108369340E-01
 1.728695706E-01 -5.092521198E-02 -3.224038723E-01
 1.847342476E-01 -5.224719271E-02 -3.322739710E-01
 1.961173639E-01 -5.343295261E-02 -3.446418225E-01
 2.072125748E-01 -5.450862460E-02 -3.519505730E-01
 2.191313207E-01 -5.558101088E-02 -3.637560173E-01
 2.316465005E-01 -5.661075935E-02 -3.735956344E-01
 2.440323681E-01 -5.753743835E-02 -3.840797455E-01
 2.563096136E-01 -5.836573057E-02 -3.939485330E-01
 2.681419253E-01 -5.907872505E-02 -4.063313019E-01
 2.801530212E-01 -5.970684253E-02 -4.124107708E-01
 2.927125543E-01 -6.026115082E-02 -4.239635364E-01
 3.053956926E-01 -6.070641056E-02 -4.272943009E-01
 3.178401291E-01 -6.104563363E-02 -4.362317548E-01
 3.300827891E-01 -6.127580814E-02 -4.427232359E-01
 3.417887539E-01 -6.138970144E-02 -4.535790114E-01
 3.529485911E-01 -6.138562970E-02 -4.475945320E-01
 3.642118573E-01 -6.128769368E-02 -4.518250400E-01
 3.751271218E-01 -6.108675897E-02 -4.482774559E-01
 3.865164667E-01 -6.077197380E-02 -4.405110414E-01
 3.989496976E-01 -6.030977145E-02 -4.357816751E-01
 4.116150439E-01 -5.970707163E-02 -4.273966445E-01
 4.241969138E-01 -5.896873027E-02 -4.141672401E-01
 4.367150962E-01 -5.809253827E-02 -3.956221228E-01
 4.491637498E-01 -5.710475892E-02 -3.725577637E-01
 4.615250677E-01 -5.601539463E-02 -3.579959381E-01
 4.736622423E-01 -5.482209474E-02 -3.306735688E-01
 4.856543988E-01 -5.355345085E-02 -3.048923684E-01
 4.976823777E-01 -5.219953321E-02 -2.811280817E-01
 5.106104612E-01 -5.065765977E-02 -2.536698756E-01
 5.240165889E-01 -4.897420108E-02 -2.268599790E-01
 5.370230675E-01 -4.725960456E-02 -1.969951333E-01
 5.498733819E-01 -4.551425949E-02 -1.685299399E-01
 5.627402663E-01 -4.371440783E-02 -1.433079843E-01
 5.756373107E-01 -4.188053124E-02 -1.140445032E-01
 5.882546902E-01 -4.006381333E-02 -9.528048990E-02
 6.006663144E-01 -3.824775293E-02 -6.811223487E-02
 6.138316393E-01 -3.632037900E-02 -4.771656424E-02
 6.276284456E-01 -3.427582793E-02 -2.431893161E-02
 6.415927410E-01 -3.221779503E-02 1.132503225E-03
 6.551726758E-01 -3.022384830E-02 1.559471168E-02
 6.683104634E-01 -2.828338370E-02 3.974962772E-02
 6.809921861E-01 -2.642421611E-02 5.673463160E-02
 6.932619214E-01 -2.463543694E-02 7.594845849E-02
 7.067070007E-01 -2.270521224E-02 9.390340774E-02
 7.204440534E-01 -2.076467406E-02 1.108615770E-01
 7.327790856E-01 -1.903735567E-02 1.259560214E-01
 7.450959384E-01 -1.733448729E-02 1.437307939E-01
 7.577484548E-01 -1.561317313E-02 1.602463181E-01
 7.706075609E-01 -1.391499676E-02 1.775025968E-01
 7.831815779E-01 -1.230277913E-02 1.901685352E-01
 7.954038680E-01 -1.076732762E-02 2.064700467E-01
 8.072867990E-01 -9.328046348E-03 2.223066056E-01
 8.183921278E-01 -8.019962814E-03 2.337695254E-01
 8.303550184E-01 -6.672772579E-03 2.532456127E-01
 8.430602252E-01 -5.346653285E-03 2.646745333E-01
 8.552458584E-01 -4.141394282E-03 2.774828554E-01
 8.670011461E-01 -3.075103508E-03 2.935349882E-01
 8.785632551E-01 -2.127792686E-03 3.004994374E-01
 8.907564878E-01 -1.241345104E-03 3.132038165E-01
 9.024020135E-01 -5.195264894E-04 3.226549980E-01
 9.127999842E-01 1.338363654E-05 3.256591916E-01
 9.431950450E-01 9.739322704E-04 3.332781835E-01
 9.559500217E-01 1.114598534E-03 3.341393336E-01
 9.697493315E-01 1.105215459E-03 3.365562097E-01
 9.830774665E-01 9.439179557E-04 3.503376728E-01
 9.946379662E-01 6.763141719E-04 4.306390315E-01
 -5.000000000E-01 9.500000000E-01 -5.184072364E-04
 -5.000000000E-01 9.000000000E-01 -1.568513059E-04
 -5.000000000E-01 8.500000000E-01 8.195991409E-04
 -5.000000000E-01 8.000000000E-01 2.466262109E-03
 -5.000000000E-01 7.500000000E-01 4.845264276E-03
 -5.000000000E-01 7.000000000E-01 7.965694217E-03
 -5.000000000E-01 6.500000000E-01 1.196721508E-02
 -5.000000000E-01 6.000000000E-01 1.668485559E-02
 -5.000000000E-01 5.500000000E-01 2.252315033E-02
 -5.000000000E-01 5.000000000E-01 2.887064913E-02
 -5.000000000E-01 4.500000000E-01 3.629539782E-02
 -5.000000000E-01 4.000000000E-01 4.438062122E-02
 -5.000000000E-01 3.500000000E-01 5.294993044E-02
 -5.000000000E-01 3.000000000E-01 6.173742415E-02
 -5.000000000E-01 2.500000000E-01 7.075373828E-02
 -5.000000000E-01 2.000000000E-01 7.927720808E-02
 -5.000000000E-01 1.500000000E-01 8.703059039E-02
 -5.000000000E-01 1.000000000E-01 9.364383926E-02
 -5.000000000E-01 5.000000000E-02 9.874168757E-02
 -5.000000000E-01 2.752242878E-12 1.019300565E-01
 -5.000000000E-01 -5.000000000E-02 1.032397410E-01
 -5.000000000E-01 -1.000000000E-01 1.024820970E-01
 -5.000000000E-01 -1.500000000E-01 1.000365726E-01
 -5.000000000E-01 -2.000000000E-01 9.616232648E-02
 -5.000000000E-01 -2.500000000E-01 9.108831225E-02
 -5.000000000E-01 -3.000000000E-01 8.532760994E-02
 -5.000000000E-01 -3.500000000E-01 7.911725852E-02
 -5.000000000E-01 -4.000000000E-01 7.277415202E-02
 -5.000000000E-01 -4.500000000E-01 6.663907141E-02
 -5.000000000E-01 -5.000000000E-01 6.054270463E-02
 -5.000000000E-01 -5.500000000E-01 5.500328423E-02
 -5.000000000E-01 -6.000000000E-01 4.975013093E-02
 -5.000000000E-01 -6.500000000E-01 4.493159720E-02
 -5.000000000E-01 -7.000000000E-01 4.044608516E-02
 -5.000000000E-01 -7.500000000E-01 3.634833335E-02
 -5.000000000E-01 -8.000000000E-01 3.239627635E-02
 -5.000000000E-01 -8.500000000E-01 2.848800715E-02
 -5.000000000E-01 -9.000000000E-01 2.423671163E-02
 -5.000000000E-01 -9.500000000E-01 1.799075622E-02
 -4.500000000E-01 -1.000000000E+00 1.638739277E-02
 -4.000000000E-01 -1.000000000E+00 2.123115774E-02
 -3.500000000E-01 -1.000000000E+00 2.345135299E-02
 -3.000000000E-01 -1.000000000E+00 2.450009018E-02
 -2.500000000E-01 -1.000000000E+00 2.469010748E-02
 -2.000000000E-01 -1.000000000E+00 2.408908374E-02
 -1.500000000E-01 -1.000000000E+00 2.277397847E-02
 -1.000000000E-01 -1.000000000E+00 2.084603576E-02
 -5.000000000E-02 -1.000000000E+00 1.831765211E-02
 -9.424683256E-13 -1.000000000E+00 1.533186697E-02
 5.000000000E-02 -1.000000000E+00 1.199903547E-02
 1.000000000E-01 -1.000000000E+00 8.496431693E-03
 1.500000000E-01 -1.000000000E+00 4.936658328E-03
 2.000000000E-01 -1.000000000E+00 1.498051383E-03
 2.500000000E-01 -1.000000000E+00 -1.658317131E-03
 3.000000000E-01 -1.000000000E+00 -4.391959127E-03
 3.500000000E-01 -1.000000000E+00 -6.541655508E-03
 4.000000000E-01 -1.000000000E+00 -8.140254883E-03
 4.500000000E-01 -1.000000000E+00 -8.864615968E-03
 5.000000000E-01 -1.000000000E+00 -8.859237115E-03
 5.500000000E-01 -1.000000000E+00 -8.114636750E-03
 6.000000000E-01 -1.000000000E+00 -6.610631068E-03
 6.500000000E-01 -1.000000000E+00 -4.456922110E-03
 7.000000000E-01 -1.000000000E+00 -1.793231487E-03
 7.500000000E-01 -1.000000000E+00 1.318082611E-03
 8.000000000E-01 -1.000000000E+00 4.672430188E-03
 8.500000000E-01 -1.000000000E+00 8.223237741E-03
 9.000000000E-01 -1.000000000E+00 1.178482690E-02
 9.500000000E-01 -1.000000000E+00 1.521394789E-02
 1.000000000E+00 -1.000000000E+00 1.847626729E-02
 1.050000000E+00 -1.000000000E+00 2.144937546E-02
 1.100000000E+00 -1.000000000E+00 2.412116224E-02
 1.150000000E+00 -1.000000000E+00 2.645794855E-02
 1.200000000E+00 -1.000000000E+00 2.841839520E-02
 1.250000000E+00 -1.000000000E+00 3.000210893E-02
 1.300000000E+00 -1.000000000E+00 3.126893539E-02
 1.350000000E+00 -1.000000000E+00 3.217813997E-02
 1.400000000E+00 -1.000000000E+00 3.281634483E-02
 1.450000000E+00 -1.000000000E+00 3.315729382E-02
 1.500000000E+00 -1.000000000E+00 3.327758217E-02
 1.550000000E+00 -1.000000000E+00 3.320222483E-02
 1.600000000E+00 -1.000000000E+00 3.294254632E-02
 1.650000000E+00 -1.000000000E+00 3.257655828E-02
 1.700000000E+00 -1.000000000E+00 3.207276923E-02
 1.750000000E+00 -1.000000000E+00 3.151915650E-02
 1.800000000E+00 -1.000000000E+00 3.086342882E-02
 1.850000000E+00 -1.000000000E+00 3.019273764E-02
 1.900000000E+00 -1.000000000E+00 2.945523953E-02
 1.950000000E+00 -1.000000000E+00 2.872672106E-02
 2.000000000E+00 -1.000000000E+00 2.799906999E-02
 2.050000000E+00 -1.000000000E+00 2.726469016E-02
 2.100000000E+00 -1.000000000E+00 2.657337891E-02
 2.150000000E+00 -1.000000000E+00 2.585679463E-02
 2.200000000E+00 -1.000000000E+00 2.521157205E-02
 2.250000000E+00 -1.000000000E+00 2.455664478E-02
 2.300000000E+00 -1.000000000E+00 2.394879144E-02
 2.350000000E+00 -1.000000000E+00 2.340781716E-02
 2.400000000E+00 -1.000000000E+00 2.284617005E-02
 2.450000000E+00 -1.000000000E+00 2.231959376E-02
 2.500000000E+00 -1.000000000E+00 2.187094356E-02
 2.550000000E+00 -1.000000000E+00 2.141292455E-02
 2.600000000E+00 -1.000000000E+00 2.104466967E-02
 2.650000000E+00 -1.000000000E+00 2.067860617E-02
 2.700000000E+00 -1.000000000E+00 2.035620018E-02
 2.750000000E+00 -1.000000000E+00 2.005187812E-02
 2.800000000E+00 -1.000000000E+00 1.976834358E-02
 2.850000000E+00 -1.000000000E+00 1.952589566E-02
 2.900000000E+00 -1.000000000E+00 1.923562125E-02
 2.950000000E+00 -1.000000000E+00 1.901069786E-02
 3.000000000E+00 -1.000000000E+00 1.875605015E-02
 3.050000000E+00 -1.000000000E+00 1.849789240E-02
 3.100000000E+00 -1.000000000E+00 1.819308177E-02
 3.150000000E+00 -1.000000000E+00 1.783887895E-02
 3.200000000E+00 -1.000000000E+00 1.738427062E-02
 3.250000000E+00 -1.000000000E+00 1.681418639E-02
 3.300000000E+00 -1.000000000E+00 1.604051527E-02
 3.350000000E+00 -1.000000000E+00 1.498949185E-02
 3.400000000E+00 -1.000000000E+00 1.338886934E-02
 3.450000000E+00 -1.000000000E+00 1.075958319E-02
 3.500000000E+00 -9.500000000E-01 6.971540926E-03
 3.500000000E+00 -9.000000000E-01 8.493042049E-03
 3.500000000E+00 -8.500000000E-01 9.848458683E-03
 3.500000000E+00 -8.000000000E-01 1.136988744E-02
 3.500000000E+00 -7.500000000E-01 1.278154135E-02
 3.500000000E+00 -7.000000000E-01 1.420924865E-02
 3.500000000E+00 -6.500000000E-01 1.576925627E-02
 3.500000000E+00 -6.000000000E-01 1.746744497E-02
 3.500000000E+00 -5.500000000E-01 1.928205272E-02
 3.500000000E+00 -5.000000000E-01 2.120734705E-02
 3.500000000E+00 -4.500000000E-01 2.327947340E-02
 3.500000000E+00 -4.000000000E-01 2.545886415E-02
 3.500000000E+00 -3.500000000E-01 2.777632777E-02
 3.500000000E+00 -3.000000000E-01 2.992483499E-02
 3.500000000E+00 -2.500000000E-01 3.158624139E-02
 3.500000000E+00 -2.000000000E-01 3.220280327E-02
 3.500000000E+00 -1.500000000E-01 3.201236183E-02
 3.500000000E+00 -1.000000000E-01 3.113080375E-02
 3.500000000E+00 -5.000000000E-02 3.019246682E-02
 3.500000000E+00 -2.752242878E-12 2.958980233E-02
 3.500000000E+00 5.000000000E-02 2.915768869E-02
 3.500000000E+00 1.000000000E-01 2.850655335E-02
 3.500000000E+00 1.500000000E-01 2.701630141E-02
 3.500000000E+00 2.000000000E-01 2.455807156E-02
 3.500000000E+00 2.500000000E-01 2.156511902E-02
 3.500000000E+00 3.000000000E-01 1.840595400E-02
 3.500000000E+00 3.500000000E-01 1.543829612E-02
 3.500000000E+00 4.000000000E-01 1.263236682E-02
 3.500000000E+00 4.500000000E-01 1.012493782E-02
 3.500000000E+00 5.000000000E-01 7.774138190E-03
 3.500000000E+00 5.500000000E-01 5.779428441E-03
 3.500000000E+00 6.000000000E-01 4.458001423E-03
 3.500000000E+00 6.500000000E-01 3.898106110E-03
 3.500000000E+00 7.000000000E-01 3.761310732E-03
 3.500000000E+00 7.500000000E-01 3.078976684E-03
 3.500000000E+00 8.000000000E-01 6.111096397E-04
 3.500000000E+00 8.500000000E-01 -4.698740848E-03
 3.500000000E+00 9.000000000E-01 -1.212732424E-02
 3.500000000E+00 9.500000000E-01 -2.158118901E-02
 3.450000000E+00 1.000000000E+00 -1.304383881E-02
 3.400000000E+00 1.000000000E+00 -5.560774010E-03
 3.350000000E+00 1.000000000E+00 -1.890058952E-03
 3.300000000E+00 1.000000000E+00 -2.912260900E-04
 3.250000000E+00 1.000000000E+00 8.533988939E-04
 3.200000000E+00 1.000000000E+00 1.169681760E-03
 3.150000000E+00 1.000000000E+00 1.525564315E-03
 3.100000000E+00 1.000000000E+00 1.404764174E-03
 3.050000000E+00 1.000000000E+00 1.210901586E-03
 3.000000000E+00 1.000000000E+00 7.390957868E-04
 2.950000000E+00 1.000000000E+00 4.258133192E-04
 2.900000000E+00 1.000000000E+00 -3.324732868E-04
 2.850000000E+00 1.000000000E+00 -7.754422176E-04
 2.800000000E+00 1.000000000E+00 -1.530399998E-03
 2.750000000E+00 1.000000000E+00 -2.302117682E-03
 2.700000000E+00 1.000000000E+00 -3.255288859E-03
 2.650000000E+00 1.000000000E+00 -3.829268585E-03
 2.600000000E+00 1.000000000E+00 -5.174846532E-03
 2.550000000E+00 1.000000000E+00 -5.635984856E-03
 2.500000000E+00 1.000000000E+00 -7.172591692E-03
 2.450000000E+00 1.000000000E+00 -8.107293060E-03
 2.400000000E+00 1.000000000E+00 -9.610006429E-03
 2.350000000E+00 1.000000000E+00 -1.077324703E-02
 2.300000000E+00 1.000000000E+00 -1.222987580E-02
 2.250000000E+00 1.000000000E+00 -1.369469824E-02
 2.200000000E+00 1.000000000E+00 -1.541523753E-02
 2.150000000E+00 1.000000000E+00 -1.709416682E-02
 2.100000000E+00 1.000000000E+00 -1.906664278E-02
 2.050000000E+00 1.000000000E+00 -2.094888228E-02
 2.000000000E+00 1.000000000E+00 -2.322371603E-02
 1.950000000E+00 1.000000000E+00 -2.512318590E-02
 1.900000000E+00 1.000000000E+00 -2.806616384E-02
 1.850000000E+00 1.000000000E+00 -3.032615427E-02
 1.800000000E+00 1.000000000E+00 -3.311023431E-02
 1.750000000E+00 1.000000000E+00 -3.638908844E-02
 1.700000000E+00 1.000000000E+00 -3.944959691E-02
 1.650000000E+00 1.000000000E+00 -4.330386419E-02
 1.600000000E+00 1.000000000E+00 -4.666469894E-02
 1.550000000E+00 1.000000000E+00 -5.090999906E-02
 1.500000000E+00 1.000000000E+00 -5.482581260E-02
 1.450000000E+00 1.000000000E+00 -5.957352219E-02
 1.400000000E+00 1.000000000E+00 -6.430648978E-02
 1.350000000E+00 1.000000000E+00 -6.919888430E-02
 1.300000000E+00 1.000000000E+00 -7.444899081E-02
 1.250000000E+00 1.000000000E+00 -7.963545831E-02
 1.200000000E+00 1.000000000E+00 -8.519959095E-02
 1.150000000E+00 1.000000000E+00 -9.099168600E-02
 1.100000000E+00 1.000000000E+00 -9.615146241E-02
 1.050000000E+00 1.000000000E+00 -1.012521522E-01
 1.000000000E+00 1.000000000E+00 -1.058683971E-01
 9.500000000E-01 1.000000000E+00 -1.105795899E-01
 9.000000000E-01 1.000000000E+00 -1.140919080E-01
 8.500000000E-01 1.000000000E+00 -1.174846307E-01
 8.000000000E-01 1.000000000E+00 -1.197236170E-01
 7.500000000E-01 1.000000000E+00 -1.205267429E-01
 7.000000000E-01 1.000000000E+00 -1.203513242E-01
 6.500000000E-01 1.000000000E+00 -1.197545068E-01
 6.000000000E-01 1.000000000E+00 -1.174322418E-01
 5.500000000E-01 1.000000000E+00 -1.139622275E-01
 5.000000000E-01 1.000000000E+00 -1.098160213E-01
 4.500000000E-01 1.000000000E+00 -1.040123764E-01
 4.000000000E-01 1.000000000E+00 -9.802513096E-02
 3.500000000E-01 1.000000000E+00 -9.091525208E-02
 3.000000000E-01 1.000000000E+00 -8.291294594E-02
 2.500000000E-01 1.000000000E+00 -7.491445861E-02
 2.000000000E-01 1.000000000E+00 -6.652194877E-02
 1.500000000E-01 1.000000000E+00 -5.835190205E-02
 1.000000000E-01 1.000000000E+00 -5.007007741E-02
 5.000000000E-02 1.000000000E+00 -4.221533003E-02
 1.733724275E-12 1.000000000E+00 -3.476041174E-02
 -5.000000000E-02 1.000000000E+00 -2.797083232E-02
 -1.000000000E-01 1.000000000E+00 -2.180943804E-02
 -1.500000000E-01 1.000000000E+00 -1.645696126E-02
 -2.000000000E-01 1.000000000E+00 -1.177565150E-02
 -2.500000000E-01 1.000000000E+00 -8.127838763E-03
 -3.000000000E-01 1.000000000E+00 -5.183041073E-03
 -3.500000000E-01 1.000000000E+00 -3.062241832E-03
 -4.000000000E-01 1.000000000E+00 -1.632403874E-03
 -4.500000000E-01 1.000000000E+00 -7.784819541E-04
 8.878571528E-01 -6.740754782E-03 3.043299257E-01
 8.106238179E-01 -1.380287875E-02 2.206804059E-01
 7.425832537E-01 -2.311226690E-02 1.371200055E-01
 9.806107103E-01 -4.746633798E-03 3.316274032E-01
 6.724269834E-01 -3.328910098E-02 4.261544361E-02
 6.044775265E-01 -4.365909496E-02 -6.304445244E-02
 5.406488909E-01 -5.224594873E-02 -1.854854538E-01
 4.770774151E-01 -5.923389799E-02 -3.159170905E-01
 4.213844857E-01 -6.517104869E-02 -4.037949902E-01
 3.615282658E-01 -6.608441243E-02 -4.392796345E-01
 3.082443501E-01 -6.585867541E-02 -4.200581210E-01
 2.468446565E-01 -6.376494675E-02 -3.766519598E-01