TITLE     = "Visualization of the solution"
VARIABLES = "x"
"y"
"Pressure_Coefficient"
ZONE T="Zone"
 STRANDID=0, SOLUTIONTIME=0
 Nodes=12031, Elements=23483, ZONETYPE=FEQuadrilateral
 DATAPACKING=POINT
 DT=(DOUBLE DOUBLE DOUBLE )
 1.000224948E+00 5.256507429E-04 2.629423901E-01
 9.867017865E-01 3.198515158E-03 1.573259981E-01
 9.743273854E-01 5.624639336E-03 1.001828692E-01
 9.597218633E-01 8.450272493E-03 5.555130710E-02
 9.464313984E-01 1.103250589E-02 1.607432693E-02
 9.345198870E-01 1.335844491E-02 -3.144089269E-02
 9.232963920E-01 1.544981543E-02 -5.204143099E-02
 9.116032124E-01 1.761095598E-02 -7.631390321E-02
 9.003825784E-01 1.968327723E-02 -1.151569591E-01
 8.885470629E-01 2.175961435E-02 -1.369398588E-01
 8.768377304E-01 2.375034615E-02 -1.588501284E-01
 8.649671674E-01 2.568457834E-02 -1.720023259E-01
 8.528995514E-01 2.760358527E-02 -1.915928747E-01
 8.413876891E-01 2.935207076E-02 -1.983002720E-01
 8.297545314E-01 3.108952008E-02 -2.082182304E-01
 8.173046708E-01 3.292806447E-02 -2.310235247E-01
 8.042382002E-01 3.475138545E-02 -2.308835835E-01
 7.920567393E-01 3.647051752E-02 -2.553676553E-01
 7.790231705E-01 3.820798546E-02 -2.581062646E-01
 7.668531537E-01 3.983041644E-02 -2.741812275E-01
 7.534982562E-01 4.156327248E-02 -2.919057446E-01
 7.394021749E-01 4.331158847E-02 -2.988981825E-01
 7.281447053E-01 4.469939694E-02 -3.167652576E-01
 7.163994908E-01 4.608723521E-02 -3.242796315E-01
 7.043317556E-01 4.748795554E-02 -3.367809406E-01
 6.908621788E-01 4.901408032E-02 -3.544952985E-01
 6.776818633E-01 5.044849589E-02 -3.726943567E-01
 6.665151715E-01 5.159999058E-02 -3.803083609E-01
 6.544961929E-01 5.279806256E-02 -3.918168043E-01
 6.431513429E-01 5.388397723E-02 -4.034661169E-01
 6.308283806E-01 5.500546843E-02 -4.127280045E-01
 6.190496683E-01 5.603636429E-02 -4.274109737E-01
 6.081467867E-01 5.693410710E-02 -4.365128534E-01
 5.957752466E-01 5.789349228E-02 -4.487210702E-01
 5.837185383E-01 5.875424668E-02 -4.539059432E-01
 5.698782206E-01 5.967419595E-02 -4.647604157E-01
 5.568649173E-01 6.046215445E-02 -4.737138320E-01
 5.438160300E-01 6.117586046E-02 -4.852648560E-01
 5.322059989E-01 6.172332913E-02 -4.851500632E-01
 5.199560523E-01 6.224023551E-02 -4.889881218E-01
 5.073031783E-01 6.269986928E-02 -4.930154745E-01
 4.963577390E-01 6.303872913E-02 -4.949087490E-01
 4.830121994E-01 6.336989999E-02 -4.950288400E-01
 4.701755345E-01 6.361519545E-02 -4.947505479E-01
 4.564625621E-01 6.380453706E-02 -4.990119543E-01
 4.426099956E-01 6.388937682E-02 -4.952925010E-01
 4.296061397E-01 6.389531493E-02 -4.917545143E-01
 4.163383842E-01 6.383395195E-02 -4.914040890E-01
 4.040799141E-01 6.371025741E-02 -4.915061601E-01
 3.912611902E-01 6.349638849E-02 -4.848734757E-01
 3.791309893E-01 6.323800236E-02 -4.830879435E-01
 3.673352301E-01 6.291963905E-02 -4.759151439E-01
 3.541013300E-01 6.250762939E-02 -4.759105395E-01
 3.417969346E-01 6.204498932E-02 -4.679794066E-01
 3.294441104E-01 6.153106689E-02 -4.681107433E-01
 3.189010322E-01 6.103123352E-02 -4.613576640E-01
 3.066956103E-01 6.039779261E-02 -4.571912208E-01
 2.939403653E-01 5.966288969E-02 -4.494603784E-01
 2.804351449E-01 5.882078037E-02 -4.475431766E-01
 2.680218518E-01 5.796559528E-02 -4.419174960E-01
 2.562494576E-01 5.708773807E-02 -4.350944945E-01
 2.435795665E-01 5.606929958E-02 -4.271141185E-01
 2.311280668E-01 5.500243977E-02 -4.222793198E-01
 2.188969404E-01 5.387775227E-02 -4.168427539E-01
 2.071009427E-01 5.271326378E-02 -4.072281703E-01
 1.953575462E-01 5.149138719E-02 -4.019126095E-01
 1.832844913E-01 5.015419051E-02 -3.948056384E-01
 1.715819687E-01 4.877780750E-02 -3.883909954E-01
 1.599375755E-01 4.731831327E-02 -3.779952674E-01
 1.483357102E-01 4.578378052E-02 -3.712093289E-01
 1.374412924E-01 4.425702244E-02 -3.635326583E-01
 1.262040734E-01 4.258746281E-02 -3.549995870E-01
 1.151127741E-01 4.083675146E-02 -3.463986183E-01
 1.043666750E-01 3.902760521E-02 -3.345780144E-01
 9.459961951E-02 3.729163483E-02 -3.261274113E-01
 8.375050128E-02 3.522896767E-02 -3.143731008E-01
 7.231232524E-02 3.288392723E-02 -3.023908890E-01
 6.261473149E-02 3.074339405E-02 -2.880047146E-01
 5.318509787E-02 2.848021127E-02 -2.734760238E-01
 4.444076493E-02 2.619802766E-02 -2.596488865E-01
 3.680342063E-02 2.401208691E-02 -2.405527641E-01
 3.018288128E-02 2.192918397E-02 -2.211766257E-01
 2.451134287E-02 1.997164823E-02 -2.069364795E-01
 2.037771046E-02 1.840342209E-02 -1.803337235E-01
 1.648152620E-02 1.678015478E-02 -1.569303198E-01
 1.353758480E-02 1.543644443E-02 -1.286084219E-01
 1.092154067E-02 1.413210481E-02 -1.007753983E-01
 8.982974105E-03 1.306853537E-02 -6.513128286E-02
 7.218068000E-03 1.201648824E-02 -4.781826634E-02
 5.573538598E-03 1.093821228E-02 3.354563279E-02
 3.435900435E-03 9.326448664E-03 1.280443275E-01
 1.699446235E-03 7.750247139E-03 2.092203040E-01
 2.924171858E-04 6.140533369E-03 4.520700162E-01
 -1.047895523E-03 3.958066925E-03 7.111751346E-01
 -1.681478461E-03 2.195533831E-03 9.122390554E-01
 -1.908328035E-03 7.566814893E-04 1.016190269E+00
 -1.871040557E-03 -9.297400247E-04 1.097074707E+00
 -1.434422331E-03 -2.884071320E-03 1.079657087E+00
 -4.553645849E-04 -5.128381308E-03 9.687661680E-01
 1.094497507E-03 -7.489697542E-03 8.252475087E-01
 3.233389929E-03 -9.933625348E-03 6.479799703E-01
 5.173431709E-03 -1.175405551E-02 5.056736853E-01
 7.451836020E-03 -1.361377817E-02 4.184029896E-01
 9.208980016E-03 -1.489686035E-02 3.251900893E-01
 1.136729121E-02 -1.634690724E-02 2.702181372E-01
 1.384045370E-02 -1.786423288E-02 1.988400888E-01
 1.718186587E-02 -1.973390579E-02 1.332867725E-01
 2.040547878E-02 -2.137351781E-02 6.943720859E-02
 2.447476424E-02 -2.328475378E-02 1.805786523E-02
 2.983536758E-02 -2.554639056E-02 -3.705247042E-02
 3.546523303E-02 -2.770454250E-02 -8.716864029E-02
 4.234361649E-02 -3.009371459E-02 -1.261430365E-01
 4.977045208E-02 -3.243082017E-02 -1.624028211E-01
 5.839599296E-02 -3.490355238E-02 -1.900553295E-01
 6.702148914E-02 -3.716024384E-02 -2.181241664E-01
 7.734120637E-02 -3.963577375E-02 -2.377915025E-01
 8.715482801E-02 -4.180317372E-02 -2.560969416E-01
 9.754676372E-02 -4.392585903E-02 -2.749548466E-01
 1.086920649E-01 -4.603352025E-02 -2.885425608E-01
 1.200885922E-01 -4.804021493E-02 -3.036622135E-01
 1.317251176E-01 -4.993942007E-02 -3.148130522E-01
 1.422477365E-01 -5.155438557E-02 -3.289024058E-01
 1.536292136E-01 -5.319230258E-02 -3.410528225E-01
 1.655738652E-01 -5.479649454E-02 -3.524681396E-01
 1.773120314E-01 -5.627092719E-02 -3.665781573E-01
 1.890284717E-01 -5.763055757E-02 -3.750017323E-01
 1.996873766E-01 -5.879187211E-02 -3.874124279E-01
 2.111377418E-01 -5.995480344E-02 -3.993787850E-01
 2.232923508E-01 -6.108770892E-02 -4.099886914E-01
 2.353515029E-01 -6.210867316E-02 -4.186302808E-01
 2.473883778E-01 -6.304644793E-02 -4.345659615E-01
 2.597101331E-01 -6.388831884E-02 -4.405357454E-01
 2.708230019E-01 -6.456934661E-02 -4.536848077E-01
 2.831623256E-01 -6.521786749E-02 -4.606695019E-01
 2.953201532E-01 -6.575230509E-02 -4.699566816E-01
 3.079000711E-01 -6.619430333E-02 -4.787302433E-01
 3.194922507E-01 -6.649115682E-02 -4.850975324E-01
 3.319042623E-01 -6.669105589E-02 -4.886170058E-01
 3.422959447E-01 -6.675915420E-02 -4.908082212E-01
 3.536776304E-01 -6.674225628E-02 -4.941070802E-01
 3.646624386E-01 -6.661678851E-02 -4.946612766E-01
 3.754744232E-01 -6.636957824E-02 -4.821390588E-01
 3.870194852E-01 -6.602688134E-02 -4.815240521E-01
 3.998464048E-01 -6.551742554E-02 -4.769465117E-01
 4.117216468E-01 -6.488572806E-02 -4.584001109E-01
 4.243849218E-01 -6.409712881E-02 -4.444249363E-01
 4.367430806E-01 -6.320396811E-02 -4.304852224E-01
 4.492900968E-01 -6.214154512E-02 -3.986711051E-01
 4.615200460E-01 -6.102770939E-02 -3.827711303E-01
 4.739829898E-01 -5.977986753E-02 -3.603054190E-01
 4.857484996E-01 -5.848899484E-02 -3.304584553E-01
 4.982299507E-01 -5.704127625E-02 -3.027307742E-01
 5.119523406E-01 -5.539062619E-02 -2.847644246E-01
 5.250537992E-01 -5.367434025E-02 -2.467308500E-01
 5.378561020E-01 -5.194567516E-02 -2.183149671E-01
 5.512156487E-01 -5.008616671E-02 -1.874679173E-01
 5.646351576E-01 -4.821758717E-02 -1.730204491E-01
 5.780070424E-01 -4.626200348E-02 -1.424079180E-01
 5.907319188E-01 -4.433555529E-02 -1.068667647E-01
 6.040384769E-01 -4.238141328E-02 -9.637612566E-02
 6.175075173E-01 -4.031977803E-02 -6.271308974E-02
 6.317375302E-01 -3.816343844E-02 -4.270779627E-02
 6.459150314E-01 -3.601760790E-02 -2.403281169E-02
 6.591409445E-01 -3.399166837E-02 -1.553157287E-03
 6.727229953E-01 -3.188680485E-02 2.648570010E-02
 6.857898235E-01 -2.994489111E-02 3.166213612E-02
 6.980948448E-01 -2.804910578E-02 6.163187902E-02
 7.131617665E-01 -2.580344304E-02 7.503562909E-02
 7.266118526E-01 -2.381254174E-02 9.016657685E-02
 7.379344106E-01 -2.208445966E-02 1.206949740E-01
 7.515813708E-01 -2.013690025E-02 1.242324194E-01
 7.644278407E-01 -1.828507893E-02 1.433851440E-01
 7.774595618E-01 -1.639435999E-02 1.701142567E-01
 7.901471257E-01 -1.466109511E-02 1.786423762E-01
 8.026859760E-01 -1.295609958E-02 1.980485119E-01
 8.139944673E-01 -1.146002952E-02 2.133962657E-01
 8.253434896E-01 -1.000835374E-02 2.276539635E-01
 8.377717137E-01 -8.478439413E-03 2.411315031E-01
 8.495733738E-01 -7.031406276E-03 2.679198958E-01
 8.618448377E-01 -5.666179582E-03 2.791820847E-01
 8.731821775E-01 -4.507397301E-03 2.887934190E-01
 8.841727376E-01 -3.419072600E-03 3.097704291E-01
 8.969726562E-01 -2.322814660E-03 3.177097684E-01
 9.070258737E-01 -1.555433380E-03 3.293931755E-01
 9.179286361E-01 -8.647858631E-04 3.330050194E-01
 9.279109240E-01 -3.144428192E-04 3.399749875E-01
 9.376551509E-01 1.064548997E-04 3.472406316E-01
 9.495486021E-01 5.006480496E-04 3.505714319E-01
 9.634974599E-01 7.554819458E-04 3.522611784E-01
 9.775790572E-01 8.231480606E-04 3.621142478E-01
 9.898585677E-01 7.187999436E-04 3.913421512E-01
 -5.000000000E-01 -1.000000000E+00 1.217545993E-02
 3.500000000E+00 -1.000000000E+00 7.053524039E-03
 3.500000000E+00 1.000000000E+00 -1.884196450E-02
 -5.000000000E-01 1.000000000E+00 5.951893770E-04
 9.934633672E-01 1.862082951E-03 2.598543178E-01
 9.805145860E-01 4.411577247E-03 1.292742246E-01
 9.670246243E-01 7.037455915E-03 7.766377994E-02
 9.530766308E-01 9.741389193E-03 3.528365555E-02
 9.404756427E-01 1.219547540E-02 -1.145200220E-02
 9.289081395E-01 1.440413017E-02 -4.013048144E-02
 9.174498022E-01 1.653038571E-02 -6.323975673E-02
 9.059928954E-01 1.864711661E-02 -9.985341499E-02
 8.944648206E-01 2.072144579E-02 -1.260850847E-01
 8.826923966E-01 2.275498025E-02 -1.488507074E-01
 8.709024489E-01 2.471746225E-02 -1.646571887E-01
 8.589333594E-01 2.664408181E-02 -1.830092552E-01
 8.471436203E-01 2.847782802E-02 -1.933694923E-01
 8.355711102E-01 3.022079542E-02 -2.022617309E-01
 8.235296011E-01 3.200879227E-02 -2.227752474E-01
 8.107714355E-01 3.383972496E-02 -2.272606366E-01
 7.981474698E-01 3.561095148E-02 -2.467249007E-01
 7.855399549E-01 3.733925149E-02 -2.539265841E-01
 7.729381621E-01 3.901920095E-02 -2.668892122E-01
 7.601757050E-01 4.069684446E-02 -2.848083584E-01
 7.464502156E-01 4.243743047E-02 -2.932499831E-01
 7.337734401E-01 4.400549270E-02 -3.096514350E-01
 7.222720981E-01 4.539331608E-02 -3.195708728E-01
 7.103656232E-01 4.678759538E-02 -3.303945621E-01
 6.975969672E-01 4.825101793E-02 -3.463729943E-01
 6.842720211E-01 4.973128811E-02 -3.640954805E-01
 6.720985174E-01 5.102424324E-02 -3.762253024E-01
 6.605056822E-01 5.219902657E-02 -3.856671668E-01
 6.488237679E-01 5.334101990E-02 -3.984021900E-01
 6.369898617E-01 5.444472283E-02 -4.072149620E-01
 6.249390244E-01 5.552091636E-02 -4.202960246E-01
 6.135982275E-01 5.648523569E-02 -4.326709134E-01
 6.019610167E-01 5.741379969E-02 -4.432586380E-01
 5.897468925E-01 5.832386948E-02 -4.516778860E-01
 5.767983794E-01 5.921422131E-02 -4.591405661E-01
 5.633715689E-01 6.006817520E-02 -4.693138487E-01
 5.503404737E-01 6.081900746E-02 -4.798337635E-01
 5.380110145E-01 6.144959480E-02 -4.844317280E-01
 5.260810256E-01 6.198178232E-02 -4.875835935E-01
 5.136296153E-01 6.247005239E-02 -4.898881412E-01
 5.018304586E-01 6.286929920E-02 -4.958577752E-01
 4.896849692E-01 6.320431456E-02 -4.944535683E-01
 4.765938669E-01 6.349254772E-02 -4.948740778E-01
 4.633190483E-01 6.370986626E-02 -4.984942118E-01
 4.495362788E-01 6.384695694E-02 -4.963202908E-01
 4.361080676E-01 6.389234588E-02 -4.931586967E-01
 4.229722619E-01 6.386463344E-02 -4.910201380E-01
 4.102091491E-01 6.377210468E-02 -4.927126396E-01
 3.976705521E-01 6.360332295E-02 -4.869760648E-01
 3.851960897E-01 6.336719543E-02 -4.842507032E-01
 3.732331097E-01 6.307882071E-02 -4.794959694E-01
 3.607182801E-01 6.271363422E-02 -4.764760592E-01
 3.479491323E-01 6.227630936E-02 -4.711132459E-01
 3.356205225E-01 6.178802811E-02 -4.677136699E-01
 3.241725713E-01 6.128115021E-02 -4.651603720E-01
 3.127983212E-01 6.071451306E-02 -4.600340516E-01
 3.003179878E-01 6.003034115E-02 -4.532100813E-01
 2.871877551E-01 5.924183503E-02 -4.489261895E-01
 2.742284983E-01 5.839318782E-02 -4.442138280E-01
 2.621356547E-01 5.752666667E-02 -4.390964674E-01
 2.499145120E-01 5.657851882E-02 -4.305451730E-01
 2.373538166E-01 5.553586967E-02 -4.249616464E-01
 2.250125036E-01 5.444009602E-02 -4.198385733E-01
 2.129989415E-01 5.329550803E-02 -4.115073055E-01
 2.012292445E-01 5.210232548E-02 -4.050579522E-01
 1.893210188E-01 5.082278885E-02 -3.982551396E-01
 1.774332300E-01 4.946599901E-02 -3.920654596E-01
 1.657597721E-01 4.804806039E-02 -3.827558543E-01
 1.541366428E-01 4.655104689E-02 -3.743887483E-01
 1.428885013E-01 4.502040148E-02 -3.683190686E-01
 1.318226829E-01 4.342224263E-02 -3.595374114E-01
 1.206584238E-01 4.171210714E-02 -3.513111948E-01
 1.097397245E-01 3.993217833E-02 -3.404391335E-01
 8.917506039E-02 3.626030125E-02 -3.232912694E-01
 7.803141326E-02 3.405644745E-02 -3.092260083E-01
 7.218134776E-02 -3.839800879E-02 -2.309301740E-01
 9.235079587E-02 -4.286451638E-02 -2.707957178E-01
 1.031194143E-01 -4.497968964E-02 -2.816983855E-01
 1.143903285E-01 -4.703686759E-02 -2.963779317E-01
 1.259068549E-01 -4.898981750E-02 -3.103358475E-01
 1.369864270E-01 -5.074690282E-02 -3.230603872E-01
 1.479384750E-01 -5.237334408E-02 -3.342669840E-01
 1.596015394E-01 -5.399439856E-02 -3.465541600E-01
 1.714429483E-01 -5.553371087E-02 -3.598467883E-01
 1.831702515E-01 -5.695074238E-02 -3.719972757E-01
 1.943579242E-01 -5.821121484E-02 -3.816670956E-01
 2.054125592E-01 -5.937333778E-02 -3.922524541E-01
 2.172150463E-01 -6.052125618E-02 -4.043084574E-01
 2.293219268E-01 -6.159819104E-02 -4.150888522E-01
 2.413699403E-01 -6.257756054E-02 -4.251988360E-01
 2.535492554E-01 -6.346738338E-02 -4.383761936E-01
 2.652665675E-01 -6.422883272E-02 -4.470264635E-01
 2.769926637E-01 -6.489360705E-02 -4.564495612E-01
 2.892412394E-01 -6.548508629E-02 -4.653451574E-01
 3.016101122E-01 -6.597330421E-02 -4.734374887E-01
 3.136961609E-01 -6.634273008E-02 -4.833527844E-01
 3.256982565E-01 -6.659110636E-02 -4.863878263E-01
 3.371001035E-01 -6.672510505E-02 -4.924928069E-01
 3.479867876E-01 -6.675070524E-02 -4.902708640E-01
 3.591700345E-01 -6.667952240E-02 -4.950798871E-01
 3.700684309E-01 -6.649318337E-02 -4.909008241E-01
 3.812469542E-01 -6.619822979E-02 -4.789973532E-01
 3.934329450E-01 -6.577215344E-02 -4.782552683E-01
 4.057840258E-01 -6.520157680E-02 -4.718081645E-01
 4.180532843E-01 -6.449142843E-02 -4.501903742E-01
 4.305640012E-01 -6.365054846E-02 -4.373989809E-01
 4.430165887E-01 -6.267275661E-02 -4.166130537E-01
 4.554050714E-01 -6.158462726E-02 -3.894783719E-01
 4.677515179E-01 -6.040378846E-02 -3.717150364E-01
 4.798657447E-01 -5.913443118E-02 -3.479790976E-01
 4.919892251E-01 -5.776513554E-02 -3.164072440E-01
 5.050911456E-01 -5.621595122E-02 -2.911945593E-01
 5.185030699E-01 -5.453248322E-02 -2.694161006E-01
 5.314549506E-01 -5.281000771E-02 -2.324173342E-01
 5.445358753E-01 -5.101592094E-02 -2.032845776E-01
 5.579254031E-01 -4.915187694E-02 -1.774667649E-01
 5.713211000E-01 -4.723979533E-02 -1.598944516E-01
 5.843694806E-01 -4.529877938E-02 -1.271084642E-01
 5.973851979E-01 -4.335848428E-02 -9.780724690E-02
 6.107729971E-01 -4.135059565E-02 -8.209541922E-02
 6.246225238E-01 -3.924160823E-02 -5.225727947E-02
 6.388262808E-01 -3.709052317E-02 -3.252842593E-02
 6.525279880E-01 -3.500463814E-02 -1.369846934E-02
 6.659319699E-01 -3.293923661E-02 1.028042479E-02
 6.792564094E-01 -3.091584798E-02 3.215624470E-02
 6.919423342E-01 -2.899699844E-02 4.328325024E-02
 7.056283057E-01 -2.692627441E-02 6.926922187E-02
 7.198868096E-01 -2.480799239E-02 8.339282411E-02
 7.322731316E-01 -2.294850070E-02 1.012253423E-01
 7.447578907E-01 -2.111067995E-02 1.250027068E-01
 7.580046058E-01 -1.921098959E-02 1.330243351E-01
 7.709437013E-01 -1.733971946E-02 1.548368130E-01
 7.838033438E-01 -1.552772755E-02 1.772263459E-01
 7.964165509E-01 -1.380859734E-02 1.873576256E-01
 8.083402216E-01 -1.220806455E-02 2.058491070E-01
 8.196689785E-01 -1.073419163E-02 2.204240784E-01
 8.315576017E-01 -9.243396576E-03 2.342474319E-01
 8.436725438E-01 -7.754922844E-03 2.514555925E-01
 8.557091057E-01 -6.348792929E-03 2.739014014E-01
 8.675135076E-01 -5.086788442E-03 2.857529349E-01
 8.786774576E-01 -3.963234951E-03 2.967319998E-01
 8.905726969E-01 -2.870943630E-03 3.140833410E-01
 9.124772549E-01 -1.210109622E-03 3.353029080E-01
 9.436018765E-01 3.035514746E-04 3.459977202E-01
 9.565230310E-01 6.280649977E-04 3.500637710E-01
 9.705382586E-01 7.893150032E-04 3.555456972E-01
 9.837188125E-01 7.709740021E-04 3.698675512E-01
 9.950417578E-01 6.222253432E-04 4.391796610E-01
 -5.000000000E-01 9.500000000E-01 9.478152148E-04
 -5.000000000E-01 9.000000000E-01 1.784346900E-03
 -5.000000000E-01 8.500000000E-01 2.996166065E-03
 -5.000000000E-01 8.000000000E-01 4.854222267E-03
 -5.000000000E-01 7.500000000E-01 7.315426786E-03
 -5.000000000E-01 7.000000000E-01 1.062768513E-02
 -5.000000000E-01 6.500000000E-01 1.468686450E-02
 -5.000000000E-01 6.000000000E-01 1.951701304E-02
 -5.000000000E-01 5.500000000E-01 2.532557283E-02
 -5.000000000E-01 5.000000000E-01 3.183913535E-02
 -5.000000000E-01 4.500000000E-01 3.919043211E-02
 -5.000000000E-01 4.000000000E-01 4.709466645E-02
 -5.000000000E-01 3.500000000E-01 5.572970134E-02
 -5.000000000E-01 3.000000000E-01 6.459197847E-02
 -5.000000000E-01 2.500000000E-01 7.351069498E-02
 -5.000000000E-01 2.000000000E-01 8.204688635E-02
 -5.000000000E-01 1.500000000E-01 8.972197403E-02
 -5.000000000E-01 1.000000000E-01 9.634254088E-02
 -5.000000000E-01 5.000000000E-02 1.012935774E-01
 -5.000000000E-01 2.752242878E-12 1.043232443E-01
 -5.000000000E-01 -5.000000000E-02 1.053588119E-01
 -5.000000000E-01 -1.000000000E-01 1.044631725E-01
 -5.000000000E-01 -1.500000000E-01 1.016573830E-01
 -5.000000000E-01 -2.000000000E-01 9.742771791E-02
 -5.000000000E-01 -2.500000000E-01 9.199232285E-02
 -5.000000000E-01 -3.000000000E-01 8.580139649E-02
 -5.000000000E-01 -3.500000000E-01 7.915545001E-02
 -5.000000000E-01 -4.000000000E-01 7.252161100E-02
 -5.000000000E-01 -4.500000000E-01 6.580061278E-02
 -5.000000000E-01 -5.000000000E-01 5.953765779E-02
 -5.000000000E-01 -5.500000000E-01 5.363297593E-02
 -5.000000000E-01 -6.000000000E-01 4.810309680E-02
 -5.000000000E-01 -6.500000000E-01 4.315283946E-02
 -5.000000000E-01 -7.000000000E-01 3.856114660E-02
 -5.000000000E-01 -7.500000000E-01 3.433499106E-02
 -5.000000000E-01 -8.000000000E-01 3.043131903E-02
 -5.000000000E-01 -8.500000000E-01 2.661928024E-02
 -5.000000000E-01 -9.000000000E-01 2.255727091E-02
 -5.000000000E-01 -9.500000000E-01 1.672080325E-02
 -4.500000000E-01 -1.000000000E+00 1.518769121E-02
 -4.000000000E-01 -1.000000000E+00 1.965077943E-02
 -3.500000000E-01 -1.000000000E+00 2.157464640E-02
 -3.000000000E-01 -1.000000000E+00 2.222989293E-02
 -2.500000000E-01 -1.000000000E+00 2.210215172E-02
 -2.000000000E-01 -1.000000000E+00 2.113073476E-02
 -1.500000000E-01 -1.000000000E+00 1.935169977E-02
 -1.000000000E-01 -1.000000000E+00 1.699003554E-02
 -5.000000000E-02 -1.000000000E+00 1.394105086E-02
 -9.424683256E-13 -1.000000000E+00 1.045118364E-02
 5.000000000E-02 -1.000000000E+00 6.536230636E-03
 1.000000000E-01 -1.000000000E+00 2.506439654E-03
 1.500000000E-01 -1.000000000E+00 -1.739858588E-03
 2.000000000E-01 -1.000000000E+00 -5.644888458E-03
 2.500000000E-01 -1.000000000E+00 -9.353308060E-03
 3.000000000E-01 -1.000000000E+00 -1.260049219E-02
 3.500000000E-01 -1.000000000E+00 -1.529150223E-02
 4.000000000E-01 -1.000000000E+00 -1.736374638E-02
 4.500000000E-01 -1.000000000E+00 -1.840614975E-02
 5.000000000E-01 -1.000000000E+00 -1.865844900E-02
 5.500000000E-01 -1.000000000E+00 -1.808030643E-02
 6.000000000E-01 -1.000000000E+00 -1.665578174E-02
 6.500000000E-01 -1.000000000E+00 -1.450375835E-02
 7.000000000E-01 -1.000000000E+00 -1.174506810E-02
 7.500000000E-01 -1.000000000E+00 -8.476247375E-03
 8.000000000E-01 -1.000000000E+00 -4.789841179E-03
 8.500000000E-01 -1.000000000E+00 -9.840942501E-04
 9.000000000E-01 -1.000000000E+00 2.903102705E-03
 9.500000000E-01 -1.000000000E+00 6.749027118E-03
 1.000000000E+00 -1.000000000E+00 1.040775082E-02
 1.050000000E+00 -1.000000000E+00 1.383908078E-02
 1.100000000E+00 -1.000000000E+00 1.692849449E-02
 1.150000000E+00 -1.000000000E+00 1.970506667E-02
 1.200000000E+00 -1.000000000E+00 2.203781670E-02
 1.250000000E+00 -1.000000000E+00 2.405393459E-02
 1.300000000E+00 -1.000000000E+00 2.568049228E-02
 1.350000000E+00 -1.000000000E+00 2.696335778E-02
 1.400000000E+00 -1.000000000E+00 2.792520259E-02
 1.450000000E+00 -1.000000000E+00 2.859067644E-02
 1.500000000E+00 -1.000000000E+00 2.903631904E-02
 1.550000000E+00 -1.000000000E+00 2.923516654E-02
 1.600000000E+00 -1.000000000E+00 2.925992680E-02
 1.650000000E+00 -1.000000000E+00 2.912570321E-02
 1.700000000E+00 -1.000000000E+00 2.885712353E-02
 1.750000000E+00 -1.000000000E+00 2.851228815E-02
 1.800000000E+00 -1.000000000E+00 2.805638556E-02
 1.850000000E+00 -1.000000000E+00 2.756482968E-02
 1.900000000E+00 -1.000000000E+00 2.702490146E-02
 1.950000000E+00 -1.000000000E+00 2.643534691E-02
 2.000000000E+00 -1.000000000E+00 2.589017297E-02
 2.050000000E+00 -1.000000000E+00 2.525194639E-02
 2.100000000E+00 -1.000000000E+00 2.475182596E-02
 2.150000000E+00 -1.000000000E+00 2.414618667E-02
 2.200000000E+00 -1.000000000E+00 2.358079212E-02
 2.250000000E+00 -1.000000000E+00 2.308510816E-02
 2.300000000E+00 -1.000000000E+00 2.257220706E-02
 2.350000000E+00 -1.000000000E+00 2.212137713E-02
 2.400000000E+00 -1.000000000E+00 2.165913577E-02
 2.450000000E+00 -1.000000000E+00 2.122861316E-02
 2.500000000E+00 -1.000000000E+00 2.084424620E-02
 2.550000000E+00 -1.000000000E+00 2.050016573E-02
 2.600000000E+00 -1.000000000E+00 2.014516271E-02
 2.650000000E+00 -1.000000000E+00 1.987903793E-02
 2.700000000E+00 -1.000000000E+00 1.957147222E-02
 2.750000000E+00 -1.000000000E+00 1.935085350E-02
 2.800000000E+00 -1.000000000E+00 1.911209639E-02
 2.850000000E+00 -1.000000000E+00 1.891484524E-02
 2.900000000E+00 -1.000000000E+00 1.868765453E-02
 2.950000000E+00 -1.000000000E+00 1.845446980E-02
 3.000000000E+00 -1.000000000E+00 1.826307722E-02
 3.050000000E+00 -1.000000000E+00 1.798980642E-02
 3.100000000E+00 -1.000000000E+00 1.770947139E-02
 3.150000000E+00 -1.000000000E+00 1.736200657E-02
 3.200000000E+00 -1.000000000E+00 1.689283145E-02
 3.250000000E+00 -1.000000000E+00 1.633276597E-02
 3.300000000E+00 -1.000000000E+00 1.554572260E-02
 3.350000000E+00 -1.000000000E+00 1.445414855E-02
 3.400000000E+00 -1.000000000E+00 1.277331687E-02
 3.450000000E+00 -1.000000000E+00 1.006188313E-02
 3.500000000E+00 -9.500000000E-01 6.260552402E-03
 3.500000000E+00 -9.000000000E-01 7.784284057E-03
 3.500000000E+00 -8.500000000E-01 9.076763092E-03
 3.500000000E+00 -8.000000000E-01 1.054331766E-02
 3.500000000E+00 -7.500000000E-01 1.200796302E-02
 3.500000000E+00 -7.000000000E-01 1.350589467E-02
 3.500000000E+00 -6.500000000E-01 1.506035252E-02
 3.500000000E+00 -6.000000000E-01 1.679762973E-02
 3.500000000E+00 -5.500000000E-01 1.867707961E-02
 3.500000000E+00 -5.000000000E-01 2.073141725E-02
 3.500000000E+00 -4.500000000E-01 2.288872284E-02
 3.500000000E+00 -4.000000000E-01 2.522677614E-02
 3.500000000E+00 -3.500000000E-01 2.756684271E-02
 3.500000000E+00 -3.000000000E-01 2.987340453E-02
 3.500000000E+00 -2.500000000E-01 3.167752712E-02
 3.500000000E+00 -2.000000000E-01 3.281060416E-02
 3.500000000E+00 -1.500000000E-01 3.306295780E-02
 3.500000000E+00 -1.000000000E-01 3.250090358E-02
 3.500000000E+00 -5.000000000E-02 3.194343826E-02
 3.500000000E+00 -2.752242878E-12 3.131162672E-02
 3.500000000E+00 5.000000000E-02 3.076083939E-02
 3.500000000E+00 1.000000000E-01 2.974949812E-02
 3.500000000E+00 1.500000000E-01 2.811375313E-02
 3.500000000E+00 2.000000000E-01 2.563861960E-02
 3.500000000E+00 2.500000000E-01 2.269687682E-02
 3.500000000E+00 3.000000000E-01 1.956845147E-02
 3.500000000E+00 3.500000000E-01 1.658175373E-02
 3.500000000E+00 4.000000000E-01 1.381026826E-02
 3.500000000E+00 4.500000000E-01 1.123911501E-02
 3.500000000E+00 5.000000000E-01 8.900861283E-03
 3.500000000E+00 5.500000000E-01 6.902682848E-03
 3.500000000E+00 6.000000000E-01 5.440594841E-03
 3.500000000E+00 6.500000000E-01 4.699809260E-03
 3.500000000E+00 7.000000000E-01 4.305876962E-03
 3.500000000E+00 7.500000000E-01 3.656850325E-03
 3.500000000E+00 8.000000000E-01 1.204614735E-03
 3.500000000E+00 8.500000000E-01 -3.382835753E-03
 3.500000000E+00 9.000000000E-01 -9.819957109E-03
 3.500000000E+00 9.500000000E-01 -1.864749764E-02
 3.450000000E+00 1.000000000E+00 -1.068747081E-02
 3.400000000E+00 1.000000000E+00 -3.834384069E-03
 3.350000000E+00 1.000000000E+00 -5.034736832E-04
 3.300000000E+00 1.000000000E+00 1.048604698E-03
 3.250000000E+00 1.000000000E+00 1.970665442E-03
 3.200000000E+00 1.000000000E+00 2.325504496E-03
 3.150000000E+00 1.000000000E+00 2.593679060E-03
 3.100000000E+00 1.000000000E+00 2.490222435E-03
 3.050000000E+00 1.000000000E+00 2.338993783E-03
 3.000000000E+00 1.000000000E+00 1.978521654E-03
 2.950000000E+00 1.000000000E+00 1.732580855E-03
 2.900000000E+00 1.000000000E+00 1.007448871E-03
 2.850000000E+00 1.000000000E+00 4.583976611E-04
 2.800000000E+00 1.000000000E+00 -1.784765546E-04
 2.750000000E+00 1.000000000E+00 -9.815056056E-04
 2.700000000E+00 1.000000000E+00 -1.620125648E-03
 2.650000000E+00 1.000000000E+00 -2.573724320E-03
 2.600000000E+00 1.000000000E+00 -3.497774993E-03
 2.550000000E+00 1.000000000E+00 -4.505678556E-03
 2.500000000E+00 1.000000000E+00 -5.432939899E-03
 2.450000000E+00 1.000000000E+00 -6.548574307E-03
 2.400000000E+00 1.000000000E+00 -7.799485191E-03
 2.350000000E+00 1.000000000E+00 -9.108009933E-03
 2.300000000E+00 1.000000000E+00 -1.046321321E-02
 2.250000000E+00 1.000000000E+00 -1.189229025E-02
 2.200000000E+00 1.000000000E+00 -1.348402466E-02
 2.150000000E+00 1.000000000E+00 -1.499654451E-02
 2.100000000E+00 1.000000000E+00 -1.687691121E-02
 2.050000000E+00 1.000000000E+00 -1.867889978E-02
 2.000000000E+00 1.000000000E+00 -2.065264308E-02
 1.950000000E+00 1.000000000E+00 -2.273053284E-02
 1.900000000E+00 1.000000000E+00 -2.523807022E-02
 1.850000000E+00 1.000000000E+00 -2.759906143E-02
 1.800000000E+00 1.000000000E+00 -3.029245482E-02
 1.750000000E+00 1.000000000E+00 -3.326104255E-02
 1.700000000E+00 1.000000000E+00 -3.644194526E-02
 1.650000000E+00 1.000000000E+00 -3.956417210E-02
 1.600000000E+00 1.000000000E+00 -4.371971499E-02
 1.550000000E+00 1.000000000E+00 -4.685309812E-02
 1.500000000E+00 1.000000000E+00 -5.104032974E-02
 1.450000000E+00 1.000000000E+00 -5.537474776E-02
 1.400000000E+00 1.000000000E+00 -5.998363085E-02
 1.350000000E+00 1.000000000E+00 -6.449597419E-02
 1.300000000E+00 1.000000000E+00 -7.032764522E-02
 1.250000000E+00 1.000000000E+00 -7.480924950E-02
 1.200000000E+00 1.000000000E+00 -8.046841979E-02
 1.150000000E+00 1.000000000E+00 -8.545719731E-02
 1.100000000E+00 1.000000000E+00 -9.076240426E-02
 1.050000000E+00 1.000000000E+00 -9.561546953E-02
 1.000000000E+00 1.000000000E+00 -1.002826594E-01
 9.500000000E-01 1.000000000E+00 -1.043257002E-01
 9.000000000E-01 1.000000000E+00 -1.082705755E-01
 8.500000000E-01 1.000000000E+00 -1.107148178E-01
 8.000000000E-01 1.000000000E+00 -1.131123200E-01
 7.500000000E-01 1.000000000E+00 -1.140596699E-01
 7.000000000E-01 1.000000000E+00 -1.141994616E-01
 6.500000000E-01 1.000000000E+00 -1.132713564E-01
 6.000000000E-01 1.000000000E+00 -1.107125967E-01
 5.500000000E-01 1.000000000E+00 -1.077523047E-01
 5.000000000E-01 1.000000000E+00 -1.035427447E-01
 4.500000000E-01 1.000000000E+00 -9.814638730E-02
 4.000000000E-01 1.000000000E+00 -9.213940111E-02
 3.500000000E-01 1.000000000E+00 -8.512763838E-02
 3.000000000E-01 1.000000000E+00 -7.770141623E-02
 2.500000000E-01 1.000000000E+00 -6.992339426E-02
 2.000000000E-01 1.000000000E+00 -6.183863114E-02
 1.500000000E-01 1.000000000E+00 -5.379593689E-02
 1.000000000E-01 1.000000000E+00 -4.595378844E-02
 5.000000000E-02 1.000000000E+00 -3.833350608E-02
 1.733724275E-12 1.000000000E+00 -3.097695052E-02
 -5.000000000E-02 1.000000000E+00 -2.452513282E-02
 -1.000000000E-01 1.000000000E+00 -1.865095658E-02
 -1.500000000E-01 1.000000000E+00 -1.343670919E-02
 -2.000000000E-01 1.000000000E+00 -9.139387304E-03
 -2.500000000E-01 1.000000000E+00 -5.623256666E-03
 -3.000000000E-01 1.000000000E+00 -2.907731986E-03
 -3.500000000E-01 1.000000000E+00 -9.705152635E-04
 -4.000000000E-01 1.000000000E+00 1.807283216E-04
 -4.500000000E-01 1.000000000E+00 5.966384712E-04
 8.878358677E-01 -8.269431543E-03 3.036381916E-01
 9.865929922E-01 -4.228441653E-03 3.715274746E-01
 8.120986873E-01 -1.638238464E-02 2.073034770E-01
 7.423237774E-01 -2.690144714E-02 1.177929971E-01
 6.691887678E-01 -3.800755097E-02 1.597373398E-02
 6.013498888E-01 -4.872933049E-02 -9.667177391E-02
 5.354554025E-01 -5.846030601E-02 -2.211324773E-01
 4.774571435E-01 -6.468654459E-02 -3.439322489E-01
 4.216488911E-01 -6.974144570E-02 -4.351284199E-01
 3.671044661E-01 -7.126572837E-02 -4.798882877E-01
 3.098551094E-01 -7.111583602E-02 -4.690422148E-01
 2.560962312E-01 -6.871654447E-02 -4.293075460E-01
 2.021449770E-01 -6.389871928E-02 -3.811998938E-01
 1.445460594E-01 -5.689868722E-02 -3.207647748E-01