TITLE     = "Visualization of the solution"
VARIABLES = "x"
"y"
"Pressure_Coefficient"
ZONE T="Zone"
 STRANDID=0, SOLUTIONTIME=0
 Nodes=12102, Elements=23622, ZONETYPE=FEQuadrilateral
 DATAPACKING=POINT
 DT=(DOUBLE DOUBLE DOUBLE )
 9.998584986E-01 5.001188838E-04 2.337573259E-01
 9.879670143E-01 2.828758443E-03 2.047081853E-01
 9.745987058E-01 5.357359070E-03 1.390240658E-01
 9.576566219E-01 8.639522828E-03 8.076955561E-02
 9.421753883E-01 1.164587773E-02 3.631972520E-02
 9.265627861E-01 1.466381457E-02 -4.109800474E-03
 9.145097733E-01 1.695833355E-02 -2.525640590E-02
 9.023662806E-01 1.930458844E-02 -6.238606193E-02
 8.904713392E-01 2.153298073E-02 -8.718899777E-02
 8.782036901E-01 2.377471887E-02 -9.797847245E-02
 8.659979701E-01 2.605244331E-02 -1.367092123E-01
 8.534271717E-01 2.829199471E-02 -1.500264173E-01
 8.410452604E-01 3.050486371E-02 -1.869815086E-01
 8.299369812E-01 3.236424178E-02 -1.858322510E-01
 8.183816671E-01 3.432471305E-02 -2.071608751E-01
 8.059395552E-01 3.639188036E-02 -2.287728949E-01
 7.933147550E-01 3.842965141E-02 -2.441865470E-01
 7.810209990E-01 4.037683085E-02 -2.585556067E-01
 7.691600323E-01 4.224088043E-02 -2.840750086E-01
 7.575277686E-01 4.399254173E-02 -2.943958861E-01
 7.446467280E-01 4.590015486E-02 -3.105373635E-01
 7.311487794E-01 4.786236584E-02 -3.345671583E-01
 7.208290100E-01 4.931344092E-02 -3.529181436E-01
 7.099484801E-01 5.076576397E-02 -3.531711413E-01
 6.986541748E-01 5.227515101E-02 -3.700417058E-01
 6.854752898E-01 5.400120467E-02 -3.992860641E-01
 6.727526784E-01 5.555905029E-02 -4.082700904E-01
 6.631541848E-01 5.669278279E-02 -4.128094106E-01
 6.522297263E-01 5.798873305E-02 -4.425796673E-01
 6.407880783E-01 5.925379321E-02 -4.577409300E-01
 6.291422248E-01 6.045727804E-02 -4.609061518E-01
 6.181352735E-01 6.157110259E-02 -4.811733923E-01
 6.076502800E-01 6.256507337E-02 -4.941540805E-01
 5.950943828E-01 6.365869194E-02 -4.990453285E-01
 5.837406516E-01 6.459642947E-02 -5.109519692E-01
 5.704414248E-01 6.560158730E-02 -5.208814126E-01
 5.582347512E-01 6.644394249E-02 -5.291608025E-01
 5.463505387E-01 6.718789041E-02 -5.389897893E-01
 5.356668234E-01 6.777859479E-02 -5.362049327E-01
 5.244282484E-01 6.836500764E-02 -5.500803051E-01
 5.119758844E-01 6.889937073E-02 -5.509050085E-01
 5.006421804E-01 6.930572540E-02 -5.441960240E-01
 4.874483049E-01 6.972114742E-02 -5.493414634E-01
 4.737832844E-01 7.005035877E-02 -5.483919240E-01
 4.595569074E-01 7.029930502E-02 -5.516723511E-01
 4.460132420E-01 7.041710615E-02 -5.396021495E-01
 4.331926703E-01 7.049264759E-02 -5.489970928E-01
 4.203795195E-01 7.044720650E-02 -5.377054451E-01
 4.079853296E-01 7.035152614E-02 -5.355337670E-01
 3.957478404E-01 7.019248605E-02 -5.346754427E-01
 3.834046721E-01 6.995185465E-02 -5.273964243E-01
 3.720421791E-01 6.968604773E-02 -5.279085044E-01
 3.587844074E-01 6.928088516E-02 -5.181547406E-01
 3.461844027E-01 6.884493679E-02 -5.184577414E-01
 3.329300582E-01 6.828997284E-02 -5.107496409E-01
 3.217802644E-01 6.777190417E-02 -5.061563283E-01
 3.089731932E-01 6.711264700E-02 -5.045544446E-01
 2.954725027E-01 6.632000953E-02 -4.975481486E-01
 2.815110683E-01 6.540292501E-02 -4.867977275E-01
 2.691998184E-01 6.454121321E-02 -4.885727943E-01
 2.572266161E-01 6.360401958E-02 -4.772866401E-01
 2.448536903E-01 6.256964058E-02 -4.698945868E-01
 2.325307727E-01 6.146885082E-02 -4.664177622E-01
 2.202228457E-01 6.027865410E-02 -4.594170089E-01
 2.086019367E-01 5.907266587E-02 -4.518032596E-01
 1.971091926E-01 5.780042708E-02 -4.436197781E-01
 1.847517490E-01 5.633686855E-02 -4.333729092E-01
 1.729973853E-01 5.486305058E-02 -4.292263741E-01
 1.618053764E-01 5.335076153E-02 -4.155103153E-01
 1.499033868E-01 5.164594948E-02 -4.046728967E-01
 1.394331157E-01 5.006112531E-02 -3.967330461E-01
 1.278976202E-01 4.819452390E-02 -3.845596303E-01
 1.166148335E-01 4.624245316E-02 -3.703011728E-01
 1.061881557E-01 4.432471097E-02 -3.562223328E-01
 9.639797360E-02 4.240204021E-02 -3.410011048E-01
 8.541446924E-02 4.009526968E-02 -3.207520334E-01
 7.357238978E-02 3.741107136E-02 -3.024042256E-01
 6.366494298E-02 3.496249765E-02 -2.753998698E-01
 5.357124284E-02 3.225367889E-02 -2.458228679E-01
 4.490942508E-02 2.971320413E-02 -2.155025413E-01
 3.754706681E-02 2.735181525E-02 -1.823461743E-01
 3.098248132E-02 2.505339123E-02 -1.397702969E-01
 2.530927211E-02 2.287415601E-02 -1.048373566E-01
 2.120466530E-02 2.116493694E-02 -6.358247857E-02
 1.725298725E-02 1.937696524E-02 -2.510591031E-02
 1.420253050E-02 1.787057705E-02 2.752127119E-02
 1.138861664E-02 1.635465585E-02 7.377880746E-02
 9.295859374E-03 1.513456833E-02 1.184393988E-01
 7.502111606E-03 1.399719622E-02 1.611614936E-01
 5.871936213E-03 1.286478899E-02 2.376941351E-01
 3.724067239E-03 1.119463798E-02 3.406301357E-01
 1.813002862E-03 9.435998276E-03 4.404431981E-01
 1.993393234E-04 7.578934543E-03 6.888542293E-01
 -1.353580854E-03 4.972705152E-03 9.074273430E-01
 -1.952353399E-03 3.045092337E-03 1.085410551E+00
 -2.091045259E-03 1.553404145E-03 1.106366496E+00
 -1.931361970E-03 -2.030625546E-05 1.075967222E+00
 -1.471628202E-03 -1.549660228E-03 9.508887778E-01
 -5.176637787E-04 -3.383195726E-03 7.708884273E-01
 8.970799390E-04 -5.227421410E-03 5.602966476E-01
 2.857548883E-03 -7.150707766E-03 3.945526196E-01
 4.620039370E-03 -8.555089124E-03 2.486421427E-01
 6.607772317E-03 -9.914910421E-03 1.784899073E-01
 8.186863735E-03 -1.088280044E-02 1.070056205E-01
 1.023364719E-02 -1.201831736E-02 6.874802038E-02
 1.256153826E-02 -1.318800636E-02 1.972514315E-02
 1.580390520E-02 -1.465120818E-02 -2.059404604E-02
 1.865285821E-02 -1.581319049E-02 -6.359253095E-02
 2.237861790E-02 -1.719977707E-02 -8.248383796E-02
 2.771318518E-02 -1.898397878E-02 -1.074229261E-01
 3.348312527E-02 -2.070845291E-02 -1.344290481E-01
 4.062892497E-02 -2.261819318E-02 -1.466236214E-01
 4.813072458E-02 -2.443731017E-02 -1.615353075E-01
 5.717736110E-02 -2.641479671E-02 -1.692582046E-01
 6.590551138E-02 -2.816153504E-02 -1.792668995E-01
 7.599260658E-02 -3.002584726E-02 -1.886063070E-01
 8.595339954E-02 -3.172673285E-02 -1.948153119E-01
 9.608356655E-02 -3.334953263E-02 -2.042692040E-01
 1.069503576E-01 -3.497083113E-02 -2.095269284E-01
 1.181309819E-01 -3.653965518E-02 -2.164738645E-01
 1.297138333E-01 -3.807330132E-02 -2.253361171E-01
 1.403717101E-01 -3.940531239E-02 -2.336142833E-01
 1.514303386E-01 -4.071294516E-02 -2.409747578E-01
 1.636378616E-01 -4.207941145E-02 -2.495333270E-01
 1.753851622E-01 -4.332520440E-02 -2.605942214E-01
 1.873785853E-01 -4.451676831E-02 -2.688066244E-01
 1.980543882E-01 -4.551440105E-02 -2.763178259E-01
 2.094333172E-01 -4.652490839E-02 -2.872690232E-01
 2.218239754E-01 -4.755064473E-02 -2.968026256E-01
 2.348145545E-01 -4.854488745E-02 -3.075102452E-01
 2.472740263E-01 -4.941564053E-02 -3.160358693E-01
 2.598502338E-01 -5.022776499E-02 -3.299893611E-01
 2.710869014E-01 -5.087476969E-02 -3.397791339E-01
 2.839499712E-01 -5.151706934E-02 -3.439964383E-01
 2.966122627E-01 -5.208553746E-02 -3.593801924E-01
 3.094901741E-01 -5.254388228E-02 -3.634065270E-01
 3.215435743E-01 -5.289864540E-02 -3.766235031E-01
 3.343323171E-01 -5.315935612E-02 -3.828644242E-01
 3.453477025E-01 -5.328341201E-02 -3.842912811E-01
 3.568357229E-01 -5.333441123E-02 -3.898377014E-01
 3.677238822E-01 -5.329049379E-02 -3.922390666E-01
 3.784384429E-01 -5.315726250E-02 -3.929751399E-01
 3.900058270E-01 -5.291246995E-02 -3.910673184E-01
 4.032543898E-01 -5.249480158E-02 -3.841295333E-01
 4.158311784E-01 -5.195964500E-02 -3.727237940E-01
 4.287583828E-01 -5.129601434E-02 -3.658801561E-01
 4.413215816E-01 -5.051305518E-02 -3.521193927E-01
 4.532674849E-01 -4.963987693E-02 -3.325545291E-01
 4.649854004E-01 -4.868955910E-02 -3.165238575E-01
 4.770868421E-01 -4.758179188E-02 -2.875273256E-01
 4.884274006E-01 -4.648480192E-02 -2.705739822E-01
 5.011937618E-01 -4.515996948E-02 -2.473007830E-01
 5.149488449E-01 -4.361078516E-02 -2.137425124E-01
 5.284892321E-01 -4.202479497E-02 -1.890139675E-01
 5.419354439E-01 -4.037804902E-02 -1.616586039E-01
 5.545363426E-01 -3.879181668E-02 -1.394976983E-01
 5.677451491E-01 -3.707201406E-02 -1.133228422E-01
 5.805346966E-01 -3.535987064E-02 -8.528862363E-02
 5.921733975E-01 -3.379929438E-02 -6.627424776E-02
 6.044815779E-01 -3.213923797E-02 -4.748582109E-02
 6.187303662E-01 -3.017256595E-02 -1.825334062E-02
 6.334348321E-01 -2.817036025E-02 1.184248262E-03
 6.485886574E-01 -2.609737776E-02 2.455605672E-02
 6.615399718E-01 -2.433724701E-02 4.220521722E-02
 6.749061942E-01 -2.252749912E-02 6.053390288E-02
 6.871043444E-01 -2.086270414E-02 8.408925892E-02
 6.995310187E-01 -1.923155412E-02 9.432277997E-02
 7.141313553E-01 -1.733717136E-02 1.094615495E-01
 7.268620729E-01 -1.565937698E-02 1.345349476E-01
 7.388958931E-01 -1.414803881E-02 1.445618841E-01
 7.520250678E-01 -1.253557578E-02 1.568852813E-01
 7.636850476E-01 -1.108478103E-02 1.810099804E-01
 7.766602039E-01 -9.567748755E-03 1.907081827E-01
 7.884666324E-01 -8.240189403E-03 2.005924260E-01
 8.008728623E-01 -6.834080443E-03 2.251715898E-01
 8.119367361E-01 -5.683321040E-03 2.313593282E-01
 8.233957887E-01 -4.510723520E-03 2.514202852E-01
 8.366180062E-01 -3.296419280E-03 2.571787136E-01
 8.490522504E-01 -2.208481776E-03 2.737066217E-01
 8.610654473E-01 -1.252657152E-03 2.864601713E-01
 8.730388880E-01 -4.125238047E-04 2.961301245E-01
 8.853210211E-01 3.215470642E-04 3.031490236E-01
 8.983229995E-01 9.743422852E-04 3.122423016E-01
 9.088002443E-01 1.367814024E-03 3.145007631E-01
 9.191070795E-01 1.662776456E-03 3.170278246E-01
 9.280488491E-01 1.838422380E-03 3.183380282E-01
 9.366130829E-01 1.931226929E-03 3.203553449E-01
 9.481900334E-01 1.953246305E-03 3.174383152E-01
 9.602736235E-01 1.844496350E-03 3.158145692E-01
 9.750937819E-01 1.537669217E-03 3.150986509E-01
 9.876726270E-01 1.105381059E-03 3.169256734E-01
 -5.000000000E-01 -1.000000000E+00 1.426137675E-02
 3.500000000E+00 -1.000000000E+00 8.505496324E-03
 3.500000000E+00 1.000000000E+00 -2.473308705E-02
 -5.000000000E-01 1.000000000E+00 -1.630358856E-03
 9.939127564E-01 1.664438663E-03 2.885680918E-01
 9.812828600E-01 4.093058757E-03 1.672113852E-01
 9.661276639E-01 6.998440949E-03 1.063836131E-01
 9.499160051E-01 1.014270028E-02 5.740692583E-02
 9.343690872E-01 1.315484615E-02 1.439891597E-02
 9.205362797E-01 1.581107406E-02 -1.317843425E-02
 9.084380269E-01 1.813146099E-02 -4.665187470E-02
 8.964188099E-01 2.041878458E-02 -7.546803035E-02
 8.843375146E-01 2.265384980E-02 -8.971145896E-02
 8.721008301E-01 2.491358109E-02 -1.210278090E-01
 8.597125709E-01 2.717221901E-02 -1.410750965E-01
 8.472362161E-01 2.939842921E-02 -1.727122391E-01
 8.354911208E-01 3.143455274E-02 -1.818260653E-01
 8.241593242E-01 3.334447742E-02 -1.972936819E-01
 8.121606112E-01 3.535829671E-02 -2.191118275E-01
 7.996271551E-01 3.741076589E-02 -2.358477721E-01
 7.871678770E-01 3.940324113E-02 -2.503451811E-01
 7.750905156E-01 4.130885564E-02 -2.736856618E-01
 7.633439004E-01 4.311671108E-02 -2.883194050E-01
 7.510872483E-01 4.494634829E-02 -3.019474308E-01
 7.378977537E-01 4.688126035E-02 -3.228885943E-01
 7.259888947E-01 4.858790338E-02 -3.468751437E-01
 7.153887451E-01 5.003960244E-02 -3.499110384E-01
 7.043013275E-01 5.152045749E-02 -3.616407490E-01
 6.920647323E-01 5.313817784E-02 -3.875131584E-01
 6.791139841E-01 5.478012748E-02 -4.039829520E-01
 6.576919556E-01 5.734075792E-02 -4.320160575E-01
 6.465089023E-01 5.862126313E-02 -4.515234395E-01
 6.349651515E-01 5.985553563E-02 -4.563948069E-01
 6.236387491E-01 6.101419032E-02 -4.718833273E-01
 6.128927767E-01 6.206808798E-02 -4.905733429E-01
 6.013723314E-01 6.311188266E-02 -4.944733417E-01
 5.894175172E-01 6.412756070E-02 -5.071054276E-01
 5.770910382E-01 6.509900838E-02 -5.153830957E-01
 5.643380880E-01 6.602276489E-02 -5.250519191E-01
 5.522926450E-01 6.681591645E-02 -5.339767660E-01
 5.410086811E-01 6.748324260E-02 -5.353659966E-01
 5.300475359E-01 6.807180122E-02 -5.469849165E-01
 5.182020664E-01 6.863218918E-02 -5.500962447E-01
 5.063090324E-01 6.910254806E-02 -5.466879840E-01
 4.940452427E-01 6.951343641E-02 -5.481019055E-01
 4.806157947E-01 6.988575310E-02 -5.491055816E-01
 4.666700959E-01 7.017483190E-02 -5.513726411E-01
 4.527850747E-01 7.035820559E-02 -5.420610526E-01
 4.396029562E-01 7.045487687E-02 -5.475043097E-01
 4.267860949E-01 7.046992704E-02 -5.414711464E-01
 4.141824245E-01 7.039936632E-02 -5.361382800E-01
 4.018665850E-01 7.027200609E-02 -5.360832035E-01
 3.895762563E-01 7.007217035E-02 -5.289169308E-01
 3.777234256E-01 6.981895119E-02 -5.305396841E-01
 3.654132932E-01 6.948346645E-02 -5.211118579E-01
 3.524844050E-01 6.906291097E-02 -5.202652990E-01
 3.395572305E-01 6.856745481E-02 -5.125586960E-01
 3.273551613E-01 6.803093851E-02 -5.089920870E-01
 3.153767288E-01 6.744227558E-02 -5.068991782E-01
 3.022228479E-01 6.671632826E-02 -5.018145057E-01
 2.884917855E-01 6.586146727E-02 -4.898637928E-01
 2.753554434E-01 6.497206911E-02 -4.894032438E-01
 2.632132173E-01 6.407261640E-02 -4.822745175E-01
 2.510401532E-01 6.308683008E-02 -4.731674104E-01
 2.386922315E-01 6.201924570E-02 -4.691847762E-01
 2.263768092E-01 6.087375246E-02 -4.628763329E-01
 2.144123912E-01 5.967565998E-02 -4.554118790E-01
 2.028555647E-01 5.843654647E-02 -4.489994479E-01
 1.909304708E-01 5.706864782E-02 -4.374643034E-01
 1.788745672E-01 5.559995957E-02 -4.322040540E-01
 1.674013808E-01 5.410690606E-02 -4.230568570E-01
 1.558543816E-01 5.249835551E-02 -4.083972772E-01
 1.446682513E-01 5.085353740E-02 -4.030732559E-01
 1.336653680E-01 4.912782460E-02 -3.911942308E-01
 1.222562268E-01 4.721848853E-02 -3.762998214E-01
 1.114014946E-01 4.528358206E-02 -3.673708954E-01
 9.090622142E-02 4.124865495E-02 -3.350080678E-01
 7.949342951E-02 3.875317052E-02 -3.099813779E-01
 6.861866638E-02 3.618678451E-02 -2.917695424E-01
 5.861809291E-02 3.360808827E-02 -2.658565636E-01
 7.094905898E-02 -2.909369115E-02 -1.866810878E-01
 8.097300306E-02 -3.087629005E-02 -1.929947757E-01
 9.101848304E-02 -3.253813274E-02 -1.992614824E-01
 1.015169621E-01 -3.416018188E-02 -2.068609694E-01
 1.125406697E-01 -3.575524315E-02 -2.131400447E-01
 1.239224076E-01 -3.730647825E-02 -2.209552144E-01
 1.350427717E-01 -3.873930685E-02 -2.305983518E-01
 1.459010243E-01 -4.005912878E-02 -2.371606171E-01
 1.575341001E-01 -4.139617831E-02 -2.446289823E-01
 1.695115119E-01 -4.270230792E-02 -2.549408624E-01
 1.813818738E-01 -4.392098635E-02 -2.650877650E-01
 1.927164868E-01 -4.501558468E-02 -2.739000459E-01
 2.037438527E-01 -4.601965472E-02 -2.803352593E-01
 2.156286463E-01 -4.703777656E-02 -2.914266872E-01
 2.283192649E-01 -4.804776609E-02 -3.017190678E-01
 2.410442904E-01 -4.898026399E-02 -3.126757619E-01
 2.535621300E-01 -4.982170276E-02 -3.219401472E-01
 2.654685676E-01 -5.055126734E-02 -3.360185334E-01
 2.775184363E-01 -5.119591951E-02 -3.416312744E-01
 2.902811170E-01 -5.180130340E-02 -3.499087616E-01
 3.030512184E-01 -5.231470987E-02 -3.627595234E-01
 3.155168742E-01 -5.272126384E-02 -3.691850934E-01
 3.279379457E-01 -5.302900076E-02 -3.797285619E-01
 3.398400098E-01 -5.322138406E-02 -3.865048227E-01
 3.510917127E-01 -5.330891162E-02 -3.854294905E-01
 3.622798026E-01 -5.331245251E-02 -3.917518981E-01
 3.730811626E-01 -5.322387815E-02 -3.926553973E-01
 3.842221349E-01 -5.303486623E-02 -3.910117953E-01
 3.966301084E-01 -5.270363577E-02 -3.867122399E-01
 4.095427841E-01 -5.222722329E-02 -3.801942455E-01
 4.222947806E-01 -5.162782967E-02 -3.679987948E-01
 4.350399822E-01 -5.090453476E-02 -3.600472658E-01
 4.472945333E-01 -5.007646605E-02 -3.439942393E-01
 4.591264427E-01 -4.916471802E-02 -3.248338916E-01
 4.710361212E-01 -4.813567549E-02 -3.039017667E-01
 4.827571213E-01 -4.703329690E-02 -2.782720210E-01
 4.948105812E-01 -4.582238570E-02 -2.584533998E-01
 5.080713034E-01 -4.438537732E-02 -2.317186608E-01
 5.217190385E-01 -4.281779006E-02 -2.009190554E-01
 5.352123380E-01 -4.120142199E-02 -1.758451286E-01
 5.482358932E-01 -3.958493285E-02 -1.504722907E-01
 5.611407459E-01 -3.793191537E-02 -1.266726840E-01
 5.741399229E-01 -3.621594235E-02 -1.005627849E-01
 5.863540471E-01 -3.457958251E-02 -7.497443702E-02
 5.983274877E-01 -3.296926618E-02 -5.655221780E-02
 6.116059721E-01 -3.115590196E-02 -3.457275698E-02
 6.260825992E-01 -2.917146310E-02 -7.635455272E-03
 6.410117447E-01 -2.713386901E-02 1.252727452E-02
 6.550643146E-01 -2.521731239E-02 3.406059293E-02
 6.682230830E-01 -2.343237307E-02 5.122117604E-02
 6.810052693E-01 -2.169510163E-02 7.063915873E-02
 6.933176816E-01 -2.004712913E-02 9.062525421E-02
 7.068311870E-01 -1.828436274E-02 1.019348188E-01
 7.204967141E-01 -1.649827417E-02 1.197236571E-01
 7.328789830E-01 -1.490370790E-02 1.414304985E-01
 7.454604805E-01 -1.334180729E-02 1.510467535E-01
 7.578550577E-01 -1.181017840E-02 1.667463512E-01
 7.701726258E-01 -1.032626489E-02 1.865679931E-01
 7.825634181E-01 -8.903969079E-03 1.971575971E-01
 7.946697474E-01 -7.537134923E-03 2.103937028E-01
 8.064047992E-01 -6.258700741E-03 2.305333494E-01
 8.176662624E-01 -5.097022280E-03 2.390779110E-01
 8.300068974E-01 -3.903571400E-03 2.544397526E-01
 8.428351283E-01 -2.752450528E-03 2.646625939E-01
 8.550588489E-01 -1.730569464E-03 2.798545029E-01
 8.670521677E-01 -8.325904782E-04 2.911958979E-01
 8.791799545E-01 -4.548837023E-05 2.997190165E-01
 8.918220103E-01 6.479446747E-04 3.068965725E-01
 9.035616219E-01 1.171078155E-03 3.165877584E-01
 9.139536619E-01 1.515295240E-03 3.165629448E-01
 9.424015582E-01 1.942236617E-03 3.166012883E-01
 9.542318285E-01 1.898871327E-03 3.161307578E-01
 9.676837027E-01 1.691082784E-03 3.128342506E-01
 9.813832045E-01 1.321525138E-03 3.193065039E-01
 9.937655628E-01 8.027499716E-04 3.804752552E-01
 -5.000000000E-01 9.500000000E-01 -2.085459904E-03
 -5.000000000E-01 9.000000000E-01 -2.274881613E-03
 -5.000000000E-01 8.500000000E-01 -1.603168845E-03
 -5.000000000E-01 8.000000000E-01 -1.920540828E-04
 -5.000000000E-01 7.500000000E-01 2.034136733E-03
 -5.000000000E-01 7.000000000E-01 5.063951911E-03
 -5.000000000E-01 6.500000000E-01 8.913166947E-03
 -5.000000000E-01 6.000000000E-01 1.363476558E-02
 -5.000000000E-01 5.500000000E-01 1.924262619E-02
 -5.000000000E-01 5.000000000E-01 2.574618901E-02
 -5.000000000E-01 4.500000000E-01 3.310492691E-02
 -5.000000000E-01 4.000000000E-01 4.106995462E-02
 -5.000000000E-01 3.500000000E-01 4.965503447E-02
 -5.000000000E-01 3.000000000E-01 5.842072579E-02
 -5.000000000E-01 2.500000000E-01 6.749030112E-02
 -5.000000000E-01 2.000000000E-01 7.574846424E-02
 -5.000000000E-01 1.500000000E-01 8.371487175E-02
 -5.000000000E-01 1.000000000E-01 9.020070473E-02
 -5.000000000E-01 5.000000000E-02 9.521896629E-02
 -5.000000000E-01 2.752242878E-12 9.862953613E-02
 -5.000000000E-01 -5.000000000E-02 9.978638066E-02
 -5.000000000E-01 -1.000000000E-01 9.953217809E-02
 -5.000000000E-01 -1.500000000E-01 9.748396509E-02
 -5.000000000E-01 -2.000000000E-01 9.393625405E-02
 -5.000000000E-01 -2.500000000E-01 8.942754836E-02
 -5.000000000E-01 -3.000000000E-01 8.414978510E-02
 -5.000000000E-01 -3.500000000E-01 7.855373627E-02
 -5.000000000E-01 -4.000000000E-01 7.276775510E-02
 -5.000000000E-01 -4.500000000E-01 6.709532767E-02
 -5.000000000E-01 -5.000000000E-01 6.159661592E-02
 -5.000000000E-01 -5.500000000E-01 5.631490933E-02
 -5.000000000E-01 -6.000000000E-01 5.147651328E-02
 -5.000000000E-01 -6.500000000E-01 4.689583201E-02
 -5.000000000E-01 -7.000000000E-01 4.259592864E-02
 -5.000000000E-01 -7.500000000E-01 3.861009617E-02
 -5.000000000E-01 -8.000000000E-01 3.460172546E-02
 -5.000000000E-01 -8.500000000E-01 3.067837650E-02
 -5.000000000E-01 -9.000000000E-01 2.614554032E-02
 -5.000000000E-01 -9.500000000E-01 1.948738708E-02
 -4.500000000E-01 -1.000000000E+00 1.786539095E-02
 -4.000000000E-01 -1.000000000E+00 2.321872803E-02
 -3.500000000E-01 -1.000000000E+00 2.576615572E-02
 -3.000000000E-01 -1.000000000E+00 2.708990492E-02
 -2.500000000E-01 -1.000000000E+00 2.775917104E-02
 -2.000000000E-01 -1.000000000E+00 2.763895046E-02
 -1.500000000E-01 -1.000000000E+00 2.681675974E-02
 -1.000000000E-01 -1.000000000E+00 2.543798642E-02
 -5.000000000E-02 -1.000000000E+00 2.349688467E-02
 -9.424683256E-13 -1.000000000E+00 2.126575217E-02
 5.000000000E-02 -1.000000000E+00 1.863899631E-02
 1.000000000E-01 -1.000000000E+00 1.594675947E-02
 1.500000000E-01 -1.000000000E+00 1.299571202E-02
 2.000000000E-01 -1.000000000E+00 1.024696567E-02
 2.500000000E-01 -1.000000000E+00 7.530792767E-03
 3.000000000E-01 -1.000000000E+00 5.381183692E-03
 3.500000000E-01 -1.000000000E+00 3.680975436E-03
 4.000000000E-01 -1.000000000E+00 2.549915901E-03
 4.500000000E-01 -1.000000000E+00 2.015446187E-03
 5.000000000E-01 -1.000000000E+00 2.218128701E-03
 5.500000000E-01 -1.000000000E+00 2.988778577E-03
 6.000000000E-01 -1.000000000E+00 4.391619176E-03
 6.500000000E-01 -1.000000000E+00 6.331380388E-03
 7.000000000E-01 -1.000000000E+00 8.710466278E-03
 7.500000000E-01 -1.000000000E+00 1.147237393E-02
 8.000000000E-01 -1.000000000E+00 1.440717801E-02
 8.500000000E-01 -1.000000000E+00 1.743537907E-02
 9.000000000E-01 -1.000000000E+00 2.043245493E-02
 9.500000000E-01 -1.000000000E+00 2.336820504E-02
 1.000000000E+00 -1.000000000E+00 2.607768679E-02
 1.050000000E+00 -1.000000000E+00 2.858147385E-02
 1.100000000E+00 -1.000000000E+00 3.074704950E-02
 1.150000000E+00 -1.000000000E+00 3.256726933E-02
 1.200000000E+00 -1.000000000E+00 3.408605069E-02
 1.250000000E+00 -1.000000000E+00 3.523900686E-02
 1.300000000E+00 -1.000000000E+00 3.606703134E-02
 1.350000000E+00 -1.000000000E+00 3.662442910E-02
 1.400000000E+00 -1.000000000E+00 3.689068177E-02
 1.450000000E+00 -1.000000000E+00 3.690603104E-02
 1.500000000E+00 -1.000000000E+00 3.675167443E-02
 1.550000000E+00 -1.000000000E+00 3.639454640E-02
 1.600000000E+00 -1.000000000E+00 3.591781056E-02
 1.650000000E+00 -1.000000000E+00 3.530612948E-02
 1.700000000E+00 -1.000000000E+00 3.461860559E-02
 1.750000000E+00 -1.000000000E+00 3.383863492E-02
 1.800000000E+00 -1.000000000E+00 3.305466048E-02
 1.850000000E+00 -1.000000000E+00 3.219420667E-02
 1.900000000E+00 -1.000000000E+00 3.128555183E-02
 1.950000000E+00 -1.000000000E+00 3.048675566E-02
 2.000000000E+00 -1.000000000E+00 2.955275771E-02
 2.050000000E+00 -1.000000000E+00 2.879703146E-02
 2.100000000E+00 -1.000000000E+00 2.789194170E-02
 2.150000000E+00 -1.000000000E+00 2.710888277E-02
 2.200000000E+00 -1.000000000E+00 2.633986314E-02
 2.250000000E+00 -1.000000000E+00 2.563004634E-02
 2.300000000E+00 -1.000000000E+00 2.492329136E-02
 2.350000000E+00 -1.000000000E+00 2.426962974E-02
 2.400000000E+00 -1.000000000E+00 2.367292216E-02
 2.450000000E+00 -1.000000000E+00 2.309524574E-02
 2.500000000E+00 -1.000000000E+00 2.256900891E-02
 2.550000000E+00 -1.000000000E+00 2.208751672E-02
 2.600000000E+00 -1.000000000E+00 2.162531133E-02
 2.650000000E+00 -1.000000000E+00 2.122711361E-02
 2.700000000E+00 -1.000000000E+00 2.083736301E-02
 2.750000000E+00 -1.000000000E+00 2.049420130E-02
 2.800000000E+00 -1.000000000E+00 2.017828715E-02
 2.850000000E+00 -1.000000000E+00 1.987922562E-02
 2.900000000E+00 -1.000000000E+00 1.962620530E-02
 2.950000000E+00 -1.000000000E+00 1.935524402E-02
 3.000000000E+00 -1.000000000E+00 1.912107028E-02
 3.050000000E+00 -1.000000000E+00 1.885156765E-02
 3.100000000E+00 -1.000000000E+00 1.853629754E-02
 3.150000000E+00 -1.000000000E+00 1.819894888E-02
 3.200000000E+00 -1.000000000E+00 1.771299943E-02
 3.250000000E+00 -1.000000000E+00 1.724153578E-02
 3.300000000E+00 -1.000000000E+00 1.647834630E-02
 3.350000000E+00 -1.000000000E+00 1.552175251E-02
 3.400000000E+00 -1.000000000E+00 1.398207953E-02
 3.450000000E+00 -1.000000000E+00 1.138191965E-02
 3.500000000E+00 -9.500000000E-01 7.752372439E-03
 3.500000000E+00 -9.000000000E-01 9.282391861E-03
 3.500000000E+00 -8.500000000E-01 1.060344341E-02
 3.500000000E+00 -8.000000000E-01 1.212268076E-02
 3.500000000E+00 -7.500000000E-01 1.357626851E-02
 3.500000000E+00 -7.000000000E-01 1.507475105E-02
 3.500000000E+00 -6.500000000E-01 1.654232015E-02
 3.500000000E+00 -6.000000000E-01 1.812132154E-02
 3.500000000E+00 -5.500000000E-01 1.981943081E-02
 3.500000000E+00 -5.000000000E-01 2.159073022E-02
 3.500000000E+00 -4.500000000E-01 2.350457301E-02
 3.500000000E+00 -4.000000000E-01 2.553871831E-02
 3.500000000E+00 -3.500000000E-01 2.764081232E-02
 3.500000000E+00 -3.000000000E-01 2.962125903E-02
 3.500000000E+00 -2.500000000E-01 3.101099777E-02
 3.500000000E+00 -2.000000000E-01 3.152050486E-02
 3.500000000E+00 -1.500000000E-01 3.106154101E-02
 3.500000000E+00 -1.000000000E-01 2.992704012E-02
 3.500000000E+00 -5.000000000E-02 2.887322562E-02
 3.500000000E+00 -2.752242878E-12 2.808884205E-02
 3.500000000E+00 5.000000000E-02 2.777931848E-02
 3.500000000E+00 1.000000000E-01 2.715212998E-02
 3.500000000E+00 1.500000000E-01 2.580695196E-02
 3.500000000E+00 2.000000000E-01 2.318321631E-02
 3.500000000E+00 2.500000000E-01 2.019196325E-02
 3.500000000E+00 3.000000000E-01 1.711318939E-02
 3.500000000E+00 3.500000000E-01 1.412207330E-02
 3.500000000E+00 4.000000000E-01 1.138667221E-02
 3.500000000E+00 4.500000000E-01 8.825899291E-03
 3.500000000E+00 5.000000000E-01 6.504530025E-03
 3.500000000E+00 5.500000000E-01 4.595330683E-03
 3.500000000E+00 6.000000000E-01 3.436541411E-03
 3.500000000E+00 6.500000000E-01 3.037390531E-03
 3.500000000E+00 7.000000000E-01 3.011062381E-03
 3.500000000E+00 7.500000000E-01 2.198531434E-03
 3.500000000E+00 8.000000000E-01 -3.298568768E-04
 3.500000000E+00 8.500000000E-01 -6.513095159E-03
 3.500000000E+00 9.000000000E-01 -1.480740473E-02
 3.500000000E+00 9.500000000E-01 -2.467785064E-02
 3.450000000E+00 1.000000000E+00 -1.506297183E-02
 3.400000000E+00 1.000000000E+00 -7.196443333E-03
 3.350000000E+00 1.000000000E+00 -3.294017125E-03
 3.300000000E+00 1.000000000E+00 -1.368973519E-03
 3.250000000E+00 1.000000000E+00 -7.654683760E-04
 3.200000000E+00 1.000000000E+00 2.886377472E-04
 3.150000000E+00 1.000000000E+00 9.239096073E-05
 3.100000000E+00 1.000000000E+00 1.747392348E-04
 3.050000000E+00 1.000000000E+00 -3.803381274E-05
 3.000000000E+00 1.000000000E+00 -2.779802907E-04
 2.950000000E+00 1.000000000E+00 -7.478656692E-04
 2.900000000E+00 1.000000000E+00 -1.089489280E-03
 2.850000000E+00 1.000000000E+00 -1.905988445E-03
 2.800000000E+00 1.000000000E+00 -2.584699422E-03
 2.750000000E+00 1.000000000E+00 -3.220033234E-03
 2.700000000E+00 1.000000000E+00 -4.213939397E-03
 2.650000000E+00 1.000000000E+00 -4.944975935E-03
 2.600000000E+00 1.000000000E+00 -6.296766771E-03
 2.550000000E+00 1.000000000E+00 -7.196725097E-03
 2.500000000E+00 1.000000000E+00 -8.344062759E-03
 2.450000000E+00 1.000000000E+00 -9.550206992E-03
 2.400000000E+00 1.000000000E+00 -1.083549853E-02
 2.350000000E+00 1.000000000E+00 -1.244496390E-02
 2.300000000E+00 1.000000000E+00 -1.364354785E-02
 2.250000000E+00 1.000000000E+00 -1.520620772E-02
 2.200000000E+00 1.000000000E+00 -1.696616370E-02
 2.150000000E+00 1.000000000E+00 -1.857003940E-02
 2.100000000E+00 1.000000000E+00 -2.083324861E-02
 2.050000000E+00 1.000000000E+00 -2.273631375E-02
 2.000000000E+00 1.000000000E+00 -2.494792836E-02
 1.950000000E+00 1.000000000E+00 -2.726801553E-02
 1.900000000E+00 1.000000000E+00 -2.983047410E-02
 1.850000000E+00 1.000000000E+00 -3.249267828E-02
 1.800000000E+00 1.000000000E+00 -3.542434453E-02
 1.750000000E+00 1.000000000E+00 -3.860099203E-02
 1.700000000E+00 1.000000000E+00 -4.200757786E-02
 1.650000000E+00 1.000000000E+00 -4.558377624E-02
 1.600000000E+00 1.000000000E+00 -4.946633332E-02
 1.550000000E+00 1.000000000E+00 -5.353288100E-02
 1.500000000E+00 1.000000000E+00 -5.798281993E-02
 1.450000000E+00 1.000000000E+00 -6.294997109E-02
 1.400000000E+00 1.000000000E+00 -6.724563515E-02
 1.350000000E+00 1.000000000E+00 -7.332442965E-02
 1.300000000E+00 1.000000000E+00 -7.767204258E-02
 1.250000000E+00 1.000000000E+00 -8.391406795E-02
 1.200000000E+00 1.000000000E+00 -8.999900312E-02
 1.150000000E+00 1.000000000E+00 -9.556795784E-02
 1.100000000E+00 1.000000000E+00 -1.009446820E-01
 1.050000000E+00 1.000000000E+00 -1.073683663E-01
 1.000000000E+00 1.000000000E+00 -1.105339918E-01
 9.500000000E-01 1.000000000E+00 -1.166012843E-01
 9.000000000E-01 1.000000000E+00 -1.192180819E-01
 8.500000000E-01 1.000000000E+00 -1.237366629E-01
 8.000000000E-01 1.000000000E+00 -1.256803159E-01
 7.500000000E-01 1.000000000E+00 -1.277563080E-01
 7.000000000E-01 1.000000000E+00 -1.273483006E-01
 6.500000000E-01 1.000000000E+00 -1.268056273E-01
 6.000000000E-01 1.000000000E+00 -1.242260679E-01
 5.500000000E-01 1.000000000E+00 -1.211257216E-01
 5.000000000E-01 1.000000000E+00 -1.166218250E-01
 4.500000000E-01 1.000000000E+00 -1.110665924E-01
 4.000000000E-01 1.000000000E+00 -1.044561812E-01
 3.500000000E-01 1.000000000E+00 -9.725062988E-02
 3.000000000E-01 1.000000000E+00 -8.900379731E-02
 2.500000000E-01 1.000000000E+00 -8.074300672E-02
 2.000000000E-01 1.000000000E+00 -7.181326162E-02
 1.500000000E-01 1.000000000E+00 -6.343427302E-02
 1.000000000E-01 1.000000000E+00 -5.472381171E-02
 5.000000000E-02 1.000000000E+00 -4.670289031E-02
 1.733724275E-12 1.000000000E+00 -3.881696601E-02
 -5.000000000E-02 1.000000000E+00 -3.188628156E-02
 -1.000000000E-01 1.000000000E+00 -2.539529523E-02
 -1.500000000E-01 1.000000000E+00 -1.973914468E-02
 -2.000000000E-01 1.000000000E+00 -1.491360484E-02
 -2.500000000E-01 1.000000000E+00 -1.092971803E-02
 -3.000000000E-01 1.000000000E+00 -7.745265761E-03
 -3.500000000E-01 1.000000000E+00 -5.302636251E-03
 -4.000000000E-01 1.000000000E+00 -3.542976805E-03
 -4.500000000E-01 1.000000000E+00 -2.206196428E-03
 9.010854207E-01 -3.392100669E-03 3.072760722E-01
 8.209222244E-01 -9.497561918E-03 2.413569347E-01
 7.494019856E-01 -1.830619582E-02 1.526651075E-01
 6.786766091E-01 -2.739325434E-02 6.510836539E-02
 6.091070626E-01 -3.739119939E-02 -3.904444317E-02
 5.393592720E-01 -4.695573749E-02 -1.637729666E-01
 4.745261879E-01 -5.293526525E-02 -2.865459331E-01
 9.841169607E-01 -3.459897349E-03 3.178972872E-01
 4.197969369E-01 -5.676308344E-02 -3.604497420E-01
 3.599672598E-01 -5.749381115E-02 -3.826213684E-01
 3.071200511E-01 -5.683082824E-02 -3.561353756E-01