TITLE     = "Visualization of the solution"
VARIABLES = "x"
"y"
"Pressure_Coefficient"
ZONE T="Zone"
 STRANDID=0, SOLUTIONTIME=0
 Nodes=11838, Elements=23097, ZONETYPE=FEQuadrilateral
 DATAPACKING=POINT
 DT=(DOUBLE DOUBLE DOUBLE )
 9.997226000E-01 5.184379406E-04 2.225669068E-01
 9.853793979E-01 3.180530155E-03 2.747934497E-01
 9.730262160E-01 5.533586256E-03 1.904854190E-01
 9.589070678E-01 8.234033361E-03 1.229033583E-01
 9.454414845E-01 1.077469438E-02 6.910518383E-02
 9.328624606E-01 1.304902323E-02 3.984380329E-02
 9.215564132E-01 1.507170405E-02 1.860303213E-02
 9.095881581E-01 1.725992560E-02 -2.206594450E-02
 8.982422948E-01 1.928231120E-02 -6.435447967E-02
 8.856565356E-01 2.135539800E-02 -6.681483233E-02
 8.736479878E-01 2.337357029E-02 -1.068529284E-01
 8.614419699E-01 2.527144924E-02 -1.107999511E-01
 8.490949273E-01 2.719779499E-02 -1.384621510E-01
 8.371370435E-01 2.894886211E-02 -1.437249544E-01
 8.252227306E-01 3.066629916E-02 -1.476671035E-01
 8.126632571E-01 3.251142800E-02 -1.802594829E-01
 7.994125485E-01 3.432029858E-02 -1.819539411E-01
 7.876225710E-01 3.593850508E-02 -1.972455807E-01
 7.752493620E-01 3.760567307E-02 -2.178239871E-01
 7.631666064E-01 3.915582970E-02 -2.226607450E-01
 7.503146529E-01 4.078738391E-02 -2.316947680E-01
 7.366222143E-01 4.252918810E-02 -2.592367562E-01
 7.257220149E-01 4.384453967E-02 -2.673319206E-01
 7.144865990E-01 4.517086595E-02 -2.780648942E-01
 7.027279735E-01 4.652156308E-02 -2.858155569E-01
 6.892960072E-01 4.805925116E-02 -3.118459215E-01
 6.761357784E-01 4.946769774E-02 -3.210601207E-01
 6.656909585E-01 5.055793002E-02 -3.331643357E-01
 6.540324688E-01 5.172817037E-02 -3.424615752E-01
 6.430917978E-01 5.280369893E-02 -3.601864437E-01
 6.310696006E-01 5.391467363E-02 -3.704940556E-01
 6.198363304E-01 5.490784347E-02 -3.834951949E-01
 6.089428067E-01 5.581416562E-02 -3.909965589E-01
 5.965392590E-01 5.679520592E-02 -4.042106457E-01
 5.845529437E-01 5.767362565E-02 -4.124013593E-01
 5.708909035E-01 5.860364065E-02 -4.249266670E-01
 5.578604341E-01 5.939997733E-02 -4.313292604E-01
 5.449576378E-01 6.011652946E-02 -4.371638803E-01
 5.337862372E-01 6.069259718E-02 -4.503136543E-01
 5.216862559E-01 6.122278050E-02 -4.521518947E-01
 5.086011291E-01 6.171743572E-02 -4.539892555E-01
 4.976764917E-01 6.208658218E-02 -4.635672019E-01
 4.842160046E-01 6.242586300E-02 -4.596017494E-01
 4.711316824E-01 6.268859655E-02 -4.599617744E-01
 4.567839503E-01 6.289517134E-02 -4.656848646E-01
 4.426149726E-01 6.298488379E-02 -4.608888414E-01
 4.294407666E-01 6.300283968E-02 -4.633258662E-01
 4.161965251E-01 6.292650104E-02 -4.594367211E-01
 4.036845863E-01 6.278571486E-02 -4.561109598E-01
 3.908849955E-01 6.257436424E-02 -4.550287432E-01
 3.788255453E-01 6.230364367E-02 -4.515054699E-01
 3.675830662E-01 6.199270487E-02 -4.458571451E-01
 3.542782068E-01 6.155911461E-02 -4.426585029E-01
 3.422281444E-01 6.110264733E-02 -4.397867932E-01
 3.297646344E-01 6.055797264E-02 -4.366827447E-01
 3.194502890E-01 6.004641205E-02 -4.272763139E-01
 3.072056174E-01 5.939180776E-02 -4.232984578E-01
 2.942672670E-01 5.862198398E-02 -4.145969297E-01
 2.805019319E-01 5.773627758E-02 -4.102608455E-01
 2.679777443E-01 5.685931817E-02 -4.076563316E-01
 2.559763789E-01 5.593445152E-02 -3.959948040E-01
 2.433690429E-01 5.490827933E-02 -3.914100636E-01
 2.304975539E-01 5.377545580E-02 -3.835690012E-01
 2.182882428E-01 5.262765288E-02 -3.764683915E-01
 2.063674182E-01 5.143023655E-02 -3.667720767E-01
 1.950334311E-01 5.023001879E-02 -3.583852482E-01
 1.826338023E-01 4.884364828E-02 -3.513728018E-01
 1.707625836E-01 4.743525013E-02 -3.429547447E-01
 1.591126323E-01 4.597519338E-02 -3.356941320E-01
 1.472880095E-01 4.439465329E-02 -3.221669949E-01
 1.365323961E-01 4.289823771E-02 -3.180665248E-01
 1.252934486E-01 4.122835025E-02 -3.051456432E-01
 1.139704660E-01 3.946077451E-02 -2.983111336E-01
 1.033515930E-01 3.769386187E-02 -2.858357043E-01
 9.369328618E-02 3.599878028E-02 -2.757651393E-01
 8.276091516E-02 3.396540880E-02 -2.666939395E-01
 7.100280374E-02 3.159762174E-02 -2.525160567E-01
 6.124194339E-02 2.948214486E-02 -2.375471394E-01
 5.163668096E-02 2.723316848E-02 -2.224863133E-01
 4.268167168E-02 2.493716031E-02 -2.072090889E-01
 3.501488268E-02 2.278788015E-02 -1.905815191E-01
 2.839844115E-02 2.074075118E-02 -1.730150624E-01
 2.283415571E-02 1.884230413E-02 -1.566474546E-01
 1.881070063E-02 1.732615381E-02 -1.296794019E-01
 1.504123025E-02 1.576811820E-02 -1.128629720E-01
 1.236331929E-02 1.455129590E-02 -8.210262223E-02
 1.001357939E-02 1.337834820E-02 -5.593633408E-02
 8.278299123E-03 1.243537758E-02 -2.285831402E-02
 6.677049678E-03 1.149141695E-02 -1.032201916E-03
 5.198023748E-03 1.053509116E-02 6.600682323E-02
 3.271633759E-03 9.109799750E-03 1.591212547E-01
 1.635932247E-03 7.664890029E-03 2.534067711E-01
 2.292376012E-04 6.107972935E-03 4.751249557E-01
 -1.101611648E-03 4.034712445E-03 7.342639676E-01
 -1.737798913E-03 2.377353841E-03 8.899874983E-01
 -1.988213975E-03 1.057793968E-03 1.021985157E+00
 -2.007417148E-03 -5.853387411E-04 1.116078717E+00
 -1.630095649E-03 -2.531365491E-03 1.085785324E+00
 -7.077172631E-04 -4.768032115E-03 9.669538530E-01
 8.371711010E-04 -7.179009262E-03 7.897202464E-01
 3.057524096E-03 -9.720786475E-03 6.122502789E-01
 5.004331004E-03 -1.154359058E-02 4.596353017E-01
 7.335467264E-03 -1.342675742E-02 3.705945352E-01
 9.017510340E-03 -1.464761421E-02 2.731423706E-01
 1.111765672E-02 -1.604475267E-02 2.154333334E-01
 1.359807421E-02 -1.755665243E-02 1.485243534E-01
 1.691955142E-02 -1.939407736E-02 8.797823213E-02
 2.013713866E-02 -2.102104016E-02 2.137720893E-02
 2.431279235E-02 -2.294478379E-02 -2.781672443E-02
 2.986326814E-02 -2.525073290E-02 -8.317412482E-02
 3.566413000E-02 -2.742131427E-02 -1.329259498E-01
 4.305189848E-02 -2.992137522E-02 -1.661024304E-01
 5.064878613E-02 -3.224338591E-02 -2.015262292E-01
 5.947285518E-02 -3.470057249E-02 -2.284731282E-01
 6.818267703E-02 -3.690621629E-02 -2.541273670E-01
 7.864502072E-02 -3.934438527E-02 -2.723587618E-01
 8.853513002E-02 -4.145106301E-02 -2.849210770E-01
 9.911812842E-02 -4.356240109E-02 -3.059910060E-01
 1.100733876E-01 -4.557393491E-02 -3.167057728E-01
 1.215813011E-01 -4.754355550E-02 -3.295342563E-01
 1.330088377E-01 -4.937019572E-02 -3.426320741E-01
 1.433050185E-01 -5.091070011E-02 -3.540785580E-01
 1.543476433E-01 -5.246696994E-02 -3.664067116E-01
 1.660351455E-01 -5.399896204E-02 -3.744189319E-01
 1.776011288E-01 -5.543196574E-02 -3.902159345E-01
 1.891722381E-01 -5.675714463E-02 -3.987067572E-01
 1.994187534E-01 -5.785460398E-02 -4.083367501E-01
 2.104827762E-01 -5.897454545E-02 -4.232510536E-01
 2.225730121E-01 -6.008973345E-02 -4.307097678E-01
 2.347157896E-01 -6.112226844E-02 -4.441149621E-01
 2.466118932E-01 -6.203418970E-02 -4.535973635E-01
 2.591159940E-01 -6.289810687E-02 -4.654297033E-01
 2.700529993E-01 -6.356517971E-02 -4.758350717E-01
 2.826598883E-01 -6.422910094E-02 -4.829003605E-01
 2.950892150E-01 -6.479448825E-02 -4.992210233E-01
 3.077701628E-01 -6.523009390E-02 -5.025227824E-01
 3.192080259E-01 -6.552613527E-02 -5.105358340E-01
 3.316371441E-01 -6.573065370E-02 -5.136097561E-01
 3.420010805E-01 -6.581293792E-02 -5.203745482E-01
 3.532907665E-01 -6.579640508E-02 -5.194590876E-01
 3.642136753E-01 -6.567759067E-02 -5.173033900E-01
 3.749210238E-01 -6.547795981E-02 -5.213355194E-01
 3.862518668E-01 -6.514219195E-02 -5.124246080E-01
 3.988877833E-01 -6.464115530E-02 -5.035755678E-01
 4.109010398E-01 -6.403118372E-02 -4.901670895E-01
 4.241394699E-01 -6.323596835E-02 -4.797626686E-01
 4.368540645E-01 -6.231252477E-02 -4.584659869E-01
 4.499203861E-01 -6.122381985E-02 -4.328227450E-01
 4.624025524E-01 -6.009132788E-02 -4.182470453E-01
 4.749333262E-01 -5.880038813E-02 -3.821528522E-01
 4.869458973E-01 -5.751374364E-02 -3.689371160E-01
 4.993518293E-01 -5.605268851E-02 -3.339533975E-01
 5.130484700E-01 -5.435438082E-02 -3.021384005E-01
 5.270385742E-01 -5.255806446E-02 -2.777739833E-01
 5.401991010E-01 -5.077733099E-02 -2.477431370E-01
 5.542122722E-01 -4.881147295E-02 -2.167429689E-01
 5.671697259E-01 -4.694092646E-02 -1.875752141E-01
 5.807811618E-01 -4.495299608E-02 -1.631368743E-01
 5.934504867E-01 -4.307236150E-02 -1.401060254E-01
 6.059463620E-01 -4.118058458E-02 -1.133990190E-01
 6.194598079E-01 -3.914067894E-02 -9.338948794E-02
 6.336088181E-01 -3.697838262E-02 -6.816245499E-02
 6.472478509E-01 -3.487756476E-02 -4.223500692E-02
 6.609500051E-01 -3.280168027E-02 -2.611251415E-02
 6.747348905E-01 -3.070577234E-02 -6.942442899E-03
 6.872993708E-01 -2.878140286E-02 1.470779788E-02
 6.997107863E-01 -2.689570189E-02 3.338123124E-02
 7.146641612E-01 -2.465540543E-02 5.190195486E-02
 7.276431918E-01 -2.270595171E-02 7.522317383E-02
 7.394450903E-01 -2.100598253E-02 8.113060542E-02
 7.518613338E-01 -1.917239092E-02 1.081593525E-01
 7.649331093E-01 -1.733107120E-02 1.171766980E-01
 7.777775526E-01 -1.552120410E-02 1.381307649E-01
 7.897936106E-01 -1.386400964E-02 1.555995335E-01
 8.025787473E-01 -1.217517257E-02 1.668764828E-01
 8.134372234E-01 -1.073639188E-02 1.910404040E-01
 8.251017332E-01 -9.318568744E-03 1.930130457E-01
 8.371745944E-01 -7.847168483E-03 2.151035552E-01
 8.492240310E-01 -6.454508286E-03 2.317146411E-01
 8.613505960E-01 -5.166080315E-03 2.422067027E-01
 8.727642894E-01 -4.027851857E-03 2.560999365E-01
 8.843668103E-01 -2.968102461E-03 2.692770219E-01
 8.971688747E-01 -1.946121571E-03 2.779405821E-01
 9.075533152E-01 -1.252178452E-03 2.793100673E-01
 9.175335765E-01 -6.567067467E-04 2.847076001E-01
 9.270009995E-01 -1.946704870E-04 2.885526220E-01
 9.363225698E-01 1.685339957E-04 2.875638105E-01
 9.483633637E-01 5.248626694E-04 2.856734913E-01
 9.627371430E-01 7.496637991E-04 2.763919396E-01
 9.770151973E-01 7.992130704E-04 2.689486245E-01
 9.897438288E-01 6.864714669E-04 3.049310755E-01
 -5.000000000E-01 -1.000000000E+00 8.698005862E-03
 3.500000000E+00 -1.000000000E+00 4.065506799E-03
 3.500000000E+00 1.000000000E+00 -1.098267421E-02
 -5.000000000E-01 1.000000000E+00 3.303994166E-03
 9.925509989E-01 1.849484048E-03 3.606077028E-01
 9.792028069E-01 4.357058206E-03 2.251532077E-01
 9.659666419E-01 6.883809809E-03 1.529524903E-01
 9.521742761E-01 9.504363872E-03 9.219289478E-02
 9.391519725E-01 1.191185880E-02 5.476464685E-02
 9.272094369E-01 1.406036364E-02 3.206591647E-02
 9.155722857E-01 1.616581483E-02 -4.752937479E-03
 9.039152265E-01 1.827111840E-02 -4.829460328E-02
 8.919494152E-01 2.031885460E-02 -6.019083579E-02
 8.796522617E-01 2.236448415E-02 -9.168500248E-02
 8.675449789E-01 2.432250977E-02 -1.052350197E-01
 8.552684486E-01 2.623462211E-02 -1.279323909E-01
 8.431159854E-01 2.807332855E-02 -1.394358844E-01
 8.311798871E-01 2.980758063E-02 -1.424601323E-01
 8.189429939E-01 3.158886358E-02 -1.698298842E-01
 8.060379028E-01 3.341586329E-02 -1.783450689E-01
 7.935175598E-01 3.512940183E-02 -1.899401246E-01
 7.814359665E-01 3.677208908E-02 -2.095288252E-01
 7.692079842E-01 3.838075139E-02 -2.185641963E-01
 7.567406297E-01 3.997160681E-02 -2.254666684E-01
 7.434684336E-01 4.165828601E-02 -2.473902516E-01
 7.311721146E-01 4.318686388E-02 -2.626780960E-01
 7.201043069E-01 4.450770281E-02 -2.726096957E-01
 7.086072862E-01 4.584621452E-02 -2.801799415E-01
 6.960119903E-01 4.729040712E-02 -3.018750128E-01
 6.827158928E-01 4.876347445E-02 -3.147939429E-01
 6.709133685E-01 5.001281388E-02 -3.276914507E-01
 6.598617136E-01 5.114305019E-02 -3.364799201E-01
 6.485621333E-01 5.226593465E-02 -3.535178108E-01
 6.370806992E-01 5.335918628E-02 -3.647009862E-01
 6.254529655E-01 5.441125855E-02 -3.775119175E-01
 6.143895686E-01 5.536100455E-02 -3.873199072E-01
 6.027410328E-01 5.630468577E-02 -3.980212073E-01
 5.905461013E-01 5.723441578E-02 -4.087284619E-01
 5.777219236E-01 5.813863315E-02 -4.192707462E-01
 5.643756688E-01 5.900180899E-02 -4.279361788E-01
 5.514090359E-01 5.975825340E-02 -4.324215181E-01
 5.393719375E-01 6.040456332E-02 -4.464216809E-01
 5.277362466E-01 6.095768884E-02 -4.516393966E-01
 5.151436925E-01 6.147010811E-02 -4.506106856E-01
 5.031388104E-01 6.190200895E-02 -4.633823528E-01
 4.909462482E-01 6.225622259E-02 -4.600885533E-01
 4.776738435E-01 6.255722977E-02 -4.600559424E-01
 4.639578164E-01 6.279188395E-02 -4.642233194E-01
 4.496994615E-01 6.294002756E-02 -4.614578374E-01
 4.360278696E-01 6.299386173E-02 -4.629640956E-01
 4.228186458E-01 6.296467036E-02 -4.605933747E-01
 4.099405557E-01 6.285610795E-02 -4.576778070E-01
 3.972847909E-01 6.268003955E-02 -4.555887699E-01
 3.848552704E-01 6.243900396E-02 -4.525720355E-01
 3.732043058E-01 6.214817427E-02 -4.494327938E-01
 3.609306365E-01 6.177590974E-02 -4.435418936E-01
 3.482531756E-01 6.133088097E-02 -4.419694332E-01
 3.359963894E-01 6.083030999E-02 -4.373082872E-01
 3.246074617E-01 6.030219235E-02 -4.319874398E-01
 3.133279532E-01 5.971910991E-02 -4.264249154E-01
 3.007364422E-01 5.900689587E-02 -4.189871813E-01
 2.873845994E-01 5.817913078E-02 -4.119702599E-01
 2.742398381E-01 5.729779787E-02 -4.096417034E-01
 2.619770616E-01 5.639688484E-02 -4.010055428E-01
 2.496727109E-01 5.542136542E-02 -3.946693125E-01
 2.369332984E-01 5.434186757E-02 -3.872528862E-01
 2.243928984E-01 5.320155434E-02 -3.800890001E-01
 2.123278305E-01 5.202894472E-02 -3.709202322E-01
 2.007004246E-01 5.083012767E-02 -3.633156732E-01
 1.888336167E-01 4.953683354E-02 -3.550656807E-01
 1.766981930E-01 4.813944921E-02 -3.469614701E-01
 1.649376079E-01 4.670522176E-02 -3.404470483E-01
 1.532003209E-01 4.518492334E-02 -3.270271749E-01
 1.419102028E-01 4.364644550E-02 -3.222231530E-01
 1.309129223E-01 4.206329398E-02 -3.112280311E-01
 1.196319573E-01 4.034456238E-02 -3.021020475E-01
 1.086610295E-01 3.857731819E-02 -2.925261990E-01
 8.822710067E-02 3.498209454E-02 -2.756175411E-01
 7.688185945E-02 3.278151527E-02 -2.600216926E-01
 7.341384888E-02 -3.812530078E-02 -2.628581173E-01
 8.359007537E-02 -4.039772414E-02 -2.837024002E-01
 9.382662922E-02 -4.250673205E-02 -2.933740298E-01
 1.045957580E-01 -4.456816800E-02 -3.127138892E-01
 1.158273444E-01 -4.655874521E-02 -3.233942013E-01
 1.272950694E-01 -4.845687561E-02 -3.368704532E-01
 1.381569281E-01 -5.014044791E-02 -3.501876111E-01
 1.488263309E-01 -5.168883502E-02 -3.592406629E-01
 1.601913944E-01 -5.323296599E-02 -3.708975081E-01
 1.718181372E-01 -5.471546389E-02 -3.812003627E-01
 1.833866835E-01 -5.609455518E-02 -3.955887068E-01
 1.942954957E-01 -5.730587430E-02 -4.047582623E-01
 2.049507648E-01 -5.841457471E-02 -4.137046207E-01
 2.165278941E-01 -5.953213945E-02 -4.271795013E-01
 2.286444008E-01 -6.060600094E-02 -4.368923804E-01
 2.406638414E-01 -6.157822907E-02 -4.496341911E-01
 2.528639436E-01 -6.246614829E-02 -4.585297942E-01
 2.645844966E-01 -6.323164329E-02 -4.723466179E-01
 2.763564438E-01 -6.389714032E-02 -4.778475936E-01
 2.888745517E-01 -6.451179460E-02 -4.896827261E-01
 3.014296889E-01 -6.501229107E-02 -5.023073946E-01
 3.134890944E-01 -6.537811458E-02 -5.072491008E-01
 3.254225850E-01 -6.562839448E-02 -5.111843309E-01
 3.368191123E-01 -6.577179581E-02 -5.191982807E-01
 3.476459235E-01 -6.580467150E-02 -5.195103761E-01
 3.587522209E-01 -6.573699787E-02 -5.195272629E-01
 3.695673496E-01 -6.557777524E-02 -5.183510462E-01
 3.805864453E-01 -6.531007588E-02 -5.171120297E-01
 3.925698251E-01 -6.489167362E-02 -5.066133343E-01
 4.048944116E-01 -6.433616951E-02 -4.985478399E-01
 4.175202549E-01 -6.363357604E-02 -4.829287463E-01
 4.304967672E-01 -6.277424656E-02 -4.718496047E-01
 4.433872253E-01 -6.176817231E-02 -4.462535427E-01
 4.561614692E-01 -6.065757386E-02 -4.246724982E-01
 4.686679393E-01 -5.944585800E-02 -4.035629009E-01
 4.809396118E-01 -5.815706588E-02 -3.730623532E-01
 4.931488633E-01 -5.678321607E-02 -3.541127639E-01
 5.062001497E-01 -5.520353466E-02 -3.182623217E-01
 5.200435221E-01 -5.345622264E-02 -2.889823299E-01
 5.336188376E-01 -5.166769773E-02 -2.640743622E-01
 5.472056866E-01 -4.979440197E-02 -2.326302765E-01
 5.606909990E-01 -4.787619971E-02 -2.028723650E-01
 5.739754438E-01 -4.594696127E-02 -1.748727632E-01
 5.871158242E-01 -4.401267879E-02 -1.514568373E-01
 5.996984243E-01 -4.212647304E-02 -1.277775062E-01
 6.127030849E-01 -4.016063176E-02 -1.026763586E-01
 6.265343130E-01 -3.805953078E-02 -8.121496822E-02
 6.404283345E-01 -3.592797369E-02 -5.604296988E-02
 6.540989280E-01 -3.383962251E-02 -3.271857630E-02
 6.678424478E-01 -3.175372630E-02 -1.656901489E-02
 6.810171306E-01 -2.974358760E-02 3.471560359E-03
 6.935050786E-01 -2.783855237E-02 2.453882448E-02
 7.071874738E-01 -2.577555366E-02 4.248189554E-02
 7.211536765E-01 -2.368067857E-02 6.252246765E-02
 7.335441411E-01 -2.185596712E-02 8.134331095E-02
 7.456532121E-01 -2.008918673E-02 9.176892498E-02
 7.583972216E-01 -1.825173106E-02 1.143297414E-01
 7.713553309E-01 -1.642613765E-02 1.265417913E-01
 7.837855816E-01 -1.469260687E-02 1.464662763E-01
 7.961861789E-01 -1.301959110E-02 1.620948365E-01
 8.080079854E-01 -1.145578222E-02 1.765025776E-01
 8.192694783E-01 -1.002748031E-02 1.944909499E-01
 8.311381638E-01 -8.582868613E-03 2.015741549E-01
 8.431993127E-01 -7.150838384E-03 2.226061112E-01
 8.552873135E-01 -5.810294300E-03 2.379194897E-01
 8.670574427E-01 -4.596966086E-03 2.488473359E-01
 8.785655499E-01 -3.497977159E-03 2.618812302E-01
 8.907678425E-01 -2.457112016E-03 2.735414234E-01
 9.023610950E-01 -1.599150011E-03 2.833012877E-01
 9.423429668E-01 3.466983326E-04 2.846574639E-01
 9.555502534E-01 6.372632342E-04 2.803973851E-01
 9.698761702E-01 7.744384347E-04 2.723336065E-01
 9.833795130E-01 7.428422687E-04 2.549074319E-01
 -5.000000000E-01 9.500000000E-01 4.674681980E-03
 -5.000000000E-01 9.000000000E-01 6.670567030E-03
 -5.000000000E-01 8.500000000E-01 8.569525357E-03
 -5.000000000E-01 8.000000000E-01 1.080729970E-02
 -5.000000000E-01 7.500000000E-01 1.366176563E-02
 -5.000000000E-01 7.000000000E-01 1.703209098E-02
 -5.000000000E-01 6.500000000E-01 2.117056433E-02
 -5.000000000E-01 6.000000000E-01 2.591313713E-02
 -5.000000000E-01 5.500000000E-01 3.142509605E-02
 -5.000000000E-01 5.000000000E-01 3.768005471E-02
 -5.000000000E-01 4.500000000E-01 4.460145146E-02
 -5.000000000E-01 4.000000000E-01 5.201501902E-02
 -5.000000000E-01 3.500000000E-01 5.994507882E-02
 -5.000000000E-01 3.000000000E-01 6.796055360E-02
 -5.000000000E-01 2.500000000E-01 7.599711088E-02
 -5.000000000E-01 2.000000000E-01 8.341078109E-02
 -5.000000000E-01 1.500000000E-01 9.020341698E-02
 -5.000000000E-01 1.000000000E-01 9.557503930E-02
 -5.000000000E-01 5.000000000E-02 9.947587600E-02
 -5.000000000E-01 2.752242878E-12 1.014542110E-01
 -5.000000000E-01 -5.000000000E-02 1.014112974E-01
 -5.000000000E-01 -1.000000000E-01 9.951054395E-02
 -5.000000000E-01 -1.500000000E-01 9.586402058E-02
 -5.000000000E-01 -2.000000000E-01 9.074245536E-02
 -5.000000000E-01 -2.500000000E-01 8.461361629E-02
 -5.000000000E-01 -3.000000000E-01 7.781898187E-02
 -5.000000000E-01 -3.500000000E-01 7.081005299E-02
 -5.000000000E-01 -4.000000000E-01 6.373637564E-02
 -5.000000000E-01 -4.500000000E-01 5.694347608E-02
 -5.000000000E-01 -5.000000000E-01 5.046743728E-02
 -5.000000000E-01 -5.500000000E-01 4.452910213E-02
 -5.000000000E-01 -6.000000000E-01 3.914376026E-02
 -5.000000000E-01 -6.500000000E-01 3.428559704E-02
 -5.000000000E-01 -7.000000000E-01 2.998983313E-02
 -5.000000000E-01 -7.500000000E-01 2.616120208E-02
 -5.000000000E-01 -8.000000000E-01 2.271711814E-02
 -5.000000000E-01 -8.500000000E-01 1.957746878E-02
 -5.000000000E-01 -9.000000000E-01 1.628842846E-02
 -5.000000000E-01 -9.500000000E-01 1.200490752E-02
 -4.500000000E-01 -1.000000000E+00 1.085997804E-02
 -4.000000000E-01 -1.000000000E+00 1.384938390E-02
 -3.500000000E-01 -1.000000000E+00 1.486291805E-02
 -3.000000000E-01 -1.000000000E+00 1.487838099E-02
 -2.500000000E-01 -1.000000000E+00 1.406708185E-02
 -2.000000000E-01 -1.000000000E+00 1.246492220E-02
 -1.500000000E-01 -1.000000000E+00 1.014253819E-02
 -1.000000000E-01 -1.000000000E+00 7.091942953E-03
 -5.000000000E-02 -1.000000000E+00 3.492297946E-03
 -9.424683256E-13 -1.000000000E+00 -6.728844508E-04
 5.000000000E-02 -1.000000000E+00 -5.195990222E-03
 1.000000000E-01 -1.000000000E+00 -9.828855712E-03
 1.500000000E-01 -1.000000000E+00 -1.463223693E-02
 2.000000000E-01 -1.000000000E+00 -1.921243619E-02
 2.500000000E-01 -1.000000000E+00 -2.363252156E-02
 3.000000000E-01 -1.000000000E+00 -2.747157467E-02
 3.500000000E-01 -1.000000000E+00 -3.076904385E-02
 4.000000000E-01 -1.000000000E+00 -3.323483827E-02
 4.500000000E-01 -1.000000000E+00 -3.485855529E-02
 5.000000000E-01 -1.000000000E+00 -3.565885118E-02
 5.500000000E-01 -1.000000000E+00 -3.555795031E-02
 6.000000000E-01 -1.000000000E+00 -3.455181484E-02
 6.500000000E-01 -1.000000000E+00 -3.277422155E-02
 7.000000000E-01 -1.000000000E+00 -3.026836803E-02
 7.500000000E-01 -1.000000000E+00 -2.713239363E-02
 8.000000000E-01 -1.000000000E+00 -2.371581757E-02
 8.500000000E-01 -1.000000000E+00 -1.992966477E-02
 9.000000000E-01 -1.000000000E+00 -1.598915591E-02
 9.500000000E-01 -1.000000000E+00 -1.198519767E-02
 1.000000000E+00 -1.000000000E+00 -8.180537643E-03
 1.050000000E+00 -1.000000000E+00 -4.414452786E-03
 1.100000000E+00 -1.000000000E+00 -8.910643776E-04
 1.150000000E+00 -1.000000000E+00 2.254700942E-03
 1.200000000E+00 -1.000000000E+00 5.087588962E-03
 1.250000000E+00 -1.000000000E+00 7.580939397E-03
 1.300000000E+00 -1.000000000E+00 9.745283201E-03
 1.350000000E+00 -1.000000000E+00 1.160166324E-02
 1.400000000E+00 -1.000000000E+00 1.315763281E-02
 1.450000000E+00 -1.000000000E+00 1.444406461E-02
 1.500000000E+00 -1.000000000E+00 1.544819155E-02
 1.550000000E+00 -1.000000000E+00 1.627096218E-02
 1.600000000E+00 -1.000000000E+00 1.685384849E-02
 1.650000000E+00 -1.000000000E+00 1.736914402E-02
 1.700000000E+00 -1.000000000E+00 1.761364639E-02
 1.750000000E+00 -1.000000000E+00 1.782226658E-02
 1.800000000E+00 -1.000000000E+00 1.792849272E-02
 1.850000000E+00 -1.000000000E+00 1.789079788E-02
 1.900000000E+00 -1.000000000E+00 1.785808543E-02
 1.950000000E+00 -1.000000000E+00 1.777768518E-02
 2.000000000E+00 -1.000000000E+00 1.766953226E-02
 2.050000000E+00 -1.000000000E+00 1.747750381E-02
 2.100000000E+00 -1.000000000E+00 1.732849602E-02
 2.150000000E+00 -1.000000000E+00 1.707911183E-02
 2.200000000E+00 -1.000000000E+00 1.696764467E-02
 2.250000000E+00 -1.000000000E+00 1.674396708E-02
 2.300000000E+00 -1.000000000E+00 1.659737930E-02
 2.350000000E+00 -1.000000000E+00 1.639836510E-02
 2.400000000E+00 -1.000000000E+00 1.625406374E-02
 2.450000000E+00 -1.000000000E+00 1.608235847E-02
 2.500000000E+00 -1.000000000E+00 1.594813937E-02
 2.550000000E+00 -1.000000000E+00 1.584950181E-02
 2.600000000E+00 -1.000000000E+00 1.569504510E-02
 2.650000000E+00 -1.000000000E+00 1.560270411E-02
 2.700000000E+00 -1.000000000E+00 1.552098620E-02
 2.750000000E+00 -1.000000000E+00 1.542278827E-02
 2.800000000E+00 -1.000000000E+00 1.534896458E-02
 2.850000000E+00 -1.000000000E+00 1.530173401E-02
 2.900000000E+00 -1.000000000E+00 1.514855341E-02
 2.950000000E+00 -1.000000000E+00 1.509466142E-02
 3.000000000E+00 -1.000000000E+00 1.493377064E-02
 3.050000000E+00 -1.000000000E+00 1.479331034E-02
 3.100000000E+00 -1.000000000E+00 1.453780999E-02
 3.150000000E+00 -1.000000000E+00 1.427312304E-02
 3.200000000E+00 -1.000000000E+00 1.382315635E-02
 3.250000000E+00 -1.000000000E+00 1.332278385E-02
 3.300000000E+00 -1.000000000E+00 1.256273967E-02
 3.350000000E+00 -1.000000000E+00 1.152574547E-02
 3.400000000E+00 -1.000000000E+00 9.838637627E-03
 3.450000000E+00 -1.000000000E+00 7.107303331E-03
 3.500000000E+00 -9.500000000E-01 3.353569438E-03
 3.500000000E+00 -9.000000000E-01 5.076072136E-03
 3.500000000E+00 -8.500000000E-01 6.413481766E-03
 3.500000000E+00 -8.000000000E-01 7.816768045E-03
 3.500000000E+00 -7.500000000E-01 9.117189807E-03
 3.500000000E+00 -7.000000000E-01 1.032879474E-02
 3.500000000E+00 -6.500000000E-01 1.175896946E-02
 3.500000000E+00 -6.000000000E-01 1.338684633E-02
 3.500000000E+00 -5.500000000E-01 1.520867694E-02
 3.500000000E+00 -5.000000000E-01 1.730013237E-02
 3.500000000E+00 -4.500000000E-01 1.945784725E-02
 3.500000000E+00 -4.000000000E-01 2.184345537E-02
 3.500000000E+00 -3.500000000E-01 2.434888036E-02
 3.500000000E+00 -3.000000000E-01 2.685623996E-02
 3.500000000E+00 -2.500000000E-01 2.895949793E-02
 3.500000000E+00 -2.000000000E-01 3.048276042E-02
 3.500000000E+00 -1.500000000E-01 3.119529724E-02
 3.500000000E+00 -1.000000000E-01 3.107442207E-02
 3.500000000E+00 -5.000000000E-02 3.072343944E-02
 3.500000000E+00 -2.752242878E-12 3.044865761E-02
 3.500000000E+00 5.000000000E-02 3.015636552E-02
 3.500000000E+00 1.000000000E-01 2.977549303E-02
 3.500000000E+00 1.500000000E-01 2.883292473E-02
 3.500000000E+00 2.000000000E-01 2.691912345E-02
 3.500000000E+00 2.500000000E-01 2.438366893E-02
 3.500000000E+00 3.000000000E-01 2.166040678E-02
 3.500000000E+00 3.500000000E-01 1.886034042E-02
 3.500000000E+00 4.000000000E-01 1.618394719E-02
 3.500000000E+00 4.500000000E-01 1.374316194E-02
 3.500000000E+00 5.000000000E-01 1.142142922E-02
 3.500000000E+00 5.500000000E-01 9.468170574E-03
 3.500000000E+00 6.000000000E-01 7.838551960E-03
 3.500000000E+00 6.500000000E-01 6.872701324E-03
 3.500000000E+00 7.000000000E-01 6.237533432E-03
 3.500000000E+00 7.500000000E-01 5.461169488E-03
 3.500000000E+00 8.000000000E-01 3.799556788E-03
 3.500000000E+00 8.500000000E-01 1.062817851E-04
 3.500000000E+00 9.000000000E-01 -4.778746316E-03
 3.500000000E+00 9.500000000E-01 -1.104743247E-02
 3.450000000E+00 1.000000000E+00 -4.745933637E-03
 3.400000000E+00 1.000000000E+00 5.381468972E-04
 3.350000000E+00 1.000000000E+00 3.119313511E-03
 3.300000000E+00 1.000000000E+00 4.223707150E-03
 3.250000000E+00 1.000000000E+00 5.085276821E-03
 3.200000000E+00 1.000000000E+00 5.303082618E-03
 3.150000000E+00 1.000000000E+00 5.568114241E-03
 3.100000000E+00 1.000000000E+00 5.454706545E-03
 3.050000000E+00 1.000000000E+00 5.369452608E-03
 3.000000000E+00 1.000000000E+00 5.009120015E-03
 2.950000000E+00 1.000000000E+00 4.673900450E-03
 2.900000000E+00 1.000000000E+00 4.267345267E-03
 2.850000000E+00 1.000000000E+00 3.693417339E-03
 2.800000000E+00 1.000000000E+00 3.296640326E-03
 2.750000000E+00 1.000000000E+00 2.718627077E-03
 2.700000000E+00 1.000000000E+00 2.121340810E-03
 2.650000000E+00 1.000000000E+00 1.360448106E-03
 2.600000000E+00 1.000000000E+00 6.644485101E-04
 2.550000000E+00 1.000000000E+00 -3.154455555E-05
 2.500000000E+00 1.000000000E+00 -9.400943537E-04
 2.450000000E+00 1.000000000E+00 -1.679059593E-03
 2.400000000E+00 1.000000000E+00 -2.622149882E-03
 2.350000000E+00 1.000000000E+00 -3.612079686E-03
 2.300000000E+00 1.000000000E+00 -4.628842331E-03
 2.250000000E+00 1.000000000E+00 -5.656760922E-03
 2.200000000E+00 1.000000000E+00 -6.817465843E-03
 2.150000000E+00 1.000000000E+00 -8.053432362E-03
 2.100000000E+00 1.000000000E+00 -9.419288921E-03
 2.050000000E+00 1.000000000E+00 -1.074004770E-02
 2.000000000E+00 1.000000000E+00 -1.238893516E-02
 1.950000000E+00 1.000000000E+00 -1.392837690E-02
 1.900000000E+00 1.000000000E+00 -1.571431956E-02
 1.850000000E+00 1.000000000E+00 -1.760814480E-02
 1.800000000E+00 1.000000000E+00 -1.970079588E-02
 1.750000000E+00 1.000000000E+00 -2.192064612E-02
 1.700000000E+00 1.000000000E+00 -2.441836230E-02
 1.650000000E+00 1.000000000E+00 -2.699399269E-02
 1.600000000E+00 1.000000000E+00 -2.989531725E-02
 1.550000000E+00 1.000000000E+00 -3.290845667E-02
 1.500000000E+00 1.000000000E+00 -3.620170981E-02
 1.450000000E+00 1.000000000E+00 -3.980573055E-02
 1.400000000E+00 1.000000000E+00 -4.349644096E-02
 1.350000000E+00 1.000000000E+00 -4.766128676E-02
 1.300000000E+00 1.000000000E+00 -5.184851428E-02
 1.250000000E+00 1.000000000E+00 -5.606528413E-02
 1.200000000E+00 1.000000000E+00 -6.109292350E-02
 1.150000000E+00 1.000000000E+00 -6.514413326E-02
 1.100000000E+00 1.000000000E+00 -7.015643073E-02
 1.050000000E+00 1.000000000E+00 -7.446649845E-02
 1.000000000E+00 1.000000000E+00 -7.854707015E-02
 9.500000000E-01 1.000000000E+00 -8.281765661E-02
 9.000000000E-01 1.000000000E+00 -8.590448078E-02
 8.500000000E-01 1.000000000E+00 -8.932291234E-02
 8.000000000E-01 1.000000000E+00 -9.137625263E-02
 7.500000000E-01 1.000000000E+00 -9.255219097E-02
 7.000000000E-01 1.000000000E+00 -9.313392707E-02
 6.500000000E-01 1.000000000E+00 -9.243904551E-02
 6.000000000E-01 1.000000000E+00 -9.085769744E-02
 5.500000000E-01 1.000000000E+00 -8.840109211E-02
 5.000000000E-01 1.000000000E+00 -8.471324988E-02
 4.500000000E-01 1.000000000E+00 -8.021389194E-02
 4.000000000E-01 1.000000000E+00 -7.499912994E-02
 3.500000000E-01 1.000000000E+00 -6.888939907E-02
 3.000000000E-01 1.000000000E+00 -6.243817066E-02
 2.500000000E-01 1.000000000E+00 -5.546235344E-02
 2.000000000E-01 1.000000000E+00 -4.838035959E-02
 1.500000000E-01 1.000000000E+00 -4.056507235E-02
 1.000000000E-01 1.000000000E+00 -3.403113714E-02
 5.000000000E-02 1.000000000E+00 -2.725619638E-02
 1.733724275E-12 1.000000000E+00 -2.084888133E-02
 -5.000000000E-02 1.000000000E+00 -1.506595565E-02
 -1.000000000E-01 1.000000000E+00 -9.911943849E-03
 -1.500000000E-01 1.000000000E+00 -5.530051713E-03
 -2.000000000E-01 1.000000000E+00 -1.753044875E-03
 -2.500000000E-01 1.000000000E+00 1.085802330E-03
 -3.000000000E-01 1.000000000E+00 3.126229608E-03
 -3.500000000E-01 1.000000000E+00 4.402909268E-03
 -4.000000000E-01 1.000000000E+00 4.778050920E-03
 -4.500000000E-01 1.000000000E+00 4.022710439E-03
 8.945066649E-01 -7.267627092E-03 2.687172514E-01
 8.113456147E-01 -1.579794515E-02 1.803424357E-01
 9.870180132E-01 -4.944471502E-03 2.364644104E-01
 7.436237335E-01 -2.579651360E-02 8.769558838E-02
 6.723468831E-01 -3.684645675E-02 -1.100862753E-02
 6.041484435E-01 -4.744027670E-02 -1.182123488E-01
 5.379909390E-01 -5.674409502E-02 -2.492274746E-01
 4.783279399E-01 -6.354830012E-02 -3.708898274E-01
 4.211638764E-01 -6.887845341E-02 -4.690031470E-01
 3.608829380E-01 -7.017163369E-02 -5.081179876E-01
 3.104389385E-01 -7.028607768E-02 -4.947760227E-01
 2.567228764E-01 -6.767012104E-02 -4.542424550E-01
 1.962621170E-01 -6.229381059E-02 -3.980860919E-01
 1.462713583E-01 -5.612134115E-02 -3.479228764E-01