TITLE     = "Visualization of the solution"
VARIABLES = "x"
"y"
"Pressure_Coefficient"
ZONE T="Zone"
 STRANDID=0, SOLUTIONTIME=0
 Nodes=11611, Elements=22644, ZONETYPE=FEQuadrilateral
 DATAPACKING=POINT
 DT=(DOUBLE DOUBLE DOUBLE )
 9.997344613E-01 5.251342081E-04 2.078840381E-01
 9.862784743E-01 2.920411294E-03 2.442429523E-01
 9.744437337E-01 5.059806164E-03 1.541343617E-01
 9.605554342E-01 7.481875364E-03 1.091961356E-01
 9.475436211E-01 9.825431742E-03 5.303949753E-02
 9.351742864E-01 1.196824200E-02 2.043105090E-02
 9.242403507E-01 1.384903584E-02 -6.990991427E-03
 9.119946361E-01 1.595809124E-02 -5.586806534E-02
 9.002593160E-01 1.782709174E-02 -7.030176746E-02
 8.879520893E-01 1.975146495E-02 -9.327098001E-02
 8.757184148E-01 2.159941941E-02 -1.168132932E-01
 8.637650013E-01 2.331412770E-02 -1.300151372E-01
 8.510103226E-01 2.506945096E-02 -1.388434963E-01
 8.392066956E-01 2.666395530E-02 -1.515237515E-01
 8.274627924E-01 2.821158245E-02 -1.686231204E-01
 8.141517043E-01 2.985734493E-02 -1.635410563E-01
 8.010654449E-01 3.151353449E-02 -1.840866635E-01
 7.890762687E-01 3.297484294E-02 -1.955175592E-01
 7.762209177E-01 3.449488431E-02 -2.005947789E-01
 7.639909387E-01 3.594398499E-02 -2.195501177E-01
 7.507290840E-01 3.744004667E-02 -2.250084271E-01
 7.365206480E-01 3.903105482E-02 -2.411018822E-01
 7.255529165E-01 4.022438452E-02 -2.515040812E-01
 7.142512798E-01 4.142617062E-02 -2.625266810E-01
 7.024076581E-01 4.265031964E-02 -2.717445543E-01
 6.886726618E-01 4.404278472E-02 -2.888719825E-01
 6.753590107E-01 4.532777518E-02 -2.999596874E-01
 6.650646925E-01 4.629362375E-02 -3.106834843E-01
 6.534649730E-01 4.734224826E-02 -3.212007822E-01
 6.426419616E-01 4.828717560E-02 -3.323274286E-01
 6.306017041E-01 4.929230735E-02 -3.467682080E-01
 6.194461584E-01 5.015664175E-02 -3.492081167E-01
 6.085963249E-01 5.097840726E-02 -3.610628744E-01
 5.959708095E-01 5.187841505E-02 -3.728681826E-01
 5.839802623E-01 5.267706513E-02 -3.852829259E-01
 5.703065991E-01 5.349133909E-02 -3.894126886E-01
 5.574929714E-01 5.420175567E-02 -3.991161210E-01
 5.447601676E-01 5.483910441E-02 -4.106868887E-01
 5.334591269E-01 5.532533675E-02 -4.117418359E-01
 5.214298964E-01 5.578508601E-02 -4.137206989E-01
 5.084256530E-01 5.622054264E-02 -4.221996633E-01
 4.974412620E-01 5.651600659E-02 -4.194748917E-01
 4.841679335E-01 5.682241544E-02 -4.284302121E-01
 4.710012972E-01 5.701388791E-02 -4.218505322E-01
 4.564577341E-01 5.715920031E-02 -4.232745337E-01
 4.423029721E-01 5.721073225E-02 -4.221075587E-01
 4.290318191E-01 5.718825385E-02 -4.232728306E-01
 4.156468213E-01 5.707350373E-02 -4.174510374E-01
 4.032621980E-01 5.691218376E-02 -4.158084050E-01
 3.906531036E-01 5.668004975E-02 -4.123217166E-01
 3.785787225E-01 5.640042201E-02 -4.103390098E-01
 3.676685393E-01 5.609184876E-02 -4.049702433E-01
 3.545240164E-01 5.565649644E-02 -3.987588590E-01
 3.426330686E-01 5.521431565E-02 -3.967312701E-01
 3.304722905E-01 5.469708517E-02 -3.914574401E-01
 3.201553226E-01 5.421645567E-02 -3.875354058E-01
 3.080209792E-01 5.359177664E-02 -3.805468547E-01
 2.951204777E-01 5.286872759E-02 -3.746848047E-01
 2.813159823E-01 5.202268809E-02 -3.686564895E-01
 2.685517073E-01 5.117214471E-02 -3.612391678E-01
 2.565825582E-01 5.032283813E-02 -3.562796144E-01
 2.440395355E-01 4.936965555E-02 -3.499152801E-01
 2.310884297E-01 4.831328243E-02 -3.424584295E-01
 2.188513130E-01 4.725073278E-02 -3.344210946E-01
 2.071741372E-01 4.618572816E-02 -3.297598832E-01
 1.959542036E-01 4.510163888E-02 -3.224492232E-01
 1.834786385E-01 4.382774234E-02 -3.152673004E-01
 1.716397703E-01 4.254912585E-02 -3.076779470E-01
 1.599297374E-01 4.121468589E-02 -2.987212574E-01
 1.479742825E-01 3.978851438E-02 -2.947846857E-01
 1.371103823E-01 3.841004148E-02 -2.858996253E-01
 1.258898228E-01 3.691204265E-02 -2.768277563E-01
 1.143343747E-01 3.528952971E-02 -2.719274323E-01
 1.037811786E-01 3.371339664E-02 -2.630135209E-01
 9.403979033E-02 3.218128905E-02 -2.554377296E-01
 8.284845948E-02 3.030778281E-02 -2.474421408E-01
 7.087171823E-02 2.814400196E-02 -2.390334753E-01
 6.108948588E-02 2.623903751E-02 -2.291644001E-01
 5.142269284E-02 2.419101633E-02 -2.186727930E-01
 4.251511022E-02 2.212414704E-02 -2.081634420E-01
 3.490397707E-02 2.018609829E-02 -1.988868578E-01
 2.837623470E-02 1.834768616E-02 -1.807121526E-01
 2.287400141E-02 1.662515290E-02 -1.684095415E-01
 1.895124838E-02 1.527409907E-02 -1.500733548E-01
 1.530771982E-02 1.389210206E-02 -1.361990060E-01
 1.277162135E-02 1.282840595E-02 -1.140178540E-01
 1.054779440E-02 1.181574166E-02 -9.205852161E-02
 8.886014111E-03 1.098319143E-02 -6.122408655E-02
 7.350190543E-03 1.015999261E-02 -4.863864570E-02
 5.930720828E-03 9.322171099E-03 1.377244892E-02
 4.050542600E-03 8.066095412E-03 8.925066215E-02
 2.418239368E-03 6.776290014E-03 1.842876247E-01
 9.664258687E-04 5.363922101E-03 3.904387012E-01
 -4.096095508E-04 3.517252160E-03 6.230060053E-01
 -1.122843474E-03 2.023773268E-03 8.133278223E-01
 -1.439098618E-03 8.470433531E-04 9.698318492E-01
 -1.559090335E-03 -6.248517311E-04 1.078073711E+00
 -1.298724907E-03 -2.417466603E-03 1.103773883E+00
 -5.171928206E-04 -4.427346867E-03 9.820352060E-01
 8.767901454E-04 -6.597372238E-03 7.835614203E-01
 2.947760280E-03 -8.899051696E-03 6.025737245E-01
 4.811905324E-03 -1.054979861E-02 4.175503441E-01
 7.041748613E-03 -1.224219054E-02 3.400085542E-01
 8.617275394E-03 -1.330843382E-02 2.432038464E-01
 1.062066201E-02 -1.454871055E-02 1.967470365E-01
 1.302094199E-02 -1.590263844E-02 1.331680263E-01
 1.625607163E-02 -1.755387522E-02 7.465533153E-02
 1.940842345E-02 -1.901138015E-02 1.339226522E-02
 2.346806787E-02 -2.072727121E-02 -2.954098499E-02
 2.895431034E-02 -2.280883491E-02 -7.489000028E-02
 3.468839079E-02 -2.477400564E-02 -1.197824572E-01
 4.210638627E-02 -2.705227211E-02 -1.481018577E-01
 4.962004349E-02 -2.913732454E-02 -1.775326601E-01
 5.838675797E-02 -3.135641292E-02 -1.975094320E-01
 6.707271188E-02 -3.336705640E-02 -2.208064483E-01
 7.750310749E-02 -3.557515144E-02 -2.335884081E-01
 8.737974614E-02 -3.750533983E-02 -2.473115317E-01
 9.787455201E-02 -3.941871598E-02 -2.636838207E-01
 1.087370962E-01 -4.125374556E-02 -2.737730224E-01
 1.203210726E-01 -4.308257252E-02 -2.853038583E-01
 1.316301078E-01 -4.475282133E-02 -2.965063049E-01
 1.420587152E-01 -4.620368034E-02 -3.098797824E-01
 1.530552655E-01 -4.763242602E-02 -3.160572264E-01
 1.648657024E-01 -4.908802733E-02 -3.291408573E-01
 1.765193641E-01 -5.042880401E-02 -3.390419493E-01
 1.882485151E-01 -5.169351026E-02 -3.500161734E-01
 1.986809224E-01 -5.275070667E-02 -3.618877117E-01
 2.098238915E-01 -5.379921198E-02 -3.690161474E-01
 2.220833451E-01 -5.488425866E-02 -3.837945951E-01
 2.343312204E-01 -5.587040260E-02 -3.944229258E-01
 2.464740127E-01 -5.674984679E-02 -4.010478758E-01
 2.592970729E-01 -5.760780349E-02 -4.180168427E-01
 2.704668939E-01 -5.824970827E-02 -4.224707062E-01
 2.833441794E-01 -5.892252922E-02 -4.398226234E-01
 2.958731353E-01 -5.944409221E-02 -4.430944354E-01
 3.087979257E-01 -5.989311263E-02 -4.562928044E-01
 3.203260601E-01 -6.017598510E-02 -4.583399404E-01
 3.327718973E-01 -6.039915606E-02 -4.694051257E-01
 3.432022035E-01 -6.047971919E-02 -4.700331695E-01
 3.544652164E-01 -6.049162894E-02 -4.780413503E-01
 3.654577434E-01 -6.037836522E-02 -4.697093805E-01
 3.761076927E-01 -6.021341309E-02 -4.818041414E-01
 3.873857558E-01 -5.990356579E-02 -4.735631502E-01
 3.997448683E-01 -5.944077298E-02 -4.662819542E-01
 4.116682410E-01 -5.885202810E-02 -4.477412269E-01
 4.251232147E-01 -5.810169503E-02 -4.480870509E-01
 4.377261102E-01 -5.720718950E-02 -4.209976628E-01
 4.507529140E-01 -5.617906898E-02 -4.060381095E-01
 4.631568193E-01 -5.506253242E-02 -3.807956286E-01
 4.757967591E-01 -5.382856727E-02 -3.623538775E-01
 4.873400629E-01 -5.257128924E-02 -3.278067172E-01
 4.997399151E-01 -5.117626488E-02 -3.091007750E-01
 5.132421255E-01 -4.954539612E-02 -2.770431503E-01
 5.270983577E-01 -4.778260738E-02 -2.465920020E-01
 5.403258204E-01 -4.603645578E-02 -2.193832104E-01
 5.543367267E-01 -4.412527010E-02 -1.913449558E-01
 5.669684410E-01 -4.233041033E-02 -1.573267031E-01
 5.803588033E-01 -4.043778405E-02 -1.378396379E-01
 5.926458836E-01 -3.866788745E-02 -1.147938175E-01
 6.048431396E-01 -3.688392416E-02 -9.142122598E-02
 6.179897189E-01 -3.496313095E-02 -7.079604254E-02
 6.321731210E-01 -3.285519034E-02 -4.144945000E-02
 6.459707022E-01 -3.085226379E-02 -2.786431992E-02
 6.593232751E-01 -2.886410803E-02 2.303313603E-03
 6.729758382E-01 -2.688558772E-02 1.798639930E-02
 6.858493090E-01 -2.504215576E-02 3.400423364E-02
 6.983942389E-01 -2.326332591E-02 4.841938162E-02
 7.132006884E-01 -2.116489597E-02 6.876079294E-02
 7.260172367E-01 -1.934155077E-02 9.472187388E-02
 7.378544807E-01 -1.776276343E-02 9.676824792E-02
 7.500710487E-01 -1.610117219E-02 1.190150700E-01
 7.630736828E-01 -1.439625770E-02 1.301597273E-01
 7.758186460E-01 -1.274689101E-02 1.468048108E-01
 7.877468467E-01 -1.123204269E-02 1.638801780E-01
 8.000588417E-01 -9.707579389E-03 1.827281830E-01
 8.114618659E-01 -8.390471339E-03 1.895587724E-01
 8.227686286E-01 -7.102446165E-03 2.079234390E-01
 8.352231383E-01 -5.789377727E-03 2.155670324E-01
 8.473049402E-01 -4.553393926E-03 2.338800900E-01
 8.594774008E-01 -3.425776027E-03 2.426055629E-01
 8.712226748E-01 -2.412655856E-03 2.566711540E-01
 8.834822774E-01 -1.485969056E-03 2.636222151E-01
 8.967154622E-01 -6.226329715E-04 2.695974386E-01
 9.064103365E-01 -6.856270920E-05 2.789199753E-01
 9.167268276E-01 3.878009156E-04 2.769644952E-01
 9.260566235E-01 7.256946410E-04 2.782875283E-01
 9.352640510E-01 9.720320231E-04 2.791138690E-01
 9.477559328E-01 1.184052206E-03 2.740556018E-01
 9.619378448E-01 1.253257506E-03 2.665132768E-01
 9.770038128E-01 1.137866755E-03 2.572608415E-01
 9.899828434E-01 8.703910862E-04 2.805566460E-01
 -5.000000000E-01 -1.000000000E+00 8.328844699E-03
 3.500000000E+00 -1.000000000E+00 4.297092263E-03
 3.500000000E+00 1.000000000E+00 -1.025024059E-02
 -5.000000000E-01 1.000000000E+00 2.360480553E-03
 9.930064678E-01 1.722772751E-03 3.083897172E-01
 9.803611040E-01 3.990108729E-03 1.869157950E-01
 9.674995840E-01 6.270840764E-03 1.325501030E-01
 9.540495276E-01 8.653653553E-03 7.695210092E-02
 9.413589537E-01 1.089683687E-02 3.687708038E-02
 9.297073185E-01 1.290863892E-02 7.885201858E-03
 9.181174934E-01 1.490356354E-02 -3.639989615E-02
 9.061269760E-01 1.689259149E-02 -6.115204947E-02
 8.941057026E-01 1.878927834E-02 -8.198731101E-02
 8.818352520E-01 2.067544218E-02 -1.068370485E-01
 8.697417080E-01 2.245677356E-02 -1.239062753E-01
 8.573876619E-01 2.419178933E-02 -1.329828139E-01
 8.451085091E-01 2.586670313E-02 -1.451605142E-01
 8.333347440E-01 2.743776888E-02 -1.632797046E-01
 8.208072484E-01 2.903446369E-02 -1.620085686E-01
 8.076085746E-01 3.068543971E-02 -1.754853667E-01
 7.950708568E-01 3.224418871E-02 -1.904995153E-01
 7.826485932E-01 3.373486362E-02 -1.961033514E-01
 7.701059282E-01 3.521943465E-02 -2.126354481E-01
 7.573600113E-01 3.669201583E-02 -2.208692486E-01
 7.436248660E-01 3.823555075E-02 -2.330406981E-01
 7.310367823E-01 3.962771967E-02 -2.464080832E-01
 7.199020982E-01 4.082527757E-02 -2.572214310E-01
 7.083294690E-01 4.203824513E-02 -2.666612652E-01
 6.955401599E-01 4.334655218E-02 -2.813402505E-01
 6.820158362E-01 4.468527995E-02 -2.934380152E-01
 6.702118516E-01 4.581069946E-02 -3.059061914E-01
 6.592648327E-01 4.681793600E-02 -3.155069763E-01
 6.480534673E-01 4.781471193E-02 -3.274506998E-01
 6.366218328E-01 4.878974147E-02 -3.406401868E-01
 6.250239313E-01 4.972447455E-02 -3.461697251E-01
 6.140212417E-01 5.056752451E-02 -3.562597987E-01
 6.022835672E-01 5.142841116E-02 -3.668830610E-01
 5.899755359E-01 5.227774009E-02 -3.813559879E-01
 5.771434307E-01 5.308420211E-02 -3.860225736E-01
 5.638997853E-01 5.384654738E-02 -3.945376557E-01
 5.511265695E-01 5.452043004E-02 -4.053969194E-01
 5.391096473E-01 5.508222058E-02 -4.109212254E-01
 5.274445117E-01 5.555521138E-02 -4.126527055E-01
 5.149277747E-01 5.600281432E-02 -4.178527067E-01
 5.029334575E-01 5.636827461E-02 -4.206559900E-01
 4.908045977E-01 5.666921102E-02 -4.261439087E-01
 4.775846154E-01 5.691815168E-02 -4.245071289E-01
 4.637295157E-01 5.708654411E-02 -4.228198536E-01
 4.493803531E-01 5.718496628E-02 -4.218883181E-01
 4.356673956E-01 5.719949305E-02 -4.237753879E-01
 4.223393202E-01 5.713087879E-02 -4.191085191E-01
 4.094545096E-01 5.699284375E-02 -4.170414815E-01
 3.969576508E-01 5.679611675E-02 -4.136800492E-01
 3.846159130E-01 5.654023588E-02 -4.109699953E-01
 3.731236309E-01 5.624613538E-02 -4.087059386E-01
 3.610962778E-01 5.587417260E-02 -4.006676429E-01
 3.485785425E-01 5.543540604E-02 -3.986643891E-01
 3.365526795E-01 5.495570041E-02 -3.928574276E-01
 3.253138065E-01 5.445677042E-02 -3.908466347E-01
 3.140881509E-01 5.390411615E-02 -3.842345616E-01
 3.015707284E-01 5.323025212E-02 -3.783633146E-01
 2.882182300E-01 5.244570784E-02 -3.714138572E-01
 2.749338448E-01 5.159741640E-02 -3.641366203E-01
 2.625671327E-01 5.074749142E-02 -3.590955149E-01
 2.503110468E-01 4.984624684E-02 -3.536243709E-01
 2.375639826E-01 4.884146899E-02 -3.459578021E-01
 2.249698713E-01 4.778200760E-02 -3.375898292E-01
 2.130127251E-01 4.671823047E-02 -3.322154785E-01
 2.015641704E-01 4.564368352E-02 -3.269308210E-01
 1.897164211E-01 4.446469061E-02 -3.187714584E-01
 1.775592044E-01 4.318843409E-02 -3.114908669E-01
 1.657847539E-01 4.188190587E-02 -3.029923642E-01
 1.539520100E-01 4.050160013E-02 -2.970437468E-01
 1.425423324E-01 3.909927793E-02 -2.908013299E-01
 1.315001026E-01 3.766104206E-02 -2.817425222E-01
 1.201120988E-01 3.610078618E-02 -2.745480856E-01
 1.090577766E-01 3.450146317E-02 -2.683131560E-01
 8.844412491E-02 3.124453593E-02 -2.543836562E-01
 7.686008886E-02 2.922589239E-02 -2.429441892E-01
 7.228790969E-02 -3.447110392E-02 -2.302662644E-01
 9.262714908E-02 -3.846202791E-02 -2.580715269E-01
 1.033058241E-01 -4.033623077E-02 -2.694966434E-01
 1.145290844E-01 -4.216815904E-02 -2.793715770E-01
 1.259755902E-01 -4.391769692E-02 -2.920472423E-01
 1.368444115E-01 -4.547825083E-02 -3.040954977E-01
 1.475569904E-01 -4.691805318E-02 -3.134138752E-01
 1.589604840E-01 -4.836022668E-02 -3.213824342E-01
 1.706925333E-01 -4.975841567E-02 -3.349559857E-01
 1.823839396E-01 -5.106115714E-02 -3.448246795E-01
 1.934647188E-01 -5.222210847E-02 -3.569223546E-01
 2.042524070E-01 -5.327495933E-02 -3.652618313E-01
 2.159536183E-01 -5.434173532E-02 -3.745250633E-01
 2.282072827E-01 -5.537733063E-02 -3.895283369E-01
 2.404026166E-01 -5.631012470E-02 -3.986920640E-01
 2.528855428E-01 -5.717882514E-02 -4.075568509E-01
 2.648819834E-01 -5.792875588E-02 -4.233652187E-01
 2.769055367E-01 -5.858611874E-02 -4.276772587E-01
 2.896086574E-01 -5.918331072E-02 -4.437261114E-01
 3.023355305E-01 -5.966860242E-02 -4.477927156E-01
 3.145619929E-01 -6.003454886E-02 -4.602916987E-01
 3.265489787E-01 -6.028757058E-02 -4.613616285E-01
 3.379870504E-01 -6.043943763E-02 -4.731956274E-01
 3.488337100E-01 -6.048567407E-02 -4.716422545E-01
 3.599614799E-01 -6.043499708E-02 -4.769338687E-01
 3.707827181E-01 -6.029588915E-02 -4.725412504E-01
 3.817467242E-01 -6.005848944E-02 -4.790465389E-01
 3.935653120E-01 -5.967216939E-02 -4.686618779E-01
 4.057065547E-01 -5.914640054E-02 -4.596909111E-01
 4.183957279E-01 -5.847686157E-02 -4.433154431E-01
 4.314246625E-01 -5.765444227E-02 -4.396361654E-01
 4.442395121E-01 -5.669312924E-02 -4.113949044E-01
 4.569548666E-01 -5.562080070E-02 -3.956022347E-01
 4.694767892E-01 -5.444554985E-02 -3.708600185E-01
 4.815684110E-01 -5.319992825E-02 -3.489654730E-01
 4.935399890E-01 -5.187377706E-02 -3.160618796E-01
 5.064910203E-01 -5.036083050E-02 -2.937235271E-01
 5.201702416E-01 -4.866400175E-02 -2.622992776E-01
 5.337120891E-01 -4.690953158E-02 -2.329208349E-01
 5.473312736E-01 -4.508086294E-02 -2.056985554E-01
 5.606525838E-01 -4.322784021E-02 -1.769274815E-01
 5.736636221E-01 -4.138409719E-02 -1.458719226E-01
 5.865023434E-01 -3.955283575E-02 -1.266174202E-01
 5.987445116E-01 -3.777590580E-02 -1.040150636E-01
 6.114164293E-01 -3.592352755E-02 -8.013842672E-02
 6.250814199E-01 -3.390916064E-02 -5.736540627E-02
 6.390719116E-01 -3.185372707E-02 -3.236285147E-02
 6.526469886E-01 -2.985818591E-02 -1.573365360E-02
 6.661495566E-01 -2.787484787E-02 1.114912513E-02
 6.794125736E-01 -2.596387174E-02 2.665526800E-02
 6.921217740E-01 -2.415274084E-02 4.146459439E-02
 7.057974637E-01 -2.221411094E-02 5.769294780E-02
 7.196089625E-01 -2.025322337E-02 7.987030125E-02
 7.319358587E-01 -1.855215710E-02 9.975480432E-02
 7.439627647E-01 -1.693196781E-02 1.052202755E-01
 7.565723658E-01 -1.524871495E-02 1.252430055E-01
 7.694461644E-01 -1.357157435E-02 1.381321010E-01
 7.817827463E-01 -1.198946685E-02 1.549579796E-01
 7.939028442E-01 -1.046981104E-02 1.719282080E-01
 8.057603538E-01 -9.049025364E-03 1.882684940E-01
 8.171152472E-01 -7.746458752E-03 1.970034211E-01
 8.289958835E-01 -6.445911946E-03 2.122512225E-01
 8.412640393E-01 -5.171385827E-03 2.231727431E-01
 8.533911705E-01 -3.989584977E-03 2.389078853E-01
 8.653500378E-01 -2.919215942E-03 2.487433478E-01
 8.773524761E-01 -1.949312456E-03 2.601788542E-01
 8.900988698E-01 -1.054301014E-03 2.672728737E-01
 9.115685821E-01 1.596191032E-04 2.829931100E-01
 9.415099919E-01 1.078042114E-03 2.743288841E-01
 9.548468888E-01 1.218654856E-03 2.694031184E-01
 9.694708288E-01 1.195562130E-03 2.601753066E-01
 9.834933281E-01 1.004128921E-03 2.420393579E-01
 -5.000000000E-01 9.500000000E-01 3.355914893E-03
 -5.000000000E-01 9.000000000E-01 4.871846367E-03
 -5.000000000E-01 8.500000000E-01 6.406830996E-03
 -5.000000000E-01 8.000000000E-01 8.351396159E-03
 -5.000000000E-01 7.500000000E-01 1.077143445E-02
 -5.000000000E-01 7.000000000E-01 1.378570150E-02
 -5.000000000E-01 6.500000000E-01 1.736761690E-02
 -5.000000000E-01 6.000000000E-01 2.164885485E-02
 -5.000000000E-01 5.500000000E-01 2.656618626E-02
 -5.000000000E-01 5.000000000E-01 3.216452031E-02
 -5.000000000E-01 4.500000000E-01 3.843306594E-02
 -5.000000000E-01 4.000000000E-01 4.507271980E-02
 -5.000000000E-01 3.500000000E-01 5.227294507E-02
 -5.000000000E-01 3.000000000E-01 5.955594405E-02
 -5.000000000E-01 2.500000000E-01 6.679502322E-02
 -5.000000000E-01 2.000000000E-01 7.369083241E-02
 -5.000000000E-01 1.500000000E-01 7.982511254E-02
 -5.000000000E-01 1.000000000E-01 8.479524258E-02
 -5.000000000E-01 5.000000000E-02 8.846212308E-02
 -5.000000000E-01 2.752242878E-12 9.038076162E-02
 -5.000000000E-01 -5.000000000E-02 9.060507065E-02
 -5.000000000E-01 -1.000000000E-01 8.910569756E-02
 -5.000000000E-01 -1.500000000E-01 8.599929553E-02
 -5.000000000E-01 -2.000000000E-01 8.161189604E-02
 -5.000000000E-01 -2.500000000E-01 7.634599301E-02
 -5.000000000E-01 -3.000000000E-01 7.044481502E-02
 -5.000000000E-01 -3.500000000E-01 6.427105727E-02
 -5.000000000E-01 -4.000000000E-01 5.803843965E-02
 -5.000000000E-01 -4.500000000E-01 5.205740883E-02
 -5.000000000E-01 -5.000000000E-01 4.636784236E-02
 -5.000000000E-01 -5.500000000E-01 4.107382249E-02
 -5.000000000E-01 -6.000000000E-01 3.629145645E-02
 -5.000000000E-01 -6.500000000E-01 3.196632265E-02
 -5.000000000E-01 -7.000000000E-01 2.808350457E-02
 -5.000000000E-01 -7.500000000E-01 2.463462961E-02
 -5.000000000E-01 -8.000000000E-01 2.150544608E-02
 -5.000000000E-01 -8.500000000E-01 1.854977634E-02
 -5.000000000E-01 -9.000000000E-01 1.560021114E-02
 -5.000000000E-01 -9.500000000E-01 1.147526687E-02
 -4.500000000E-01 -1.000000000E+00 1.036653259E-02
 -4.000000000E-01 -1.000000000E+00 1.326297087E-02
 -3.500000000E-01 -1.000000000E+00 1.431840091E-02
 -3.000000000E-01 -1.000000000E+00 1.446066557E-02
 -2.500000000E-01 -1.000000000E+00 1.386099722E-02
 -2.000000000E-01 -1.000000000E+00 1.262278255E-02
 -1.500000000E-01 -1.000000000E+00 1.061451281E-02
 -1.000000000E-01 -1.000000000E+00 8.038993009E-03
 -5.000000000E-02 -1.000000000E+00 4.956815142E-03
 -9.424683256E-13 -1.000000000E+00 1.402674634E-03
 5.000000000E-02 -1.000000000E+00 -2.465191945E-03
 1.000000000E-01 -1.000000000E+00 -6.491710805E-03
 1.500000000E-01 -1.000000000E+00 -1.056046892E-02
 2.000000000E-01 -1.000000000E+00 -1.452476126E-02
 2.500000000E-01 -1.000000000E+00 -1.826561435E-02
 3.000000000E-01 -1.000000000E+00 -2.159058898E-02
 3.500000000E-01 -1.000000000E+00 -2.422860672E-02
 4.000000000E-01 -1.000000000E+00 -2.616479387E-02
 4.500000000E-01 -1.000000000E+00 -2.748155724E-02
 5.000000000E-01 -1.000000000E+00 -2.790311672E-02
 5.500000000E-01 -1.000000000E+00 -2.761058875E-02
 6.000000000E-01 -1.000000000E+00 -2.648950622E-02
 6.500000000E-01 -1.000000000E+00 -2.466943329E-02
 7.000000000E-01 -1.000000000E+00 -2.233790636E-02
 7.500000000E-01 -1.000000000E+00 -1.943797171E-02
 8.000000000E-01 -1.000000000E+00 -1.616283948E-02
 8.500000000E-01 -1.000000000E+00 -1.272490427E-02
 9.000000000E-01 -1.000000000E+00 -9.124758027E-03
 9.500000000E-01 -1.000000000E+00 -5.586937624E-03
 1.000000000E+00 -1.000000000E+00 -2.127430774E-03
 1.050000000E+00 -1.000000000E+00 1.147317295E-03
 1.100000000E+00 -1.000000000E+00 4.141937319E-03
 1.150000000E+00 -1.000000000E+00 6.862785100E-03
 1.200000000E+00 -1.000000000E+00 9.279979338E-03
 1.250000000E+00 -1.000000000E+00 1.141380721E-02
 1.300000000E+00 -1.000000000E+00 1.318216550E-02
 1.350000000E+00 -1.000000000E+00 1.468036449E-02
 1.400000000E+00 -1.000000000E+00 1.587155070E-02
 1.450000000E+00 -1.000000000E+00 1.684255008E-02
 1.500000000E+00 -1.000000000E+00 1.762629333E-02
 1.550000000E+00 -1.000000000E+00 1.813233716E-02
 1.600000000E+00 -1.000000000E+00 1.853434134E-02
 1.650000000E+00 -1.000000000E+00 1.873047865E-02
 1.700000000E+00 -1.000000000E+00 1.884459399E-02
 1.750000000E+00 -1.000000000E+00 1.882052348E-02
 1.800000000E+00 -1.000000000E+00 1.878410552E-02
 1.850000000E+00 -1.000000000E+00 1.861224019E-02
 1.900000000E+00 -1.000000000E+00 1.846071507E-02
 1.950000000E+00 -1.000000000E+00 1.823489903E-02
 2.000000000E+00 -1.000000000E+00 1.801472783E-02
 2.050000000E+00 -1.000000000E+00 1.774161963E-02
 2.100000000E+00 -1.000000000E+00 1.747736689E-02
 2.150000000E+00 -1.000000000E+00 1.720004440E-02
 2.200000000E+00 -1.000000000E+00 1.693124584E-02
 2.250000000E+00 -1.000000000E+00 1.666180491E-02
 2.300000000E+00 -1.000000000E+00 1.641277367E-02
 2.350000000E+00 -1.000000000E+00 1.613571548E-02
 2.400000000E+00 -1.000000000E+00 1.597318923E-02
 2.450000000E+00 -1.000000000E+00 1.569868697E-02
 2.500000000E+00 -1.000000000E+00 1.557996525E-02
 2.550000000E+00 -1.000000000E+00 1.534838003E-02
 2.600000000E+00 -1.000000000E+00 1.516767530E-02
 2.650000000E+00 -1.000000000E+00 1.501852417E-02
 2.700000000E+00 -1.000000000E+00 1.490277920E-02
 2.750000000E+00 -1.000000000E+00 1.476054529E-02
 2.800000000E+00 -1.000000000E+00 1.465728595E-02
 2.850000000E+00 -1.000000000E+00 1.454791761E-02
 2.900000000E+00 -1.000000000E+00 1.440992515E-02
 2.950000000E+00 -1.000000000E+00 1.427791775E-02
 3.000000000E+00 -1.000000000E+00 1.412003156E-02
 3.050000000E+00 -1.000000000E+00 1.394237000E-02
 3.100000000E+00 -1.000000000E+00 1.370176913E-02
 3.150000000E+00 -1.000000000E+00 1.341669799E-02
 3.200000000E+00 -1.000000000E+00 1.303280311E-02
 3.250000000E+00 -1.000000000E+00 1.253073185E-02
 3.300000000E+00 -1.000000000E+00 1.182438240E-02
 3.350000000E+00 -1.000000000E+00 1.087365225E-02
 3.400000000E+00 -1.000000000E+00 9.392173114E-03
 3.450000000E+00 -1.000000000E+00 7.003941095E-03
 3.500000000E+00 -9.500000000E-01 3.602071764E-03
 3.500000000E+00 -9.000000000E-01 4.914492281E-03
 3.500000000E+00 -8.500000000E-01 6.152624010E-03
 3.500000000E+00 -8.000000000E-01 7.399315868E-03
 3.500000000E+00 -7.500000000E-01 8.534764419E-03
 3.500000000E+00 -7.000000000E-01 9.698348096E-03
 3.500000000E+00 -6.500000000E-01 1.098831485E-02
 3.500000000E+00 -6.000000000E-01 1.243157932E-02
 3.500000000E+00 -5.500000000E-01 1.408957645E-02
 3.500000000E+00 -5.000000000E-01 1.585684927E-02
 3.500000000E+00 -4.500000000E-01 1.781982521E-02
 3.500000000E+00 -4.000000000E-01 1.987507286E-02
 3.500000000E+00 -3.500000000E-01 2.210228176E-02
 3.500000000E+00 -3.000000000E-01 2.426918107E-02
 3.500000000E+00 -2.500000000E-01 2.615707775E-02
 3.500000000E+00 -2.000000000E-01 2.740104322E-02
 3.500000000E+00 -1.500000000E-01 2.808582165E-02
 3.500000000E+00 -1.000000000E-01 2.823603297E-02
 3.500000000E+00 -5.000000000E-02 2.794093455E-02
 3.500000000E+00 -2.752242878E-12 2.762888967E-02
 3.500000000E+00 5.000000000E-02 2.732415860E-02
 3.500000000E+00 1.000000000E-01 2.683251105E-02
 3.500000000E+00 1.500000000E-01 2.531354685E-02
 3.500000000E+00 2.000000000E-01 2.358463604E-02
 3.500000000E+00 2.500000000E-01 2.138885262E-02
 3.500000000E+00 3.000000000E-01 1.882384653E-02
 3.500000000E+00 3.500000000E-01 1.632787862E-02
 3.500000000E+00 4.000000000E-01 1.398570259E-02
 3.500000000E+00 4.500000000E-01 1.175165686E-02
 3.500000000E+00 5.000000000E-01 9.680931961E-03
 3.500000000E+00 5.500000000E-01 7.939664219E-03
 3.500000000E+00 6.000000000E-01 6.541155381E-03
 3.500000000E+00 6.500000000E-01 5.669512411E-03
 3.500000000E+00 7.000000000E-01 5.144331158E-03
 3.500000000E+00 7.500000000E-01 4.412578490E-03
 3.500000000E+00 8.000000000E-01 2.935473166E-03
 3.500000000E+00 8.500000000E-01 -3.164785370E-04
 3.500000000E+00 9.000000000E-01 -4.856028442E-03
 3.500000000E+00 9.500000000E-01 -1.021709828E-02
 3.450000000E+00 1.000000000E+00 -4.640218135E-03
 3.400000000E+00 1.000000000E+00 1.551392751E-04
 3.350000000E+00 1.000000000E+00 2.292787640E-03
 3.300000000E+00 1.000000000E+00 3.406927990E-03
 3.250000000E+00 1.000000000E+00 3.905649089E-03
 3.200000000E+00 1.000000000E+00 4.199773135E-03
 3.150000000E+00 1.000000000E+00 4.306451136E-03
 3.100000000E+00 1.000000000E+00 4.199526083E-03
 3.050000000E+00 1.000000000E+00 4.058138728E-03
 3.000000000E+00 1.000000000E+00 3.827695591E-03
 2.950000000E+00 1.000000000E+00 3.423009656E-03
 2.900000000E+00 1.000000000E+00 3.153605100E-03
 2.850000000E+00 1.000000000E+00 2.586813501E-03
 2.800000000E+00 1.000000000E+00 2.100385546E-03
 2.750000000E+00 1.000000000E+00 1.464629108E-03
 2.700000000E+00 1.000000000E+00 9.082679174E-04
 2.650000000E+00 1.000000000E+00 1.848929259E-04
 2.600000000E+00 1.000000000E+00 -4.412523655E-04
 2.550000000E+00 1.000000000E+00 -1.191403695E-03
 2.500000000E+00 1.000000000E+00 -2.035960195E-03
 2.450000000E+00 1.000000000E+00 -2.918415018E-03
 2.400000000E+00 1.000000000E+00 -3.767658902E-03
 2.350000000E+00 1.000000000E+00 -4.646508274E-03
 2.300000000E+00 1.000000000E+00 -5.529669407E-03
 2.250000000E+00 1.000000000E+00 -6.739216778E-03
 2.200000000E+00 1.000000000E+00 -7.797427909E-03
 2.150000000E+00 1.000000000E+00 -9.029180947E-03
 2.100000000E+00 1.000000000E+00 -1.030989521E-02
 2.050000000E+00 1.000000000E+00 -1.173087745E-02
 2.000000000E+00 1.000000000E+00 -1.320503272E-02
 1.950000000E+00 1.000000000E+00 -1.477108907E-02
 1.900000000E+00 1.000000000E+00 -1.652643678E-02
 1.850000000E+00 1.000000000E+00 -1.835302384E-02
 1.800000000E+00 1.000000000E+00 -2.039757592E-02
 1.750000000E+00 1.000000000E+00 -2.259621834E-02
 1.700000000E+00 1.000000000E+00 -2.494533784E-02
 1.650000000E+00 1.000000000E+00 -2.736657288E-02
 1.600000000E+00 1.000000000E+00 -3.006667339E-02
 1.550000000E+00 1.000000000E+00 -3.294962547E-02
 1.500000000E+00 1.000000000E+00 -3.615094263E-02
 1.450000000E+00 1.000000000E+00 -3.939249846E-02
 1.400000000E+00 1.000000000E+00 -4.302012941E-02
 1.350000000E+00 1.000000000E+00 -4.702938352E-02
 1.300000000E+00 1.000000000E+00 -5.079137196E-02
 1.250000000E+00 1.000000000E+00 -5.491860419E-02
 1.200000000E+00 1.000000000E+00 -5.913951731E-02
 1.150000000E+00 1.000000000E+00 -6.281271489E-02
 1.100000000E+00 1.000000000E+00 -6.779748186E-02
 1.050000000E+00 1.000000000E+00 -7.147802710E-02
 1.000000000E+00 1.000000000E+00 -7.531650832E-02
 9.500000000E-01 1.000000000E+00 -7.874174590E-02
 9.000000000E-01 1.000000000E+00 -8.213643150E-02
 8.500000000E-01 1.000000000E+00 -8.442971717E-02
 8.000000000E-01 1.000000000E+00 -8.641317408E-02
 7.500000000E-01 1.000000000E+00 -8.744446182E-02
 7.000000000E-01 1.000000000E+00 -8.770168254E-02
 6.500000000E-01 1.000000000E+00 -8.704243542E-02
 6.000000000E-01 1.000000000E+00 -8.544765651E-02
 5.500000000E-01 1.000000000E+00 -8.324463813E-02
 5.000000000E-01 1.000000000E+00 -7.939428221E-02
 4.500000000E-01 1.000000000E+00 -7.556122986E-02
 4.000000000E-01 1.000000000E+00 -7.011851325E-02
 3.500000000E-01 1.000000000E+00 -6.499621134E-02
 3.000000000E-01 1.000000000E+00 -5.872895025E-02
 2.500000000E-01 1.000000000E+00 -5.242306216E-02
 2.000000000E-01 1.000000000E+00 -4.581586476E-02
 1.500000000E-01 1.000000000E+00 -3.931018982E-02
 1.000000000E-01 1.000000000E+00 -3.265387034E-02
 5.000000000E-02 1.000000000E+00 -2.665456144E-02
 1.733724275E-12 1.000000000E+00 -2.061779343E-02
 -5.000000000E-02 1.000000000E+00 -1.539284662E-02
 -1.000000000E-01 1.000000000E+00 -1.066200556E-02
 -1.500000000E-01 1.000000000E+00 -6.528378469E-03
 -2.000000000E-01 1.000000000E+00 -3.191791193E-03
 -2.500000000E-01 1.000000000E+00 -4.973818957E-04
 -3.000000000E-01 1.000000000E+00 1.455924784E-03
 -3.500000000E-01 1.000000000E+00 2.728323043E-03
 -4.000000000E-01 1.000000000E+00 3.254791734E-03
 -4.500000000E-01 1.000000000E+00 2.838663033E-03
 1.977948339E+00 -9.558026733E-01 1.798060750E-02
 1.975550280E+00 9.566288245E-01 -1.318068153E-02
 9.145380613E-01 -3.727636316E-03 2.734711975E-01
 8.387696206E-01 -1.064452314E-02 2.160680395E-01
 7.670825023E-01 -2.025563436E-02 1.328387326E-01
 6.961671679E-01 -2.944760291E-02 4.424230127E-02
 9.869595464E-01 -4.802217311E-03 2.276207209E-01
 6.289652897E-01 -4.032400217E-02 -5.057367332E-02
 5.582718523E-01 -4.914624791E-02 -1.791577501E-01
 4.972440153E-01 -5.689431451E-02 -3.051633612E-01
 4.413641118E-01 -6.200088315E-02 -4.074724835E-01
 3.853708853E-01 -6.506732749E-02 -4.623031678E-01
 3.295716322E-01 -6.529589805E-02 -4.553957655E-01
 2.735943569E-01 -6.348836741E-02 -4.177873339E-01
 2.128945103E-01 -5.974102083E-02 -3.642995512E-01