TITLE     = "Visualization of the solution"
VARIABLES = "x"
"y"
"Pressure_Coefficient"
ZONE T="Zone"
 STRANDID=0, SOLUTIONTIME=0
 Nodes=11946, Elements=23311, ZONETYPE=FEQuadrilateral
 DATAPACKING=POINT
 DT=(DOUBLE DOUBLE DOUBLE )
 9.999411702E-01 5.149715580E-04 2.361466789E-01
 9.863617420E-01 3.083755262E-03 1.617258334E-01
 9.742046595E-01 5.486730486E-03 9.360468993E-02
 9.588796496E-01 8.400225081E-03 5.166907022E-02
 9.447352886E-01 1.109425072E-02 1.148214490E-02
 9.314638376E-01 1.358716190E-02 -2.162784084E-02
 9.198644757E-01 1.573295332E-02 -4.278878617E-02
 9.078190327E-01 1.798312925E-02 -8.004914424E-02
 8.961281180E-01 2.009738982E-02 -1.016530921E-01
 8.842304349E-01 2.223996818E-02 -1.426998909E-01
 8.716309071E-01 2.432908677E-02 -1.382534324E-01
 8.598668575E-01 2.634271048E-02 -1.779685798E-01
 8.471817374E-01 2.835149691E-02 -1.809854124E-01
 8.357613087E-01 3.015795164E-02 -2.011824192E-01
 8.240460753E-01 3.193405643E-02 -2.059403370E-01
 8.114984632E-01 3.382939845E-02 -2.249596863E-01
 7.985151410E-01 3.572606295E-02 -2.341774969E-01
 7.866154313E-01 3.745502234E-02 -2.514395564E-01
 7.743631005E-01 3.919648752E-02 -2.698683170E-01
 7.625558376E-01 4.081479460E-02 -2.805907383E-01
 7.495224476E-01 4.254988953E-02 -2.870358586E-01
 7.358937860E-01 4.436090216E-02 -3.106147967E-01
 7.251134515E-01 4.573646933E-02 -3.187337642E-01
 7.141525149E-01 4.712231830E-02 -3.356880633E-01
 7.026444674E-01 4.852921516E-02 -3.498156390E-01
 6.892321110E-01 5.010355636E-02 -3.621763237E-01
 6.762366891E-01 5.157591403E-02 -3.744965770E-01
 6.658515334E-01 5.272196606E-02 -3.868826103E-01
 6.545214653E-01 5.393749475E-02 -4.022152756E-01
 6.433680058E-01 5.508983135E-02 -4.194193199E-01
 6.314063072E-01 5.624673888E-02 -4.292732382E-01
 6.200422049E-01 5.728479102E-02 -4.331701473E-01
 6.094753146E-01 5.823031068E-02 -4.496194530E-01
 5.970045924E-01 5.926679820E-02 -4.598825134E-01
 5.851935744E-01 6.018534303E-02 -4.674499600E-01
 5.716720223E-01 6.117252260E-02 -4.836565060E-01
 5.588471293E-01 6.200418994E-02 -4.862663379E-01
 5.461873412E-01 6.276981533E-02 -4.993844410E-01
 5.349455476E-01 6.336824596E-02 -4.991917490E-01
 5.230461359E-01 6.395951658E-02 -5.114901157E-01
 5.100513101E-01 6.449838728E-02 -5.136353008E-01
 4.988711774E-01 6.489787251E-02 -5.145781199E-01
 4.854440987E-01 6.529792398E-02 -5.169058793E-01
 4.721228778E-01 6.560684741E-02 -5.173493875E-01
 4.577926099E-01 6.584163010E-02 -5.144979579E-01
 4.440224171E-01 6.599766761E-02 -5.204240796E-01
 4.309127033E-01 6.604459137E-02 -5.173524993E-01
 4.177216589E-01 6.600905210E-02 -5.131269395E-01
 4.052585661E-01 6.590712070E-02 -5.083585070E-01
 3.925627172E-01 6.574971229E-02 -5.137922854E-01
 3.802422881E-01 6.549198180E-02 -5.010720273E-01
 3.688257337E-01 6.522240490E-02 -5.005748997E-01
 3.554216921E-01 6.483113766E-02 -5.010711989E-01
 3.429436684E-01 6.437835097E-02 -4.931656023E-01
 3.301967382E-01 6.385452300E-02 -4.899815171E-01
 3.195117414E-01 6.336168945E-02 -4.877446824E-01
 3.069384694E-01 6.270019710E-02 -4.774541915E-01
 2.939323485E-01 6.195862591E-02 -4.756723597E-01
 2.800448835E-01 6.106673926E-02 -4.675585030E-01
 2.676413357E-01 6.020301953E-02 -4.644281391E-01
 2.557323575E-01 5.929174647E-02 -4.539167787E-01
 2.433714569E-01 5.829047412E-02 -4.514612379E-01
 2.308839709E-01 5.719172210E-02 -4.446624991E-01
 2.186017185E-01 5.602820218E-02 -4.380603496E-01
 2.068685442E-01 5.483195186E-02 -4.263031822E-01
 1.955231279E-01 5.361964926E-02 -4.224136413E-01
 1.833543628E-01 5.222630873E-02 -4.139847798E-01
 1.715595573E-01 5.078665540E-02 -4.055552028E-01
 1.601666063E-01 4.930709302E-02 -3.940059046E-01
 1.484342366E-01 4.770320281E-02 -3.894477739E-01
 1.378018260E-01 4.614769667E-02 -3.763070958E-01
 1.265391707E-01 4.441705719E-02 -3.698789960E-01
 1.152547002E-01 4.255466536E-02 -3.550590112E-01
 1.047224402E-01 4.072368890E-02 -3.460565694E-01
 9.507744014E-02 3.893289715E-02 -3.337386171E-01
 8.418408036E-02 3.677970544E-02 -3.207717285E-01
 7.249374688E-02 3.427850455E-02 -3.030303805E-01
 6.263054907E-02 3.200698644E-02 -2.892307377E-01
 5.298493803E-02 2.958660573E-02 -2.664463038E-01
 4.407776892E-02 2.714331076E-02 -2.466557062E-01
 3.646633029E-02 2.485615201E-02 -2.230373026E-01
 2.978857048E-02 2.266043238E-02 -1.979753119E-01
 2.415965497E-02 2.061866410E-02 -1.732782356E-01
 2.008368820E-02 1.899359748E-02 -1.414693896E-01
 1.621881127E-02 1.731937565E-02 -1.145196865E-01
 1.339625847E-02 1.597196609E-02 -7.769413346E-02
 1.084621903E-02 1.465191692E-02 -4.781723003E-02
 8.935170248E-03 1.356687211E-02 -1.177245318E-02
 7.247427944E-03 1.253134198E-02 1.296612289E-02
 5.687906872E-03 1.147859730E-02 9.251905253E-02
 3.646130906E-03 9.916954674E-03 1.841423631E-01
 1.900438918E-03 8.324109018E-03 2.843502135E-01
 4.230961204E-04 6.637071259E-03 5.115962372E-01
 -9.776315419E-04 4.355974030E-03 7.643810396E-01
 -1.611247542E-03 2.568491502E-03 9.398503992E-01
 -1.835106988E-03 1.146222465E-03 1.063971520E+00
 -1.796031254E-03 -5.328333355E-04 1.126845125E+00
 -1.379618654E-03 -2.404227154E-03 1.080567024E+00
 -4.226129386E-04 -4.584574606E-03 9.600556441E-01
 1.104289782E-03 -6.886740681E-03 7.552647013E-01
 3.230110276E-03 -9.265547618E-03 5.967445615E-01
 5.149054341E-03 -1.102380641E-02 4.539666806E-01
 7.393667940E-03 -1.279799454E-02 3.658736876E-01
 9.071918204E-03 -1.398915518E-02 2.763730752E-01
 1.115933061E-02 -1.534803025E-02 2.275587715E-01
 1.359338593E-02 -1.679312997E-02 1.582694581E-01
 1.691040397E-02 -1.857924834E-02 9.673126948E-02
 2.000465989E-02 -2.009338327E-02 3.457886451E-02
 2.400983311E-02 -2.188880555E-02 -6.933152576E-03
 2.936991118E-02 -2.405936643E-02 -5.728698516E-02
 3.510270640E-02 -2.615399845E-02 -1.030923842E-01
 4.225401580E-02 -2.851751819E-02 -1.362041957E-01
 4.974729195E-02 -3.074759804E-02 -1.726906799E-01
 5.856355280E-02 -3.312647715E-02 -1.925786918E-01
 6.728170812E-02 -3.527375683E-02 -2.167970230E-01
 7.753580064E-02 -3.759075329E-02 -2.336137180E-01
 8.724907041E-02 -3.959956765E-02 -2.465509336E-01
 9.762049466E-02 -4.160784930E-02 -2.651725666E-01
 1.085165441E-01 -4.355067015E-02 -2.740008796E-01
 1.198317334E-01 -4.543692246E-02 -2.879406713E-01
 1.313283145E-01 -4.721913859E-02 -2.986751954E-01
 1.417361647E-01 -4.873570427E-02 -3.112326535E-01
 1.527976245E-01 -5.024464428E-02 -3.204689956E-01
 1.646499485E-01 -5.176136270E-02 -3.318460638E-01
 1.761683524E-01 -5.313453078E-02 -3.414713214E-01
 1.878387928E-01 -5.444117263E-02 -3.544358654E-01
 1.982396394E-01 -5.551950261E-02 -3.625779719E-01
 2.093743384E-01 -5.660694093E-02 -3.761745907E-01
 2.214330882E-01 -5.767921358E-02 -3.821126114E-01
 2.336273044E-01 -5.867666379E-02 -3.931116319E-01
 2.457276434E-01 -5.957931280E-02 -4.053319017E-01
 2.581024766E-01 -6.039695814E-02 -4.138332421E-01
 2.691535950E-01 -6.105227768E-02 -4.277482378E-01
 2.817085087E-01 -6.167770922E-02 -4.314773669E-01
 2.940673530E-01 -6.219675392E-02 -4.403598886E-01
 3.067829609E-01 -6.262822449E-02 -4.518591223E-01
 3.182694912E-01 -6.289606541E-02 -4.533753915E-01
 3.307586014E-01 -6.308405101E-02 -4.572346128E-01
 3.414017260E-01 -6.315921247E-02 -4.655579798E-01
 3.528022766E-01 -6.312354654E-02 -4.639405900E-01
 3.636871874E-01 -6.298280507E-02 -4.594546896E-01
 3.744085133E-01 -6.275653839E-02 -4.565498692E-01
 3.859389424E-01 -6.242137030E-02 -4.566718018E-01
 3.987984359E-01 -6.188802421E-02 -4.416154378E-01
 4.110749364E-01 -6.125979125E-02 -4.319262360E-01
 4.242013693E-01 -6.044827029E-02 -4.151248836E-01
 4.368520081E-01 -5.954126269E-02 -4.012563136E-01
 4.494882822E-01 -5.848438665E-02 -3.730437172E-01
 4.617539942E-01 -5.737916380E-02 -3.586534162E-01
 4.742458761E-01 -5.612535775E-02 -3.322161224E-01
 4.860924184E-01 -5.483361334E-02 -3.032148453E-01
 4.987175167E-01 -5.340491235E-02 -2.858519137E-01
 5.123154521E-01 -5.171391368E-02 -2.428542472E-01
 5.261692405E-01 -4.995712638E-02 -2.194770664E-01
 5.394649506E-01 -4.822869971E-02 -2.015553844E-01
 5.528197885E-01 -4.636763036E-02 -1.629225245E-01
 5.660638809E-01 -4.451102018E-02 -1.409452724E-01
 5.793234706E-01 -4.259375483E-02 -1.096197570E-01
 5.918597579E-01 -4.078563675E-02 -9.094040377E-02
 6.045650840E-01 -3.893518448E-02 -7.103806341E-02
 6.181257367E-01 -3.691069782E-02 -4.127732183E-02
 6.325907111E-01 -3.478047997E-02 -2.259861131E-02
 6.468234062E-01 -3.265979886E-02 2.703260974E-03
 6.601815224E-01 -3.070162609E-02 1.696018735E-02
 6.737769842E-01 -2.866882831E-02 4.391928380E-02
 6.866624951E-01 -2.679510787E-02 5.533490609E-02
 6.990272403E-01 -2.497496270E-02 7.785811502E-02
 7.139636874E-01 -2.282113023E-02 9.448941859E-02
 7.269273996E-01 -2.094134688E-02 1.184835419E-01
 7.389222980E-01 -1.928271353E-02 1.245180426E-01
 7.516868711E-01 -1.747763157E-02 1.505829288E-01
 7.643999457E-01 -1.574828662E-02 1.646916664E-01
 7.777231932E-01 -1.399782021E-02 1.766052884E-01
 7.898945808E-01 -1.241154131E-02 1.948791306E-01
 8.027114868E-01 -1.078363415E-02 2.136961407E-01
 8.141517639E-01 -9.420957416E-03 2.193304935E-01
 8.251673579E-01 -8.085140027E-03 2.445324324E-01
 8.378781676E-01 -6.687536836E-03 2.493683722E-01
 8.498729467E-01 -5.377075169E-03 2.727784696E-01
 8.620022535E-01 -4.167578649E-03 2.855578779E-01
 8.733833432E-01 -3.128906945E-03 2.984541130E-01
 8.852465153E-01 -2.164548263E-03 3.072355593E-01
 8.981355429E-01 -1.237908029E-03 3.176648963E-01
 9.084141254E-01 -6.119532045E-04 3.242962028E-01
 9.185009599E-01 -8.066266309E-05 3.317966406E-01
 9.280586243E-01 3.200511273E-04 3.342790159E-01
 9.371493459E-01 6.171959685E-04 3.390627203E-01
 9.493975639E-01 8.855377673E-04 3.394817241E-01
 9.626476169E-01 1.020379481E-03 3.426767876E-01
 9.767829180E-01 9.859721176E-04 3.503146243E-01
 9.895190001E-01 7.963848184E-04 3.742619752E-01
 -5.000000000E-01 -1.000000000E+00 1.290108095E-02
 3.500000000E+00 -1.000000000E+00 7.674691819E-03
 3.500000000E+00 1.000000000E+00 -2.103173012E-02
 -5.000000000E-01 1.000000000E+00 -2.731370293E-04
 9.931514561E-01 1.799363410E-03 2.496471580E-01
 9.802832007E-01 4.285242874E-03 1.249304268E-01
 9.665421546E-01 6.943477783E-03 7.293759720E-02
 9.518074691E-01 9.747237898E-03 3.010874902E-02
 9.380995631E-01 1.234070631E-02 -5.855318343E-03
 9.256641567E-01 1.466005761E-02 -3.087076637E-02
 9.138417542E-01 1.685804129E-02 -6.417982521E-02
 9.019735754E-01 1.904025953E-02 -8.980000997E-02
 8.901792765E-01 2.116867900E-02 -1.280197309E-01
 8.779306710E-01 2.328452747E-02 -1.340846751E-01
 8.657488823E-01 2.533589862E-02 -1.646165759E-01
 8.535242975E-01 2.734710369E-02 -1.763035346E-01
 8.414715230E-01 2.925472427E-02 -1.930668533E-01
 8.299036920E-01 3.104600403E-02 -2.016485392E-01
 8.177722692E-01 3.288172744E-02 -2.172074712E-01
 8.050068021E-01 3.477773070E-02 -2.280382126E-01
 7.925652862E-01 3.659054264E-02 -2.432998810E-01
 7.804892659E-01 3.832575493E-02 -2.618373701E-01
 7.684594691E-01 4.000564106E-02 -2.755721712E-01
 7.560391426E-01 4.168234207E-02 -2.816933808E-01
 7.427081168E-01 4.345539585E-02 -2.999314310E-01
 7.305036187E-01 4.504868574E-02 -3.135547222E-01
 7.196329832E-01 4.642939381E-02 -3.280943440E-01
 7.083984911E-01 4.782576673E-02 -3.440369115E-01
 6.959382892E-01 4.931638576E-02 -3.557549071E-01
 6.827344000E-01 5.083973520E-02 -3.673596360E-01
 6.710441113E-01 5.214894004E-02 -3.808372225E-01
 6.601864994E-01 5.332973041E-02 -3.945985872E-01
 6.489447355E-01 5.451366305E-02 -4.129424964E-01
 6.373871565E-01 5.566828512E-02 -4.243561428E-01
 6.257242560E-01 5.676576495E-02 -4.289741750E-01
 6.147587597E-01 5.775755085E-02 -4.441512126E-01
 6.032399535E-01 5.874855444E-02 -4.543759122E-01
 5.910990834E-01 5.972607061E-02 -4.635800823E-01
 5.784327984E-01 6.067893282E-02 -4.770519115E-01
 5.652595758E-01 6.158835627E-02 -4.837029682E-01
 5.525172353E-01 6.238700263E-02 -4.932964593E-01
 5.405664444E-01 6.306903064E-02 -4.975885452E-01
 5.289958417E-01 6.366388127E-02 -5.082969851E-01
 5.165487230E-01 6.422895193E-02 -5.110686195E-01
 5.044612437E-01 6.469812989E-02 -5.152609276E-01
 4.921576381E-01 6.509789824E-02 -5.158229594E-01
 4.787834883E-01 6.545238569E-02 -5.180147517E-01
 4.649577439E-01 6.572423875E-02 -5.145843309E-01
 4.509075135E-01 6.591964886E-02 -5.185182731E-01
 4.374675602E-01 6.602112949E-02 -5.187761125E-01
 4.243171811E-01 6.602682173E-02 -5.143895683E-01
 4.114901125E-01 6.595808640E-02 -5.097405244E-01
 3.989106417E-01 6.582841650E-02 -5.133184038E-01
 3.864025027E-01 6.562084705E-02 -5.045879869E-01
 3.745340109E-01 6.535719335E-02 -5.024710051E-01
 3.621237129E-01 6.502677128E-02 -5.014922451E-01
 3.491826802E-01 6.460474432E-02 -4.963993530E-01
 3.365702033E-01 6.411643699E-02 -4.899868072E-01
 3.248542398E-01 6.360810623E-02 -4.910698168E-01
 3.132251054E-01 6.303094327E-02 -4.816342829E-01
 3.004354089E-01 6.232941151E-02 -4.783896070E-01
 2.869886160E-01 6.151268259E-02 -4.702367121E-01
 2.738431096E-01 6.063487940E-02 -4.664774670E-01
 2.616868466E-01 5.974738300E-02 -4.583624678E-01
 2.495519072E-01 5.879111029E-02 -4.536075284E-01
 2.371277139E-01 5.774109811E-02 -4.482055351E-01
 2.247428447E-01 5.660996214E-02 -4.415568726E-01
 2.127351314E-01 5.543007702E-02 -4.306598318E-01
 2.011958361E-01 5.422580056E-02 -4.260342843E-01
 1.894387454E-01 5.292297900E-02 -4.182404078E-01
 1.774569601E-01 5.150648206E-02 -4.097858925E-01
 1.658630818E-01 5.004687421E-02 -3.996636907E-01
 1.543004215E-01 4.850514792E-02 -3.919234975E-01
 1.431180313E-01 4.692544974E-02 -3.824603632E-01
 1.321704984E-01 4.528237693E-02 -3.744034587E-01
 1.208969355E-01 4.348586127E-02 -3.604897611E-01
 1.099885702E-01 4.163917713E-02 -3.552558116E-01
 8.963076025E-02 3.785630129E-02 -3.313767319E-01
 7.833891362E-02 3.552910499E-02 -3.096135352E-01
 6.756214797E-02 3.314274549E-02 -3.030078117E-01
 7.240875438E-02 -3.643225506E-02 -2.262781168E-01
 9.243478253E-02 -4.060370848E-02 -2.571961146E-01
 1.030685194E-01 -4.257925972E-02 -2.706194189E-01
 1.141741388E-01 -4.449379630E-02 -2.809332381E-01
 1.255800240E-01 -4.632803053E-02 -2.939137191E-01
 1.365322396E-01 -4.797742143E-02 -3.063940500E-01
 1.472668946E-01 -4.949017428E-02 -3.156619948E-01
 1.587237865E-01 -5.100300349E-02 -3.254883223E-01
 1.704091504E-01 -5.244794674E-02 -3.375911917E-01
 1.820035726E-01 -5.378785171E-02 -3.475532610E-01
 1.930392161E-01 -5.498033762E-02 -3.602468516E-01
 2.038069889E-01 -5.606322177E-02 -3.674697718E-01
 2.154037133E-01 -5.714307725E-02 -3.790301356E-01
 2.275301963E-01 -5.817793868E-02 -3.873705212E-01
 2.396774739E-01 -5.912798829E-02 -3.992408035E-01
 2.519150600E-01 -5.998813547E-02 -4.096645891E-01
 2.636280358E-01 -6.072461791E-02 -4.208205961E-01
 2.754310519E-01 -6.136499345E-02 -4.291457760E-01
 2.878879309E-01 -6.193723157E-02 -4.355765664E-01
 3.004251570E-01 -6.241248921E-02 -4.449598645E-01
 3.125262260E-01 -6.276214495E-02 -4.556625312E-01
 3.245140463E-01 -6.299005821E-02 -4.538714284E-01
 3.360801637E-01 -6.312163174E-02 -4.624797257E-01
 3.471020013E-01 -6.314137951E-02 -4.649245310E-01
 3.582447320E-01 -6.305317581E-02 -4.631436447E-01
 3.690478504E-01 -6.286967173E-02 -4.576200220E-01
 3.801737279E-01 -6.258895434E-02 -4.547552172E-01
 3.923686892E-01 -6.215469725E-02 -4.499395732E-01
 4.049366862E-01 -6.157390773E-02 -4.369069658E-01
 4.176381528E-01 -6.085403077E-02 -4.229692489E-01
 4.305266887E-01 -5.999476649E-02 -4.085787227E-01
 4.431701452E-01 -5.901282467E-02 -3.893297407E-01
 4.556211382E-01 -5.793177523E-02 -3.642846394E-01
 4.679999352E-01 -5.675226077E-02 -3.467619061E-01
 4.801691473E-01 -5.547948554E-02 -3.193861563E-01
 4.924049675E-01 -5.411926284E-02 -2.924878020E-01
 5.055164844E-01 -5.255941302E-02 -2.682088423E-01
 5.192423463E-01 -5.083552003E-02 -2.294481064E-01
 5.328170955E-01 -4.909291305E-02 -2.089575521E-01
 5.461423695E-01 -4.729816504E-02 -1.856968546E-01
 5.594418347E-01 -4.543932527E-02 -1.506592472E-01
 5.726936758E-01 -4.355238751E-02 -1.267528537E-01
 5.855916142E-01 -4.168969579E-02 -9.907676306E-02
 5.982124209E-01 -3.986041062E-02 -8.074878671E-02
 6.113454103E-01 -3.792294115E-02 -5.784535729E-02
 6.253582239E-01 -3.584558889E-02 -3.075065386E-02
 6.397070587E-01 -3.372013941E-02 -1.078105650E-02
 6.535024643E-01 -3.168071248E-02 1.140312163E-02
 6.669792533E-01 -2.968522720E-02 2.829650217E-02
 6.802197397E-01 -2.773196809E-02 5.162554487E-02
 6.928448677E-01 -2.588503528E-02 6.554618675E-02
 7.064954638E-01 -2.389804646E-02 8.614980416E-02
 7.204455435E-01 -2.188123856E-02 1.051565903E-01
 7.329248488E-01 -2.011203021E-02 1.245441187E-01
 7.453045845E-01 -1.838017255E-02 1.348656909E-01
 7.580434084E-01 -1.661295909E-02 1.584367736E-01
 7.710615695E-01 -1.487305341E-02 1.713222394E-01
 7.838088870E-01 -1.320468076E-02 1.851481736E-01
 7.963030338E-01 -1.159758773E-02 2.034376511E-01
 8.084316254E-01 -1.010229578E-02 2.190920177E-01
 8.196595609E-01 -8.753048722E-03 2.282333718E-01
 8.315227628E-01 -7.386338431E-03 2.486357763E-01
 8.438755572E-01 -6.032306002E-03 2.586948601E-01
 8.559376001E-01 -4.772326909E-03 2.793402913E-01
 8.676927984E-01 -3.648242797E-03 2.921325812E-01
 8.793149292E-01 -2.646727604E-03 3.026319525E-01
 8.916910291E-01 -1.701228146E-03 3.117035200E-01
 9.032748342E-01 -9.249306167E-04 3.232830967E-01
 9.134575427E-01 -3.463079338E-04 3.276348537E-01
 9.432734549E-01 7.513668679E-04 3.379027191E-01
 9.560225904E-01 9.529586241E-04 3.398670741E-01
 9.697152674E-01 1.003175799E-03 3.448677975E-01
 9.831509590E-01 8.911784680E-04 3.589599317E-01
 9.947300851E-01 6.556781882E-04 4.240167265E-01
 -5.000000000E-01 9.500000000E-01 -2.221642771E-04
 -5.000000000E-01 9.000000000E-01 2.077720087E-04
 -5.000000000E-01 8.500000000E-01 1.229441524E-03
 -5.000000000E-01 8.000000000E-01 2.942438767E-03
 -5.000000000E-01 7.500000000E-01 5.372373885E-03
 -5.000000000E-01 7.000000000E-01 8.532297233E-03
 -5.000000000E-01 6.500000000E-01 1.256774813E-02
 -5.000000000E-01 6.000000000E-01 1.739677895E-02
 -5.000000000E-01 5.500000000E-01 2.314846631E-02
 -5.000000000E-01 5.000000000E-01 2.966133698E-02
 -5.000000000E-01 4.500000000E-01 3.708915094E-02
 -5.000000000E-01 4.000000000E-01 4.516177125E-02
 -5.000000000E-01 3.500000000E-01 5.384927190E-02
 -5.000000000E-01 3.000000000E-01 6.273488944E-02
 -5.000000000E-01 2.500000000E-01 7.174705876E-02
 -5.000000000E-01 2.000000000E-01 8.042920260E-02
 -5.000000000E-01 1.500000000E-01 8.816351983E-02
 -5.000000000E-01 1.000000000E-01 9.480514265E-02
 -5.000000000E-01 5.000000000E-02 9.987673079E-02
 -5.000000000E-01 2.752242878E-12 1.030766035E-01
 -5.000000000E-01 -5.000000000E-02 1.043330264E-01
 -5.000000000E-01 -1.000000000E-01 1.035864198E-01
 -5.000000000E-01 -1.500000000E-01 1.010381049E-01
 -5.000000000E-01 -2.000000000E-01 9.690064659E-02
 -5.000000000E-01 -2.500000000E-01 9.186724463E-02
 -5.000000000E-01 -3.000000000E-01 8.578300312E-02
 -5.000000000E-01 -3.500000000E-01 7.951108889E-02
 -5.000000000E-01 -4.000000000E-01 7.299236415E-02
 -5.000000000E-01 -4.500000000E-01 6.664289924E-02
 -5.000000000E-01 -5.000000000E-01 6.053110866E-02
 -5.000000000E-01 -5.500000000E-01 5.476136755E-02
 -5.000000000E-01 -6.000000000E-01 4.945863743E-02
 -5.000000000E-01 -6.500000000E-01 4.454077556E-02
 -5.000000000E-01 -7.000000000E-01 4.005832005E-02
 -5.000000000E-01 -7.500000000E-01 3.588467867E-02
 -5.000000000E-01 -8.000000000E-01 3.191427968E-02
 -5.000000000E-01 -8.500000000E-01 2.804357440E-02
 -5.000000000E-01 -9.000000000E-01 2.377073402E-02
 -5.000000000E-01 -9.500000000E-01 1.765291332E-02
 -4.500000000E-01 -1.000000000E+00 1.613617957E-02
 -4.000000000E-01 -1.000000000E+00 2.087975751E-02
 -3.500000000E-01 -1.000000000E+00 2.296386039E-02
 -3.000000000E-01 -1.000000000E+00 2.385078043E-02
 -2.500000000E-01 -1.000000000E+00 2.398252670E-02
 -2.000000000E-01 -1.000000000E+00 2.328088125E-02
 -1.500000000E-01 -1.000000000E+00 2.180403191E-02
 -1.000000000E-01 -1.000000000E+00 1.977634315E-02
 -5.000000000E-02 -1.000000000E+00 1.709260921E-02
 -9.424683256E-13 -1.000000000E+00 1.401435785E-02
 5.000000000E-02 -1.000000000E+00 1.053771879E-02
 1.000000000E-01 -1.000000000E+00 6.769764584E-03
 1.500000000E-01 -1.000000000E+00 2.995159594E-03
 2.000000000E-01 -1.000000000E+00 -5.660873739E-04
 2.500000000E-01 -1.000000000E+00 -3.948636557E-03
 3.000000000E-01 -1.000000000E+00 -6.759372427E-03
 3.500000000E-01 -1.000000000E+00 -8.977778747E-03
 4.000000000E-01 -1.000000000E+00 -1.065080865E-02
 4.500000000E-01 -1.000000000E+00 -1.142200146E-02
 5.000000000E-01 -1.000000000E+00 -1.153017858E-02
 5.500000000E-01 -1.000000000E+00 -1.078073087E-02
 6.000000000E-01 -1.000000000E+00 -9.285285015E-03
 6.500000000E-01 -1.000000000E+00 -7.115761514E-03
 7.000000000E-01 -1.000000000E+00 -4.389547761E-03
 7.500000000E-01 -1.000000000E+00 -1.203884502E-03
 8.000000000E-01 -1.000000000E+00 2.276460740E-03
 8.500000000E-01 -1.000000000E+00 5.884112620E-03
 9.000000000E-01 -1.000000000E+00 9.506115499E-03
 9.500000000E-01 -1.000000000E+00 1.311314949E-02
 1.000000000E+00 -1.000000000E+00 1.648271778E-02
 1.050000000E+00 -1.000000000E+00 1.959554263E-02
 1.100000000E+00 -1.000000000E+00 2.237509194E-02
 1.150000000E+00 -1.000000000E+00 2.484864293E-02
 1.200000000E+00 -1.000000000E+00 2.693400020E-02
 1.250000000E+00 -1.000000000E+00 2.860564072E-02
 1.300000000E+00 -1.000000000E+00 2.997512678E-02
 1.350000000E+00 -1.000000000E+00 3.091717203E-02
 1.400000000E+00 -1.000000000E+00 3.171052566E-02
 1.450000000E+00 -1.000000000E+00 3.209336176E-02
 1.500000000E+00 -1.000000000E+00 3.237459984E-02
 1.550000000E+00 -1.000000000E+00 3.229820928E-02
 1.600000000E+00 -1.000000000E+00 3.217610785E-02
 1.650000000E+00 -1.000000000E+00 3.181735550E-02
 1.700000000E+00 -1.000000000E+00 3.137844242E-02
 1.750000000E+00 -1.000000000E+00 3.083818186E-02
 1.800000000E+00 -1.000000000E+00 3.027985970E-02
 1.850000000E+00 -1.000000000E+00 2.959922564E-02
 1.900000000E+00 -1.000000000E+00 2.898056621E-02
 1.950000000E+00 -1.000000000E+00 2.827822661E-02
 2.000000000E+00 -1.000000000E+00 2.757194099E-02
 2.050000000E+00 -1.000000000E+00 2.688158073E-02
 2.100000000E+00 -1.000000000E+00 2.621757909E-02
 2.150000000E+00 -1.000000000E+00 2.555919406E-02
 2.200000000E+00 -1.000000000E+00 2.490658139E-02
 2.250000000E+00 -1.000000000E+00 2.432388568E-02
 2.300000000E+00 -1.000000000E+00 2.371634180E-02
 2.350000000E+00 -1.000000000E+00 2.316464662E-02
 2.400000000E+00 -1.000000000E+00 2.268089608E-02
 2.450000000E+00 -1.000000000E+00 2.216334439E-02
 2.500000000E+00 -1.000000000E+00 2.176669688E-02
 2.550000000E+00 -1.000000000E+00 2.130511813E-02
 2.600000000E+00 -1.000000000E+00 2.096781433E-02
 2.650000000E+00 -1.000000000E+00 2.056737916E-02
 2.700000000E+00 -1.000000000E+00 2.029456247E-02
 2.750000000E+00 -1.000000000E+00 1.997907650E-02
 2.800000000E+00 -1.000000000E+00 1.971527802E-02
 2.850000000E+00 -1.000000000E+00 1.948862168E-02
 2.900000000E+00 -1.000000000E+00 1.922866878E-02
 2.950000000E+00 -1.000000000E+00 1.900139962E-02
 3.000000000E+00 -1.000000000E+00 1.879145458E-02
 3.050000000E+00 -1.000000000E+00 1.849610951E-02
 3.100000000E+00 -1.000000000E+00 1.819874003E-02
 3.150000000E+00 -1.000000000E+00 1.782786470E-02
 3.200000000E+00 -1.000000000E+00 1.733874431E-02
 3.250000000E+00 -1.000000000E+00 1.679890315E-02
 3.300000000E+00 -1.000000000E+00 1.602100512E-02
 3.350000000E+00 -1.000000000E+00 1.496158948E-02
 3.400000000E+00 -1.000000000E+00 1.328876391E-02
 3.450000000E+00 -1.000000000E+00 1.063405117E-02
 3.500000000E+00 -9.500000000E-01 6.892875797E-03
 3.500000000E+00 -9.000000000E-01 8.381958430E-03
 3.500000000E+00 -8.500000000E-01 9.629141884E-03
 3.500000000E+00 -8.000000000E-01 1.115085761E-02
 3.500000000E+00 -7.500000000E-01 1.249689217E-02
 3.500000000E+00 -7.000000000E-01 1.403380093E-02
 3.500000000E+00 -6.500000000E-01 1.564824503E-02
 3.500000000E+00 -6.000000000E-01 1.732031497E-02
 3.500000000E+00 -5.500000000E-01 1.917811402E-02
 3.500000000E+00 -5.000000000E-01 2.119005413E-02
 3.500000000E+00 -4.500000000E-01 2.329008446E-02
 3.500000000E+00 -4.000000000E-01 2.551848393E-02
 3.500000000E+00 -3.500000000E-01 2.782322099E-02
 3.500000000E+00 -3.000000000E-01 2.991451490E-02
 3.500000000E+00 -2.500000000E-01 3.168601293E-02
 3.500000000E+00 -2.000000000E-01 3.273936817E-02
 3.500000000E+00 -1.500000000E-01 3.301675016E-02
 3.500000000E+00 -1.000000000E-01 3.251976492E-02
 3.500000000E+00 -5.000000000E-02 3.190061395E-02
 3.500000000E+00 -2.752242878E-12 3.120898012E-02
 3.500000000E+00 5.000000000E-02 3.051467552E-02
 3.500000000E+00 1.000000000E-01 2.925661011E-02
 3.500000000E+00 1.500000000E-01 2.746532155E-02
 3.500000000E+00 2.000000000E-01 2.487923084E-02
 3.500000000E+00 2.500000000E-01 2.182624001E-02
 3.500000000E+00 3.000000000E-01 1.875617399E-02
 3.500000000E+00 3.500000000E-01 1.573616763E-02
 3.500000000E+00 4.000000000E-01 1.294619806E-02
 3.500000000E+00 4.500000000E-01 1.033523098E-02
 3.500000000E+00 5.000000000E-01 8.041887784E-03
 3.500000000E+00 5.500000000E-01 6.088833284E-03
 3.500000000E+00 6.000000000E-01 4.758536179E-03
 3.500000000E+00 6.500000000E-01 4.207505255E-03
 3.500000000E+00 7.000000000E-01 3.938811348E-03
 3.500000000E+00 7.500000000E-01 3.524211508E-03
 3.500000000E+00 8.000000000E-01 7.818325503E-04
 3.500000000E+00 8.500000000E-01 -5.019492407E-03
 3.500000000E+00 9.000000000E-01 -1.255460094E-02
 3.500000000E+00 9.500000000E-01 -2.114570397E-02
 3.450000000E+00 1.000000000E+00 -1.214936668E-02
 3.400000000E+00 1.000000000E+00 -4.908338304E-03
 3.350000000E+00 1.000000000E+00 -1.463303166E-03
 3.300000000E+00 1.000000000E+00 4.004326698E-05
 3.250000000E+00 1.000000000E+00 1.056133974E-03
 3.200000000E+00 1.000000000E+00 1.591564931E-03
 3.150000000E+00 1.000000000E+00 1.736359257E-03
 3.100000000E+00 1.000000000E+00 1.812361688E-03
 3.050000000E+00 1.000000000E+00 1.435983379E-03
 3.000000000E+00 1.000000000E+00 1.213336768E-03
 2.950000000E+00 1.000000000E+00 7.092650778E-04
 2.900000000E+00 1.000000000E+00 2.823775535E-04
 2.850000000E+00 1.000000000E+00 -4.934994999E-04
 2.800000000E+00 1.000000000E+00 -1.036971215E-03
 2.750000000E+00 1.000000000E+00 -1.970576506E-03
 2.700000000E+00 1.000000000E+00 -2.664101595E-03
 2.650000000E+00 1.000000000E+00 -3.574760461E-03
 2.600000000E+00 1.000000000E+00 -4.457904453E-03
 2.550000000E+00 1.000000000E+00 -5.560830324E-03
 2.500000000E+00 1.000000000E+00 -6.465874433E-03
 2.450000000E+00 1.000000000E+00 -7.818614775E-03
 2.400000000E+00 1.000000000E+00 -8.977943500E-03
 2.350000000E+00 1.000000000E+00 -1.033456514E-02
 2.300000000E+00 1.000000000E+00 -1.176441441E-02
 2.250000000E+00 1.000000000E+00 -1.329115405E-02
 2.200000000E+00 1.000000000E+00 -1.481076255E-02
 2.150000000E+00 1.000000000E+00 -1.657441734E-02
 2.100000000E+00 1.000000000E+00 -1.835706276E-02
 2.050000000E+00 1.000000000E+00 -2.041556983E-02
 2.000000000E+00 1.000000000E+00 -2.246412674E-02
 1.950000000E+00 1.000000000E+00 -2.470148993E-02
 1.900000000E+00 1.000000000E+00 -2.703288778E-02
 1.850000000E+00 1.000000000E+00 -2.974341493E-02
 1.800000000E+00 1.000000000E+00 -3.234170997E-02
 1.750000000E+00 1.000000000E+00 -3.552662458E-02
 1.700000000E+00 1.000000000E+00 -3.871952191E-02
 1.650000000E+00 1.000000000E+00 -4.203278293E-02
 1.600000000E+00 1.000000000E+00 -4.626278422E-02
 1.550000000E+00 1.000000000E+00 -4.977162868E-02
 1.500000000E+00 1.000000000E+00 -5.403185403E-02
 1.450000000E+00 1.000000000E+00 -5.859027988E-02
 1.400000000E+00 1.000000000E+00 -6.344803553E-02
 1.350000000E+00 1.000000000E+00 -6.806293057E-02
 1.300000000E+00 1.000000000E+00 -7.338812810E-02
 1.250000000E+00 1.000000000E+00 -7.870394291E-02
 1.200000000E+00 1.000000000E+00 -8.421393989E-02
 1.150000000E+00 1.000000000E+00 -8.949766493E-02
 1.100000000E+00 1.000000000E+00 -9.458863056E-02
 1.050000000E+00 1.000000000E+00 -9.930934344E-02
 1.000000000E+00 1.000000000E+00 -1.057266084E-01
 9.500000000E-01 1.000000000E+00 -1.085657226E-01
 9.000000000E-01 1.000000000E+00 -1.133498024E-01
 8.500000000E-01 1.000000000E+00 -1.159036986E-01
 8.000000000E-01 1.000000000E+00 -1.185198635E-01
 7.500000000E-01 1.000000000E+00 -1.196457542E-01
 7.000000000E-01 1.000000000E+00 -1.195957857E-01
 6.500000000E-01 1.000000000E+00 -1.187863660E-01
 6.000000000E-01 1.000000000E+00 -1.164317693E-01
 5.500000000E-01 1.000000000E+00 -1.133468797E-01
 5.000000000E-01 1.000000000E+00 -1.088051581E-01
 4.500000000E-01 1.000000000E+00 -1.036240609E-01
 4.000000000E-01 1.000000000E+00 -9.693276051E-02
 3.500000000E-01 1.000000000E+00 -8.973558388E-02
 3.000000000E-01 1.000000000E+00 -8.235222080E-02
 2.500000000E-01 1.000000000E+00 -7.445158770E-02
 2.000000000E-01 1.000000000E+00 -6.605677861E-02
 1.500000000E-01 1.000000000E+00 -5.784480411E-02
 1.000000000E-01 1.000000000E+00 -4.952624991E-02
 5.000000000E-02 1.000000000E+00 -4.170594563E-02
 1.733724275E-12 1.000000000E+00 -3.426005204E-02
 -5.000000000E-02 1.000000000E+00 -2.744281686E-02
 -1.000000000E-01 1.000000000E+00 -2.136979417E-02
 -1.500000000E-01 1.000000000E+00 -1.597019907E-02
 -2.000000000E-01 1.000000000E+00 -1.141827521E-02
 -2.500000000E-01 1.000000000E+00 -7.710322347E-03
 -3.000000000E-01 1.000000000E+00 -4.798294091E-03
 -3.500000000E-01 1.000000000E+00 -2.686324255E-03
 -4.000000000E-01 1.000000000E+00 -1.295146798E-03
 -4.500000000E-01 1.000000000E+00 -5.087228127E-04
 9.860404494E-01 -4.156227142E-03 3.604205238E-01
 9.008529916E-01 -5.584210132E-03 3.140011181E-01
 8.225325704E-01 -1.298942148E-02 2.329228985E-01
 7.488801039E-01 -2.352052569E-02 1.404108020E-01
 6.779440379E-01 -3.435502747E-02 4.551945508E-02
 6.088616718E-01 -4.388529249E-02 -6.252881976E-02
 5.435519544E-01 -5.323360030E-02 -1.869165751E-01
 4.776849122E-01 -5.975432956E-02 -3.189257349E-01
 4.214264845E-01 -6.636006731E-02 -4.059951508E-01
 3.610684685E-01 -6.774449957E-02 -4.506018631E-01
 3.095834981E-01 -6.805919108E-02 -4.410524809E-01
 2.548378220E-01 -6.508671381E-02 -4.034295895E-01