TITLE     = "Visualization of the solution"
VARIABLES = "x"
"y"
"Pressure_Coefficient"
ZONE T="Zone"
 STRANDID=0, SOLUTIONTIME=0
 Nodes=12366, Elements=24151, ZONETYPE=FEQuadrilateral
 DATAPACKING=POINT
 DT=(DOUBLE DOUBLE DOUBLE )
 1.000184774E+00 5.067551392E-04 2.366550271E-01
 9.869768620E-01 3.064734628E-03 1.702788248E-01
 9.741390347E-01 5.592009053E-03 1.067532197E-01
 9.581673145E-01 8.706462570E-03 5.523413529E-02
 9.431672096E-01 1.157607324E-02 2.437710631E-02
 9.290389419E-01 1.431375835E-02 -1.219004161E-02
 9.172330499E-01 1.658567414E-02 -3.884554646E-02
 9.051766396E-01 1.891389675E-02 -7.325810671E-02
 8.934528232E-01 2.113114111E-02 -1.010005996E-01
 8.814953566E-01 2.334046923E-02 -1.260330409E-01
 8.693662286E-01 2.551909350E-02 -1.434835473E-01
 8.573021293E-01 2.765860595E-02 -1.703914527E-01
 8.448869586E-01 2.977211773E-02 -1.749511538E-01
 8.339645863E-01 3.167372569E-02 -2.138608783E-01
 8.223641515E-01 3.355955705E-02 -2.170619986E-01
 8.100605011E-01 3.555525467E-02 -2.385420049E-01
 7.973464131E-01 3.754165396E-02 -2.491394544E-01
 7.852900624E-01 3.940863535E-02 -2.693386974E-01
 7.729182243E-01 4.126052558E-02 -2.819551127E-01
 7.612828016E-01 4.297404736E-02 -2.977570921E-01
 7.483038902E-01 4.483552650E-02 -3.147527747E-01
 7.346557975E-01 4.672714323E-02 -3.273854100E-01
 7.240204811E-01 4.818164557E-02 -3.436153049E-01
 7.130732536E-01 4.964488000E-02 -3.628624461E-01
 7.014989853E-01 5.112307891E-02 -3.710492355E-01
 6.883152127E-01 5.277378857E-02 -3.919397566E-01
 6.753861308E-01 5.431451648E-02 -4.059571022E-01
 6.650555134E-01 5.550587177E-02 -4.199014382E-01
 6.535927653E-01 5.676582828E-02 -4.285087049E-01
 6.421949267E-01 5.798144266E-02 -4.436358266E-01
 6.303808689E-01 5.918293074E-02 -4.589878234E-01
 6.190213561E-01 6.027025729E-02 -4.683906605E-01
 6.084441543E-01 6.123857573E-02 -4.805499157E-01
 5.960068703E-01 6.229808554E-02 -4.897477328E-01
 5.843673348E-01 6.322586536E-02 -4.955538363E-01
 5.710949302E-01 6.423202902E-02 -5.159290738E-01
 5.585999489E-01 6.506854296E-02 -5.215422597E-01
 5.462238789E-01 6.582182646E-02 -5.304796667E-01
 5.350199938E-01 6.642192602E-02 -5.308832698E-01
 5.232136846E-01 6.699061394E-02 -5.340294419E-01
 5.105704665E-01 6.752145290E-02 -5.344521522E-01
 4.995969236E-01 6.794238091E-02 -5.458794862E-01
 4.862987697E-01 6.833387166E-02 -5.421736401E-01
 4.731454551E-01 6.864584237E-02 -5.429630870E-01
 4.591258764E-01 6.888104975E-02 -5.421311014E-01
 4.456089735E-01 6.902045012E-02 -5.416601326E-01
 4.327753186E-01 6.907037646E-02 -5.371996053E-01
 4.200422764E-01 6.905996054E-02 -5.402380015E-01
 4.076676667E-01 6.896413863E-02 -5.373285292E-01
 3.950633407E-01 6.878536195E-02 -5.299089243E-01
 3.829030395E-01 6.855846196E-02 -5.297454373E-01
 3.712100089E-01 6.827088445E-02 -5.247637595E-01
 3.579133153E-01 6.787187606E-02 -5.221859099E-01
 3.452849090E-01 6.741122156E-02 -5.162125941E-01
 3.324946165E-01 6.687019765E-02 -5.101604907E-01
 3.215537071E-01 6.635641307E-02 -5.059810602E-01
 3.088079989E-01 6.569129974E-02 -5.031452438E-01
 2.956465781E-01 6.491746753E-02 -4.962613668E-01
 2.819107771E-01 6.402676553E-02 -4.940226464E-01
 2.694710195E-01 6.312093884E-02 -4.819802040E-01
 2.577154338E-01 6.221127138E-02 -4.773021007E-01
 2.451871037E-01 6.116231158E-02 -4.708322554E-01
 2.328098863E-01 6.004978716E-02 -4.666917408E-01
 2.205160260E-01 5.885213614E-02 -4.591418635E-01
 2.087911814E-01 5.762096122E-02 -4.463235670E-01
 1.972443461E-01 5.635108054E-02 -4.440005400E-01
 1.849257052E-01 5.488249660E-02 -4.294294913E-01
 1.730557084E-01 5.339641869E-02 -4.253244940E-01
 1.617366970E-01 5.187810212E-02 -4.148322194E-01
 1.498767883E-01 5.018238723E-02 -4.030321378E-01
 1.391248554E-01 4.855629429E-02 -3.930192860E-01
 1.275934130E-01 4.670192301E-02 -3.796832948E-01
 1.162329242E-01 4.476766661E-02 -3.721005080E-01
 1.056156904E-01 4.282724112E-02 -3.556271660E-01
 9.575923532E-02 4.091585428E-02 -3.418539320E-01
 8.468233049E-02 3.861997649E-02 -3.246132877E-01
 7.302149385E-02 3.601101041E-02 -3.066028239E-01
 6.303445995E-02 3.359101340E-02 -2.857717824E-01
 5.320032313E-02 3.099978901E-02 -2.598398942E-01
 4.445780814E-02 2.848406136E-02 -2.308337008E-01
 3.690706939E-02 2.612157539E-02 -2.065480170E-01
 3.024099767E-02 2.382471971E-02 -1.705696178E-01
 2.462053113E-02 2.171090990E-02 -1.483934833E-01
 2.055938356E-02 2.003777772E-02 -1.080409249E-01
 1.669540256E-02 1.830465160E-02 -7.649002740E-02
 1.375778113E-02 1.687023602E-02 -3.436401475E-02
 1.106153335E-02 1.543223485E-02 4.463938163E-03
 9.064848535E-03 1.427217573E-02 4.219762472E-02
 7.303498220E-03 1.316289604E-02 7.974373768E-02
 5.680028815E-03 1.203812845E-02 1.611133128E-01
 3.543049097E-03 1.036370173E-02 2.493498402E-01
 1.740494161E-03 8.671986870E-03 3.636656551E-01
 2.365062828E-04 6.903600413E-03 5.975335553E-01
 -1.173886703E-03 4.491937347E-03 8.070907350E-01
 -1.776660793E-03 2.631923649E-03 1.021054898E+00
 -1.951062004E-03 1.139831729E-03 1.092658568E+00
 -1.840630313E-03 -5.374468165E-04 1.114550239E+00
 -1.372623257E-03 -2.301620087E-03 1.039756311E+00
 -3.842069127E-04 -4.381986801E-03 8.924753275E-01
 1.138323685E-03 -6.545537617E-03 7.195913158E-01
 3.211559262E-03 -8.767507970E-03 5.443327819E-01
 5.094426684E-03 -1.042198762E-02 4.046071494E-01
 7.296068594E-03 -1.209950261E-02 3.213610811E-01
 9.002044797E-03 -1.326202508E-02 2.317874040E-01
 1.110452227E-02 -1.456799544E-02 1.884459536E-01
 1.350946538E-02 -1.593756117E-02 1.228437343E-01
 1.682419516E-02 -1.764515415E-02 7.171102805E-02
 1.988644898E-02 -1.908331551E-02 1.069622873E-02
 2.381738089E-02 -2.076889388E-02 -2.592374334E-02
 2.912925929E-02 -2.283040062E-02 -6.555212972E-02
 3.484633192E-02 -2.483769692E-02 -1.076955960E-01
 4.190170765E-02 -2.706831135E-02 -1.358931387E-01
 4.944447801E-02 -2.922493406E-02 -1.648632698E-01
 5.836284906E-02 -3.153294325E-02 -1.826525025E-01
 6.720391661E-02 -3.363056108E-02 -2.071933101E-01
 7.739859819E-02 -3.584116325E-02 -2.203849169E-01
 8.721941710E-02 -3.780430555E-02 -2.303587509E-01
 9.746715426E-02 -3.971902281E-02 -2.472728670E-01
 1.083877757E-01 -4.161238670E-02 -2.592437354E-01
 1.195485219E-01 -4.341460019E-02 -2.695918551E-01
 1.311722100E-01 -4.517327622E-02 -2.817511245E-01
 1.417879015E-01 -4.667314515E-02 -2.907294823E-01
 1.529682279E-01 -4.816433042E-02 -3.020382586E-01
 1.650319397E-01 -4.967103899E-02 -3.123140582E-01
 1.767231375E-01 -5.103900284E-02 -3.239885500E-01
 1.885725111E-01 -5.233108625E-02 -3.336407133E-01
 1.992282420E-01 -5.341672525E-02 -3.443426952E-01
 2.105612010E-01 -5.449880660E-02 -3.559539100E-01
 2.228031009E-01 -5.557417125E-02 -3.654389616E-01
 2.352321148E-01 -5.656627193E-02 -3.744385144E-01
 2.475052923E-01 -5.745832250E-02 -3.850291269E-01
 2.599638700E-01 -5.826998502E-02 -3.965119713E-01
 2.710277438E-01 -5.890730396E-02 -4.075195521E-01
 2.836366594E-01 -5.952361599E-02 -4.116981905E-01
 2.960691154E-01 -6.004039198E-02 -4.225410121E-01
 3.086835742E-01 -6.045374647E-02 -4.305012581E-01
 3.203608394E-01 -6.072711945E-02 -4.344000605E-01
 3.329710364E-01 -6.092309952E-02 -4.434341786E-01
 3.436487913E-01 -6.097032875E-02 -4.400990584E-01
 3.551442027E-01 -6.094252691E-02 -4.441612804E-01
 3.661278188E-01 -6.080967560E-02 -4.418483102E-01
 3.769648671E-01 -6.058546156E-02 -4.410216269E-01
 3.884200156E-01 -6.023499742E-02 -4.328711966E-01
 4.014499187E-01 -5.970949680E-02 -4.233144269E-01
 4.138264954E-01 -5.908796936E-02 -4.152514757E-01
 4.268248081E-01 -5.828113109E-02 -3.957406191E-01
 4.394771755E-01 -5.738219619E-02 -3.828556762E-01
 4.516023993E-01 -5.638049915E-02 -3.572015459E-01
 4.636367857E-01 -5.530499294E-02 -3.414264615E-01
 4.761084616E-01 -5.405745655E-02 -3.094129083E-01
 4.879297316E-01 -5.281902477E-02 -2.925801815E-01
 5.006163716E-01 -5.139255524E-02 -2.663922104E-01
 5.144165158E-01 -4.974106327E-02 -2.378172068E-01
 5.279970169E-01 -4.802176729E-02 -2.069965625E-01
 5.411213040E-01 -4.629478604E-02 -1.773470563E-01
 5.543382168E-01 -4.452297091E-02 -1.534316711E-01
 5.677527189E-01 -4.267551005E-02 -1.275885177E-01
 5.809550285E-01 -4.082085937E-02 -1.039260053E-01
 5.932710171E-01 -3.904693574E-02 -7.642163245E-02
 6.059940457E-01 -3.721713647E-02 -5.517235573E-02
 6.201250553E-01 -3.519001976E-02 -3.619093608E-02
 6.344535351E-01 -3.309221193E-02 -8.328047698E-03
 6.489701271E-01 -3.098607250E-02 1.143189464E-02
 6.621503234E-01 -2.908113040E-02 2.938849543E-02
 6.756703854E-01 -2.710967697E-02 5.237801080E-02
 6.882696152E-01 -2.530482039E-02 6.704261318E-02
 7.004662752E-01 -2.354690246E-02 8.891437895E-02
 7.152493596E-01 -2.148716897E-02 1.005232763E-01
 7.280758023E-01 -1.966360025E-02 1.273277249E-01
 7.400515079E-01 -1.804950461E-02 1.331948128E-01
 7.529616356E-01 -1.626716182E-02 1.606538034E-01
 7.657061219E-01 -1.462653931E-02 1.642249707E-01
 7.785787582E-01 -1.291855052E-02 1.917383412E-01
 7.907201052E-01 -1.141391695E-02 1.995043260E-01
 8.034489155E-01 -9.853036143E-03 2.178066511E-01
 8.145045638E-01 -8.545549586E-03 2.328528332E-01
 8.261384368E-01 -7.244322449E-03 2.425908046E-01
 8.385156989E-01 -5.889280234E-03 2.618543690E-01
 8.508440852E-01 -4.626056645E-03 2.778051359E-01
 8.632739186E-01 -3.475922858E-03 2.869382185E-01
 8.744875193E-01 -2.496572910E-03 3.037791782E-01
 8.861943483E-01 -1.606335281E-03 3.115129053E-01
 8.992716074E-01 -7.454321603E-04 3.191528991E-01
 9.091508389E-01 -1.747106435E-04 3.301947849E-01
 9.198380113E-01 3.070259118E-04 3.328523885E-01
 9.294512868E-01 6.502947072E-04 3.353647732E-01
 9.385798573E-01 8.917299565E-04 3.394921882E-01
 9.504599571E-01 1.087549259E-03 3.401157751E-01
 9.634028673E-01 1.152390847E-03 3.423592110E-01
 9.771429300E-01 1.060682349E-03 3.509921457E-01
 9.892561436E-01 8.337416220E-04 3.724993269E-01
 -5.000000000E-01 -1.000000000E+00 1.382102768E-02
 3.500000000E+00 -1.000000000E+00 8.318938477E-03
 3.500000000E+00 1.000000000E+00 -2.404652568E-02
 -5.000000000E-01 1.000000000E+00 -8.156558875E-04
 9.935808182E-01 1.785744884E-03 2.514487181E-01
 9.805579484E-01 4.328371841E-03 1.351197201E-01
 9.661531746E-01 7.149235811E-03 7.906814236E-02
 9.506672621E-01 1.014126791E-02 4.053459973E-02
 9.361030757E-01 1.294491580E-02 4.740894288E-03
 9.231359959E-01 1.544971624E-02 -2.507470550E-02
 9.112048447E-01 1.774978545E-02 -5.754821113E-02
 8.993147314E-01 2.002251893E-02 -8.806417917E-02
 8.874740899E-01 2.223580517E-02 -1.142136529E-01
 8.754307926E-01 2.442978136E-02 -1.340132986E-01
 8.633341789E-01 2.658884972E-02 -1.587050291E-01
 8.510945439E-01 2.871536184E-02 -1.683974652E-01
 8.394257724E-01 3.072292171E-02 -2.003241691E-01
 8.281643689E-01 3.261664137E-02 -2.125395586E-01
 8.162123263E-01 3.455740586E-02 -2.292293451E-01
 8.037034571E-01 3.654845431E-02 -2.420881901E-01
 7.913182378E-01 3.847514465E-02 -2.606351527E-01
 7.791041434E-01 4.033458047E-02 -2.747085332E-01
 7.671005130E-01 4.211728647E-02 -2.903486060E-01
 7.547933459E-01 4.390478693E-02 -3.070886435E-01
 7.414798439E-01 4.578133486E-02 -3.195007605E-01
 7.293381393E-01 4.745439440E-02 -3.356910340E-01
 7.185468674E-01 4.891326278E-02 -3.551149370E-01
 7.072861195E-01 5.038397945E-02 -3.658657543E-01
 6.949070990E-01 5.194843374E-02 -3.826609126E-01
 6.818506718E-01 5.354415253E-02 -3.976184866E-01
 6.702208221E-01 5.491019413E-02 -4.143482337E-01
 6.593241394E-01 5.613585003E-02 -4.232080224E-01
 6.478938460E-01 5.737363547E-02 -4.366493329E-01
 6.362878978E-01 5.858218670E-02 -4.519803410E-01
 6.247011125E-01 5.972659402E-02 -4.624670261E-01
 6.137327552E-01 6.075441651E-02 -4.764790952E-01
 6.022255123E-01 6.176833063E-02 -4.846166152E-01
 5.901871026E-01 6.276197545E-02 -4.919028523E-01
 5.777311325E-01 6.372894719E-02 -5.077048330E-01
 5.648474395E-01 6.465028599E-02 -5.184337042E-01
 5.524119139E-01 6.544518471E-02 -5.258215227E-01
 5.406219363E-01 6.612187624E-02 -5.305586592E-01
 5.291168392E-01 6.670626998E-02 -5.332011994E-01
 5.168920755E-01 6.725603342E-02 -5.315809641E-01
 5.050836951E-01 6.773191690E-02 -5.449314433E-01
 4.929478467E-01 6.813812628E-02 -5.428101479E-01
 4.797221124E-01 6.848985702E-02 -5.433219996E-01
 4.661356658E-01 6.876344606E-02 -5.423295420E-01
 4.523674250E-01 6.895074993E-02 -5.416192361E-01
 4.391921461E-01 6.904541329E-02 -5.382740160E-01
 4.264087975E-01 6.906516850E-02 -5.395877590E-01
 4.138549715E-01 6.901204959E-02 -5.392524928E-01
 4.013655037E-01 6.887475029E-02 -5.323579622E-01
 3.889831901E-01 6.867191195E-02 -5.299432152E-01
 3.770565242E-01 6.841467321E-02 -5.280419506E-01
 3.645616621E-01 6.807138026E-02 -5.235785283E-01
 3.515991122E-01 6.764154881E-02 -5.193814447E-01
 3.388897628E-01 6.714070961E-02 -5.114621015E-01
 3.270241618E-01 6.661330536E-02 -5.091317267E-01
 3.151808530E-01 6.602385640E-02 -5.053789509E-01
 3.022272885E-01 6.530438364E-02 -5.000030591E-01
 2.887786776E-01 6.447211653E-02 -4.956766955E-01
 2.756908983E-01 6.357385218E-02 -4.861895034E-01
 2.635932267E-01 6.266610511E-02 -4.806201224E-01
 2.514512688E-01 6.168679148E-02 -4.740471181E-01
 2.389984950E-01 6.060604937E-02 -4.696240657E-01
 2.266629562E-01 5.945096165E-02 -4.630637630E-01
 2.146536037E-01 5.823654868E-02 -4.511056601E-01
 2.030177638E-01 5.698602088E-02 -4.479366460E-01
 1.910850257E-01 5.561678857E-02 -4.350126639E-01
 1.789907068E-01 5.413945764E-02 -4.278926810E-01
 1.673962027E-01 5.263726041E-02 -4.210763031E-01
 1.558067426E-01 5.103024468E-02 -4.076298311E-01
 1.445008218E-01 4.936934076E-02 -3.993765249E-01
 1.333591342E-01 4.762910865E-02 -3.860454339E-01
 1.219131686E-01 4.573479481E-02 -3.763505406E-01
 1.109243073E-01 4.379745387E-02 -3.660782687E-01
 9.022078291E-02 3.976791538E-02 -3.365437614E-01
 7.885191217E-02 3.731549345E-02 -3.140979738E-01
 6.802797690E-02 3.480101191E-02 -2.979965982E-01
 5.811739154E-02 3.229540121E-02 -2.781398271E-01
 7.230125740E-02 -3.473586217E-02 -2.163657304E-01
 9.234328568E-02 -3.876166418E-02 -2.442610274E-01
 1.029274650E-01 -4.066570476E-02 -2.528449964E-01
 1.139681488E-01 -4.251349345E-02 -2.649995347E-01
 1.253603660E-01 -4.429393820E-02 -2.754118176E-01
 1.364800557E-01 -4.592321068E-02 -2.881620814E-01
 1.473780647E-01 -4.741873778E-02 -2.955699665E-01
 1.590000838E-01 -4.891768470E-02 -3.067912541E-01
 1.708775386E-01 -5.035502091E-02 -3.183107935E-01
 1.826478243E-01 -5.168504454E-02 -3.290689992E-01
 1.939003766E-01 -5.287390575E-02 -3.402032543E-01
 2.048947215E-01 -5.395776592E-02 -3.483479904E-01
 2.166821510E-01 -5.503648892E-02 -3.597251068E-01
 2.290176079E-01 -5.607022159E-02 -3.703548944E-01
 2.413687035E-01 -5.701229721E-02 -3.797791558E-01
 2.537345812E-01 -5.786415376E-02 -3.905703640E-01
 2.654958069E-01 -5.858864449E-02 -4.028692054E-01
 2.773322016E-01 -5.921545997E-02 -4.089768610E-01
 2.898528874E-01 -5.978200398E-02 -4.164908082E-01
 3.023763448E-01 -6.024706922E-02 -4.264899538E-01
 3.145222068E-01 -6.059043296E-02 -4.338071712E-01
 3.266659379E-01 -6.082510948E-02 -4.368349584E-01
 3.383099139E-01 -6.094671413E-02 -4.461802802E-01
 3.493964970E-01 -6.095642783E-02 -4.396326298E-01
 3.606360108E-01 -6.087610126E-02 -4.440732186E-01
 3.715463430E-01 -6.069756858E-02 -4.410255616E-01
 3.826924413E-01 -6.041022949E-02 -4.369828496E-01
 3.949349672E-01 -5.997224711E-02 -4.265359304E-01
 4.076382071E-01 -5.939873308E-02 -4.195290856E-01
 4.203256518E-01 -5.868455023E-02 -4.065522900E-01
 4.331509918E-01 -5.783166364E-02 -3.888420754E-01
 4.455397874E-01 -5.688134767E-02 -3.725210322E-01
 4.576195925E-01 -5.584274605E-02 -3.484713820E-01
 4.698726237E-01 -5.468122475E-02 -3.281338193E-01
 4.820190966E-01 -5.343824066E-02 -2.996586297E-01
 4.942730516E-01 -5.210579000E-02 -2.797306509E-01
 5.075164437E-01 -5.056680925E-02 -2.520757913E-01
 5.212067664E-01 -4.888141528E-02 -2.230484865E-01
 5.345591605E-01 -4.715827666E-02 -1.927948971E-01
 5.477297604E-01 -4.540887848E-02 -1.644414646E-01
 5.610454679E-01 -4.359924048E-02 -1.406434978E-01
 5.743538737E-01 -4.174818471E-02 -1.156689788E-01
 5.871130228E-01 -3.993389755E-02 -9.141137004E-02
 5.996325314E-01 -3.813203610E-02 -6.516674879E-02
 6.130595505E-01 -3.620357811E-02 -4.484424357E-02
 6.272892952E-01 -3.414111584E-02 -2.390967908E-02
 6.417118311E-01 -3.203914221E-02 2.161066527E-03
 6.555602252E-01 -3.003360145E-02 2.063907641E-02
 6.689103544E-01 -2.809540369E-02 4.013533923E-02
 6.819700003E-01 -2.620724868E-02 6.075917681E-02
 6.943679452E-01 -2.442586143E-02 7.660928245E-02
 7.078578174E-01 -2.251703572E-02 9.543678702E-02
 7.216625810E-01 -2.057538461E-02 1.116835325E-01
 7.340636551E-01 -1.885655243E-02 1.332699792E-01
 7.465065718E-01 -1.715833321E-02 1.438146734E-01
 7.593338788E-01 -1.544685056E-02 1.656281067E-01
 7.721424401E-01 -1.377254492E-02 1.742282485E-01
 7.846494317E-01 -1.216623373E-02 1.985454298E-01
 7.970845103E-01 -1.063347654E-02 2.076407326E-01
 8.089767396E-01 -9.199292865E-03 2.258152795E-01
 8.203215003E-01 -7.894936018E-03 2.384855954E-01
 8.323270679E-01 -6.566801341E-03 2.501787452E-01
 8.446798921E-01 -5.257668439E-03 2.694758806E-01
 8.570590019E-01 -4.050989752E-03 2.834950836E-01
 8.688807189E-01 -2.986247884E-03 2.946027565E-01
 8.803409338E-01 -2.051454096E-03 3.079705999E-01
 8.927329779E-01 -1.175883721E-03 3.154583689E-01
 9.144944251E-01 6.615763414E-05 3.349764830E-01
 9.445199072E-01 9.896396077E-04 3.383410692E-01
 9.569314122E-01 1.119970053E-03 3.401205372E-01
 9.702728987E-01 1.106536598E-03 3.442632832E-01
 9.831995368E-01 9.472119855E-04 3.577947273E-01
 9.947204590E-01 6.702483806E-04 4.286176860E-01
 -5.000000000E-01 9.500000000E-01 -9.667996377E-04
 -5.000000000E-01 9.000000000E-01 -7.951405119E-04
 -5.000000000E-01 8.500000000E-01 1.915100158E-04
 -5.000000000E-01 8.000000000E-01 1.800583809E-03
 -5.000000000E-01 7.500000000E-01 4.177533968E-03
 -5.000000000E-01 7.000000000E-01 7.444611178E-03
 -5.000000000E-01 6.500000000E-01 1.141953904E-02
 -5.000000000E-01 6.000000000E-01 1.649899306E-02
 -5.000000000E-01 5.500000000E-01 2.228847194E-02
 -5.000000000E-01 5.000000000E-01 2.890669325E-02
 -5.000000000E-01 4.500000000E-01 3.665891646E-02
 -5.000000000E-01 4.000000000E-01 4.475289936E-02
 -5.000000000E-01 3.500000000E-01 5.369793992E-02
 -5.000000000E-01 3.000000000E-01 6.279985858E-02
 -5.000000000E-01 2.500000000E-01 7.199130966E-02
 -5.000000000E-01 2.000000000E-01 8.085106926E-02
 -5.000000000E-01 1.500000000E-01 8.882838280E-02
 -5.000000000E-01 1.000000000E-01 9.563488347E-02
 -5.000000000E-01 5.000000000E-02 1.008287228E-01
 -5.000000000E-01 2.752242878E-12 1.042273125E-01
 -5.000000000E-01 -5.000000000E-02 1.055800636E-01
 -5.000000000E-01 -1.000000000E-01 1.049570559E-01
 -5.000000000E-01 -1.500000000E-01 1.025523119E-01
 -5.000000000E-01 -2.000000000E-01 9.859437896E-02
 -5.000000000E-01 -2.500000000E-01 9.363445341E-02
 -5.000000000E-01 -3.000000000E-01 8.766616809E-02
 -5.000000000E-01 -3.500000000E-01 8.161405298E-02
 -5.000000000E-01 -4.000000000E-01 7.508067472E-02
 -5.000000000E-01 -4.500000000E-01 6.887479161E-02
 -5.000000000E-01 -5.000000000E-01 6.282521397E-02
 -5.000000000E-01 -5.500000000E-01 5.713993758E-02
 -5.000000000E-01 -6.000000000E-01 5.182916584E-02
 -5.000000000E-01 -6.500000000E-01 4.694468425E-02
 -5.000000000E-01 -7.000000000E-01 4.236496738E-02
 -5.000000000E-01 -7.500000000E-01 3.815868826E-02
 -5.000000000E-01 -8.000000000E-01 3.408915852E-02
 -5.000000000E-01 -8.500000000E-01 3.003199050E-02
 -5.000000000E-01 -9.000000000E-01 2.551520414E-02
 -5.000000000E-01 -9.500000000E-01 1.899155150E-02
 -4.500000000E-01 -1.000000000E+00 1.739021867E-02
 -4.000000000E-01 -1.000000000E+00 2.245732526E-02
 -3.500000000E-01 -1.000000000E+00 2.483401397E-02
 -3.000000000E-01 -1.000000000E+00 2.598663605E-02
 -2.500000000E-01 -1.000000000E+00 2.632112874E-02
 -2.000000000E-01 -1.000000000E+00 2.587938889E-02
 -1.500000000E-01 -1.000000000E+00 2.468608913E-02
 -1.000000000E-01 -1.000000000E+00 2.279810444E-02
 -5.000000000E-02 -1.000000000E+00 2.038464752E-02
 -9.424683256E-13 -1.000000000E+00 1.748556576E-02
 5.000000000E-02 -1.000000000E+00 1.422614006E-02
 1.000000000E-01 -1.000000000E+00 1.080250017E-02
 1.500000000E-01 -1.000000000E+00 7.362577058E-03
 2.000000000E-01 -1.000000000E+00 4.052803953E-03
 2.500000000E-01 -1.000000000E+00 9.526720302E-04
 3.000000000E-01 -1.000000000E+00 -1.727326897E-03
 3.500000000E-01 -1.000000000E+00 -3.868825907E-03
 4.000000000E-01 -1.000000000E+00 -5.375965716E-03
 4.500000000E-01 -1.000000000E+00 -5.997627517E-03
 5.000000000E-01 -1.000000000E+00 -6.064293815E-03
 5.500000000E-01 -1.000000000E+00 -5.185963432E-03
 6.000000000E-01 -1.000000000E+00 -3.671878061E-03
 6.500000000E-01 -1.000000000E+00 -1.491938014E-03
 7.000000000E-01 -1.000000000E+00 1.111807012E-03
 7.500000000E-01 -1.000000000E+00 4.309980575E-03
 8.000000000E-01 -1.000000000E+00 7.529186697E-03
 8.500000000E-01 -1.000000000E+00 1.095088108E-02
 9.000000000E-01 -1.000000000E+00 1.454683876E-02
 9.500000000E-01 -1.000000000E+00 1.797360674E-02
 1.000000000E+00 -1.000000000E+00 2.112944200E-02
 1.050000000E+00 -1.000000000E+00 2.412714588E-02
 1.100000000E+00 -1.000000000E+00 2.673376876E-02
 1.150000000E+00 -1.000000000E+00 2.902208470E-02
 1.200000000E+00 -1.000000000E+00 3.092676497E-02
 1.250000000E+00 -1.000000000E+00 3.246668123E-02
 1.300000000E+00 -1.000000000E+00 3.359988533E-02
 1.350000000E+00 -1.000000000E+00 3.446364661E-02
 1.400000000E+00 -1.000000000E+00 3.500107315E-02
 1.450000000E+00 -1.000000000E+00 3.527979254E-02
 1.500000000E+00 -1.000000000E+00 3.534230272E-02
 1.550000000E+00 -1.000000000E+00 3.516519207E-02
 1.600000000E+00 -1.000000000E+00 3.485709489E-02
 1.650000000E+00 -1.000000000E+00 3.440853033E-02
 1.700000000E+00 -1.000000000E+00 3.383691468E-02
 1.750000000E+00 -1.000000000E+00 3.315630003E-02
 1.800000000E+00 -1.000000000E+00 3.248571305E-02
 1.850000000E+00 -1.000000000E+00 3.170086598E-02
 1.900000000E+00 -1.000000000E+00 3.096741859E-02
 1.950000000E+00 -1.000000000E+00 3.017718257E-02
 2.000000000E+00 -1.000000000E+00 2.936027135E-02
 2.050000000E+00 -1.000000000E+00 2.859013023E-02
 2.100000000E+00 -1.000000000E+00 2.781830996E-02
 2.150000000E+00 -1.000000000E+00 2.707416565E-02
 2.200000000E+00 -1.000000000E+00 2.636499748E-02
 2.250000000E+00 -1.000000000E+00 2.568403698E-02
 2.300000000E+00 -1.000000000E+00 2.502741600E-02
 2.350000000E+00 -1.000000000E+00 2.442863289E-02
 2.400000000E+00 -1.000000000E+00 2.382410956E-02
 2.450000000E+00 -1.000000000E+00 2.330407993E-02
 2.500000000E+00 -1.000000000E+00 2.279736926E-02
 2.550000000E+00 -1.000000000E+00 2.235771729E-02
 2.600000000E+00 -1.000000000E+00 2.192979190E-02
 2.650000000E+00 -1.000000000E+00 2.153176239E-02
 2.700000000E+00 -1.000000000E+00 2.119799877E-02
 2.750000000E+00 -1.000000000E+00 2.086016125E-02
 2.800000000E+00 -1.000000000E+00 2.057347370E-02
 2.850000000E+00 -1.000000000E+00 2.029078053E-02
 2.900000000E+00 -1.000000000E+00 2.004293146E-02
 2.950000000E+00 -1.000000000E+00 1.974653765E-02
 3.000000000E+00 -1.000000000E+00 1.951987213E-02
 3.050000000E+00 -1.000000000E+00 1.920971527E-02
 3.100000000E+00 -1.000000000E+00 1.892870099E-02
 3.150000000E+00 -1.000000000E+00 1.855908346E-02
 3.200000000E+00 -1.000000000E+00 1.807549746E-02
 3.250000000E+00 -1.000000000E+00 1.750602276E-02
 3.300000000E+00 -1.000000000E+00 1.670306870E-02
 3.350000000E+00 -1.000000000E+00 1.568568685E-02
 3.400000000E+00 -1.000000000E+00 1.402509847E-02
 3.450000000E+00 -1.000000000E+00 1.130555419E-02
 3.500000000E+00 -9.500000000E-01 7.523781606E-03
 3.500000000E+00 -9.000000000E-01 8.923710478E-03
 3.500000000E+00 -8.500000000E-01 1.034811034E-02
 3.500000000E+00 -8.000000000E-01 1.190593304E-02
 3.500000000E+00 -7.500000000E-01 1.339443334E-02
 3.500000000E+00 -7.000000000E-01 1.495581531E-02
 3.500000000E+00 -6.500000000E-01 1.651419012E-02
 3.500000000E+00 -6.000000000E-01 1.822424431E-02
 3.500000000E+00 -5.500000000E-01 2.007177064E-02
 3.500000000E+00 -5.000000000E-01 2.204713734E-02
 3.500000000E+00 -4.500000000E-01 2.414321593E-02
 3.500000000E+00 -4.000000000E-01 2.633275149E-02
 3.500000000E+00 -3.500000000E-01 2.866294718E-02
 3.500000000E+00 -3.000000000E-01 3.077954735E-02
 3.500000000E+00 -2.500000000E-01 3.238421239E-02
 3.500000000E+00 -2.000000000E-01 3.319873100E-02
 3.500000000E+00 -1.500000000E-01 3.314792553E-02
 3.500000000E+00 -1.000000000E-01 3.241341833E-02
 3.500000000E+00 -5.000000000E-02 3.161673621E-02
 3.500000000E+00 -2.752242878E-12 3.092289257E-02
 3.500000000E+00 5.000000000E-02 3.033667273E-02
 3.500000000E+00 1.000000000E-01 2.921825768E-02
 3.500000000E+00 1.500000000E-01 2.740007195E-02
 3.500000000E+00 2.000000000E-01 2.482976750E-02
 3.500000000E+00 2.500000000E-01 2.173372066E-02
 3.500000000E+00 3.000000000E-01 1.852052785E-02
 3.500000000E+00 3.500000000E-01 1.551070802E-02
 3.500000000E+00 4.000000000E-01 1.261237759E-02
 3.500000000E+00 4.500000000E-01 1.002712728E-02
 3.500000000E+00 5.000000000E-01 7.638008180E-03
 3.500000000E+00 5.500000000E-01 5.599385182E-03
 3.500000000E+00 6.000000000E-01 4.286290093E-03
 3.500000000E+00 6.500000000E-01 3.826394152E-03
 3.500000000E+00 7.000000000E-01 3.685986395E-03
 3.500000000E+00 7.500000000E-01 3.227769922E-03
 3.500000000E+00 8.000000000E-01 4.487269921E-04
 3.500000000E+00 8.500000000E-01 -5.263214874E-03
 3.500000000E+00 9.000000000E-01 -1.304262567E-02
 3.500000000E+00 9.500000000E-01 -2.361583358E-02
 3.450000000E+00 1.000000000E+00 -1.447326379E-02
 3.400000000E+00 1.000000000E+00 -6.454502009E-03
 3.350000000E+00 1.000000000E+00 -2.530583901E-03
 3.300000000E+00 1.000000000E+00 -7.239769295E-04
 3.250000000E+00 1.000000000E+00 2.692335814E-04
 3.200000000E+00 1.000000000E+00 8.399629868E-04
 3.150000000E+00 1.000000000E+00 9.357960410E-04
 3.100000000E+00 1.000000000E+00 9.459799949E-04
 3.050000000E+00 1.000000000E+00 9.255897901E-04
 3.000000000E+00 1.000000000E+00 4.147667900E-04
 2.950000000E+00 1.000000000E+00 3.451488437E-04
 2.900000000E+00 1.000000000E+00 -4.963706637E-04
 2.850000000E+00 1.000000000E+00 -1.100040260E-03
 2.800000000E+00 1.000000000E+00 -1.847565943E-03
 2.750000000E+00 1.000000000E+00 -2.643506266E-03
 2.700000000E+00 1.000000000E+00 -3.580017665E-03
 2.650000000E+00 1.000000000E+00 -4.499413407E-03
 2.600000000E+00 1.000000000E+00 -5.493418263E-03
 2.550000000E+00 1.000000000E+00 -6.403525269E-03
 2.500000000E+00 1.000000000E+00 -7.553560712E-03
 2.450000000E+00 1.000000000E+00 -8.846700347E-03
 2.400000000E+00 1.000000000E+00 -1.013620943E-02
 2.350000000E+00 1.000000000E+00 -1.155369309E-02
 2.300000000E+00 1.000000000E+00 -1.296523864E-02
 2.250000000E+00 1.000000000E+00 -1.467096055E-02
 2.200000000E+00 1.000000000E+00 -1.640432330E-02
 2.150000000E+00 1.000000000E+00 -1.811333501E-02
 2.100000000E+00 1.000000000E+00 -2.007843485E-02
 2.050000000E+00 1.000000000E+00 -2.196139413E-02
 2.000000000E+00 1.000000000E+00 -2.435588047E-02
 1.950000000E+00 1.000000000E+00 -2.668241747E-02
 1.900000000E+00 1.000000000E+00 -2.930096274E-02
 1.850000000E+00 1.000000000E+00 -3.193589709E-02
 1.800000000E+00 1.000000000E+00 -3.494076568E-02
 1.750000000E+00 1.000000000E+00 -3.822144008E-02
 1.700000000E+00 1.000000000E+00 -4.166278021E-02
 1.650000000E+00 1.000000000E+00 -4.506934040E-02
 1.600000000E+00 1.000000000E+00 -4.894651033E-02
 1.550000000E+00 1.000000000E+00 -5.303820614E-02
 1.500000000E+00 1.000000000E+00 -5.739078498E-02
 1.450000000E+00 1.000000000E+00 -6.233789312E-02
 1.400000000E+00 1.000000000E+00 -6.738594555E-02
 1.350000000E+00 1.000000000E+00 -7.238863816E-02
 1.300000000E+00 1.000000000E+00 -7.801716972E-02
 1.250000000E+00 1.000000000E+00 -8.383371429E-02
 1.200000000E+00 1.000000000E+00 -8.902921469E-02
 1.150000000E+00 1.000000000E+00 -9.500381668E-02
 1.100000000E+00 1.000000000E+00 -1.010808592E-01
 1.050000000E+00 1.000000000E+00 -1.055351366E-01
 1.000000000E+00 1.000000000E+00 -1.109504601E-01
 9.500000000E-01 1.000000000E+00 -1.157060259E-01
 9.000000000E-01 1.000000000E+00 -1.199732503E-01
 8.500000000E-01 1.000000000E+00 -1.226532237E-01
 8.000000000E-01 1.000000000E+00 -1.253501775E-01
 7.500000000E-01 1.000000000E+00 -1.266244409E-01
 7.000000000E-01 1.000000000E+00 -1.264750480E-01
 6.500000000E-01 1.000000000E+00 -1.257453418E-01
 6.000000000E-01 1.000000000E+00 -1.233137610E-01
 5.500000000E-01 1.000000000E+00 -1.196886680E-01
 5.000000000E-01 1.000000000E+00 -1.151201215E-01
 4.500000000E-01 1.000000000E+00 -1.098673257E-01
 4.000000000E-01 1.000000000E+00 -1.025506158E-01
 3.500000000E-01 1.000000000E+00 -9.576144445E-02
 3.000000000E-01 1.000000000E+00 -8.770691029E-02
 2.500000000E-01 1.000000000E+00 -7.859558994E-02
 2.000000000E-01 1.000000000E+00 -7.023155985E-02
 1.500000000E-01 1.000000000E+00 -6.164706575E-02
 1.000000000E-01 1.000000000E+00 -5.278671670E-02
 5.000000000E-02 1.000000000E+00 -4.476521999E-02
 1.733724275E-12 1.000000000E+00 -3.688195392E-02
 -5.000000000E-02 1.000000000E+00 -2.996393384E-02
 -1.000000000E-01 1.000000000E+00 -2.348013379E-02
 -1.500000000E-01 1.000000000E+00 -1.785028538E-02
 -2.000000000E-01 1.000000000E+00 -1.305650763E-02
 -2.500000000E-01 1.000000000E+00 -9.281095154E-03
 -3.000000000E-01 1.000000000E+00 -6.078683161E-03
 -3.500000000E-01 1.000000000E+00 -3.796438164E-03
 -4.000000000E-01 1.000000000E+00 -2.220763646E-03
 -4.500000000E-01 1.000000000E+00 -1.212722900E-03
 1.971348453E+00 -9.650790856E-01 2.960116162E-02
 1.971776074E+00 9.478738572E-01 -2.408141165E-02
 9.171418825E-01 -4.550504439E-03 3.255492255E-01
 8.361242858E-01 -1.091433631E-02 2.533541609E-01
 7.625617478E-01 -2.057461108E-02 1.616552434E-01
 6.920799810E-01 -3.014664963E-02 7.212819645E-02
 9.856190743E-01 -4.613700639E-03 3.593699110E-01
 6.241809590E-01 -4.002223171E-02 -2.901452253E-02
 5.528042385E-01 -4.989451028E-02 -1.537742308E-01
 4.914629624E-01 -5.769571294E-02 -2.785732072E-01
 4.300076153E-01 -6.308745348E-02 -3.828348507E-01
 3.691524433E-01 -6.550967448E-02 -4.307066359E-01