TITLE     = "Visualization of the solution"
VARIABLES = "x"
"y"
"Pressure_Coefficient"
ZONE T="Zone"
 STRANDID=0, SOLUTIONTIME=0
 Nodes=11962, Elements=23342, ZONETYPE=FEQuadrilateral
 DATAPACKING=POINT
 DT=(DOUBLE DOUBLE DOUBLE )
 9.999452233E-01 5.131408689E-04 2.532192719E-01
 9.861503839E-01 3.259717021E-03 1.825796096E-01
 9.733876586E-01 5.899260286E-03 1.062833724E-01
 9.568307996E-01 9.266410954E-03 5.042743383E-02
 9.419638515E-01 1.222002786E-02 2.312176620E-02
 9.285877943E-01 1.495520119E-02 -2.338349729E-02
 9.171458483E-01 1.723685488E-02 -4.785653146E-02
 9.057167768E-01 1.952506043E-02 -8.777868228E-02
 8.939540386E-01 2.177085914E-02 -9.842722298E-02
 8.824148178E-01 2.400738001E-02 -1.389483592E-01
 8.701627851E-01 2.624041773E-02 -1.446388426E-01
 8.581146002E-01 2.846947126E-02 -1.765684012E-01
 8.463027477E-01 3.057701327E-02 -2.010926405E-01
 8.353118896E-01 3.245833516E-02 -2.078062885E-01
 8.239800334E-01 3.438676149E-02 -2.266508119E-01
 8.118498921E-01 3.639945015E-02 -2.417491448E-01
 7.994794846E-01 3.842207044E-02 -2.645579303E-01
 7.871092558E-01 4.036698863E-02 -2.776542814E-01
 7.747491002E-01 4.225935787E-02 -2.860286013E-01
 7.632682920E-01 4.401560873E-02 -3.093612857E-01
 7.502098083E-01 4.593336582E-02 -3.224472203E-01
 7.368606329E-01 4.785284773E-02 -3.419620159E-01
 7.260866165E-01 4.935538396E-02 -3.547833779E-01
 7.147773504E-01 5.089676753E-02 -3.708760331E-01
 7.030215859E-01 5.244288221E-02 -3.822662239E-01
 6.899681091E-01 5.411951989E-02 -4.015045080E-01
 6.771166325E-01 5.570394546E-02 -4.187300969E-01
 6.663866639E-01 5.697681382E-02 -4.334273109E-01
 6.545953751E-01 5.830903724E-02 -4.408451787E-01
 6.432011127E-01 5.957296491E-02 -4.634495356E-01
 6.313982010E-01 6.079329178E-02 -4.753312039E-01
 6.195617914E-01 6.194141880E-02 -4.780268504E-01
 6.091507077E-01 6.293621659E-02 -5.011201892E-01
 5.971170664E-01 6.397345662E-02 -5.010810746E-01
 5.855946541E-01 6.494203955E-02 -5.206745462E-01
 5.719702840E-01 6.596437842E-02 -5.272905350E-01
 5.592458844E-01 6.684063375E-02 -5.355471168E-01
 5.465310812E-01 6.763275713E-02 -5.453736582E-01
 5.351318717E-01 6.825629622E-02 -5.435789639E-01
 5.232006907E-01 6.886199117E-02 -5.534197226E-01
 5.108252168E-01 6.939683855E-02 -5.555513957E-01
 4.998776615E-01 6.981269270E-02 -5.592172450E-01
 4.866608679E-01 7.022160292E-02 -5.622297668E-01
 4.732976258E-01 7.052175701E-02 -5.508787266E-01
 4.596529007E-01 7.078827918E-02 -5.618131258E-01
 4.461115897E-01 7.092908770E-02 -5.565520592E-01
 4.334112108E-01 7.098957896E-02 -5.541003873E-01
 4.203622043E-01 7.097224891E-02 -5.510455238E-01
 4.079077244E-01 7.088732719E-02 -5.484753693E-01
 3.952570558E-01 7.073289901E-02 -5.471551843E-01
 3.831240833E-01 7.051772624E-02 -5.477041352E-01
 3.714498580E-01 7.023060322E-02 -5.396178658E-01
 3.582744598E-01 6.984151900E-02 -5.343294365E-01
 3.455471992E-01 6.940578669E-02 -5.375463383E-01
 3.324581385E-01 6.884710491E-02 -5.266931223E-01
 3.218042552E-01 6.835069507E-02 -5.236824275E-01
 3.093264103E-01 6.769970059E-02 -5.202136296E-01
 2.964910567E-01 6.694550067E-02 -5.128502372E-01
 2.825595438E-01 6.604057550E-02 -5.066141297E-01
 2.705307007E-01 6.519867480E-02 -5.074364039E-01
 2.588176429E-01 6.428883225E-02 -5.013797926E-01
 2.463870496E-01 6.322477758E-02 -4.857165389E-01
 2.339907885E-01 6.211267784E-02 -4.837090191E-01
 2.217775434E-01 6.092790514E-02 -4.786756914E-01
 2.099335492E-01 5.969072878E-02 -4.710811306E-01
 1.979696751E-01 5.835163966E-02 -4.629396504E-01
 1.856619865E-01 5.687306449E-02 -4.520075216E-01
 1.739517897E-01 5.537970364E-02 -4.434666729E-01
 1.622790694E-01 5.380057544E-02 -4.374751208E-01
 1.505469680E-01 5.209174007E-02 -4.249136064E-01
 1.396857798E-01 5.041664094E-02 -4.135599647E-01
 1.281640381E-01 4.852611572E-02 -4.023841480E-01
 1.170256436E-01 4.657796398E-02 -3.914217164E-01
 1.063615382E-01 4.458244890E-02 -3.755146574E-01
 9.659128636E-02 4.264024273E-02 -3.617886927E-01
 8.588185906E-02 4.036553949E-02 -3.440605923E-01
 7.465213537E-02 3.780015185E-02 -3.276497862E-01
 6.483732164E-02 3.536479175E-02 -3.019553854E-01
 5.522775277E-02 3.278469294E-02 -2.762075362E-01
 4.642414674E-02 3.021296114E-02 -2.514157677E-01
 3.874858469E-02 2.776660584E-02 -2.211526461E-01
 3.188385442E-02 2.537258342E-02 -1.849482426E-01
 2.607132122E-02 2.315400913E-02 -1.584503268E-01
 2.172739618E-02 2.135053836E-02 -1.209752623E-01
 1.760874130E-02 1.947704144E-02 -8.474607048E-02
 1.436762232E-02 1.786780544E-02 -3.662385394E-02
 1.146052126E-02 1.629005000E-02 6.270076580E-03
 9.319855832E-03 1.501860376E-02 4.070691213E-02
 7.421985269E-03 1.379152201E-02 8.392048940E-02
 5.678455811E-03 1.254710276E-02 1.668452132E-01
 3.448224859E-03 1.073835697E-02 2.788235892E-01
 1.610601437E-03 8.935812861E-03 3.767620350E-01
 1.213873184E-04 7.085804828E-03 6.368381201E-01
 -1.275361050E-03 4.509961233E-03 8.794459897E-01
 -1.817737124E-03 2.577733947E-03 1.030612726E+00
 -1.949309953E-03 1.025759964E-03 1.112258204E+00
 -1.774812699E-03 -7.242923602E-04 1.117741159E+00
 -1.245832769E-03 -2.552605234E-03 1.032200472E+00
 -1.774061238E-04 -4.709769506E-03 9.056451842E-01
 1.373360748E-03 -6.896490231E-03 7.285380448E-01
 3.444840899E-03 -9.142263792E-03 5.564894132E-01
 5.359442439E-03 -1.086005755E-02 4.298309151E-01
 7.499408443E-03 -1.253136527E-02 3.441287343E-01
 9.243088774E-03 -1.375389192E-02 2.613270037E-01
 1.136894710E-02 -1.512611192E-02 2.124529730E-01
 1.381525025E-02 -1.656623930E-02 1.455784611E-01
 1.707692817E-02 -1.831102930E-02 8.629107879E-02
 2.007674985E-02 -1.977486722E-02 3.094198575E-02
 2.390575968E-02 -2.148944326E-02 -6.585676717E-03
 2.915469557E-02 -2.362434193E-02 -5.215216978E-02
 3.482796997E-02 -2.571407333E-02 -1.006040583E-01
 4.144606739E-02 -2.791658044E-02 -1.316714525E-01
 4.886778072E-02 -3.016129322E-02 -1.596462200E-01
 5.749608204E-02 -3.252806142E-02 -1.839173422E-01
 6.605561823E-02 -3.467629850E-02 -2.107118212E-01
 7.608462870E-02 -3.698017076E-02 -2.223896770E-01
 8.589093387E-02 -3.906393424E-02 -2.376873613E-01
 9.621393681E-02 -4.109302163E-02 -2.532434088E-01
 1.075032130E-01 -4.316045716E-02 -2.677483827E-01
 1.188731790E-01 -4.509060457E-02 -2.790241266E-01
 1.305779964E-01 -4.694707692E-02 -2.919259634E-01
 1.410972327E-01 -4.850737005E-02 -3.023307529E-01
 1.523657739E-01 -5.008344352E-02 -3.145767720E-01
 1.644667387E-01 -5.166412145E-02 -3.246643006E-01
 1.759807914E-01 -5.306984857E-02 -3.351946731E-01
 1.878227592E-01 -5.442930013E-02 -3.485058907E-01
 1.985836923E-01 -5.557880178E-02 -3.591525951E-01
 2.100681514E-01 -5.672184005E-02 -3.696424744E-01
 2.221228331E-01 -5.782425776E-02 -3.779738003E-01
 2.342538834E-01 -5.884964392E-02 -3.908226530E-01
 2.461983562E-01 -5.975876376E-02 -3.990263971E-01
 2.584365904E-01 -6.060962379E-02 -4.129375919E-01
 2.696809173E-01 -6.129756570E-02 -4.233949424E-01
 2.820337117E-01 -6.194897369E-02 -4.303707862E-01
 2.940065563E-01 -6.249026954E-02 -4.435431798E-01
 3.069495559E-01 -6.293379515E-02 -4.440390793E-01
 3.188616931E-01 -6.325116754E-02 -4.532037102E-01
 3.314220309E-01 -6.346870214E-02 -4.583688356E-01
 3.422034681E-01 -6.355062872E-02 -4.607937556E-01
 3.536970615E-01 -6.354455650E-02 -4.649191417E-01
 3.645951152E-01 -6.342644989E-02 -4.625284510E-01
 3.754894733E-01 -6.321082264E-02 -4.603462096E-01
 3.873665631E-01 -6.285083294E-02 -4.495286386E-01
 4.005919993E-01 -6.233321130E-02 -4.463566364E-01
 4.129589498E-01 -6.168365479E-02 -4.274622489E-01
 4.256157577E-01 -6.091936305E-02 -4.212226987E-01
 4.378038347E-01 -6.002466753E-02 -3.973235269E-01
 4.500642121E-01 -5.900865421E-02 -3.744955506E-01
 4.622480869E-01 -5.790217966E-02 -3.541131422E-01
 4.746239483E-01 -5.667021126E-02 -3.297026143E-01
 4.867210388E-01 -5.537864566E-02 -3.090295239E-01
 4.991483688E-01 -5.394437164E-02 -2.792065464E-01
 5.126774907E-01 -5.228983611E-02 -2.476345362E-01
 5.258380175E-01 -5.061383545E-02 -2.213239254E-01
 5.386726260E-01 -4.891103506E-02 -1.936314423E-01
 5.513513088E-01 -4.718325660E-02 -1.692140546E-01
 5.646824837E-01 -4.530158266E-02 -1.386195180E-01
 5.775823593E-01 -4.347371683E-02 -1.209392342E-01
 5.902161002E-01 -4.160721228E-02 -8.833902152E-02
 6.032968760E-01 -3.968282416E-02 -6.631167414E-02
 6.172907948E-01 -3.762188554E-02 -4.568551490E-02
 6.313798428E-01 -3.551838174E-02 -2.127616833E-02
 6.455952525E-01 -3.337444738E-02 5.599538407E-03
 6.585206389E-01 -3.145919740E-02 2.119536532E-02
 6.717545986E-01 -2.948730439E-02 4.230901001E-02
 6.842518449E-01 -2.764221467E-02 5.831929352E-02
 6.966488957E-01 -2.580862865E-02 7.805539759E-02
 7.113513947E-01 -2.365182340E-02 9.993128415E-02
 7.245371342E-01 -2.175956592E-02 1.153608722E-01
 7.364121079E-01 -2.008209378E-02 1.279207873E-01
 7.498584390E-01 -1.817536168E-02 1.505943367E-01
 7.626329064E-01 -1.641488820E-02 1.657051487E-01
 7.763056755E-01 -1.457851660E-02 1.804451628E-01
 7.885394096E-01 -1.294437796E-02 2.005583400E-01
 8.014867306E-01 -1.127391960E-02 2.166457810E-01
 8.125906587E-01 -9.883468039E-03 2.333277731E-01
 8.240460753E-01 -8.513873443E-03 2.468830608E-01
 8.370323181E-01 -7.050526794E-03 2.576494563E-01
 8.493038416E-01 -5.691935774E-03 2.796423836E-01
 8.617134690E-01 -4.443714861E-03 2.903128083E-01
 8.726523519E-01 -3.418944776E-03 3.035969126E-01
 8.838263750E-01 -2.448500367E-03 3.189486635E-01
 8.964651823E-01 -1.494999975E-03 3.279102640E-01
 9.069484472E-01 -8.296985179E-04 3.336134336E-01
 9.175470471E-01 -2.392017777E-04 3.431390753E-01
 9.278849363E-01 2.133901435E-04 3.449067194E-01
 9.372535348E-01 5.369879073E-04 3.497595050E-01
 9.491387606E-01 8.167572087E-04 3.529213717E-01
 9.623796940E-01 9.719934897E-04 3.568025889E-01
 9.763035774E-01 9.587043314E-04 3.672318700E-01
 9.892661572E-01 7.858871832E-04 3.977722437E-01
 -5.000000000E-01 -1.000000000E+00 1.441892931E-02
 3.500000000E+00 -1.000000000E+00 8.677499392E-03
 3.500000000E+00 1.000000000E+00 -2.548804126E-02
 -5.000000000E-01 1.000000000E+00 -7.619089810E-04
 9.930478036E-01 1.886428945E-03 2.235317355E-01
 9.797690213E-01 4.579488654E-03 1.337933947E-01
 9.651092291E-01 7.582835620E-03 7.543172616E-02
 9.493973255E-01 1.074321941E-02 3.922750251E-02
 9.352758229E-01 1.358761452E-02 -3.011785528E-03
 9.228668213E-01 1.609602803E-02 -3.508591454E-02
 9.114313126E-01 1.838095766E-02 -7.110000728E-02
 8.998354077E-01 2.064795978E-02 -8.915417012E-02
 8.881844282E-01 2.288911957E-02 -1.238095725E-01
 8.762888014E-01 2.512389887E-02 -1.372716831E-01
 8.641386926E-01 2.735494450E-02 -1.633140361E-01
 8.522086740E-01 2.952324226E-02 -1.905162411E-01
 8.408073187E-01 3.151767422E-02 -2.021553366E-01
 8.296459615E-01 3.342254832E-02 -2.179648960E-01
 8.179149628E-01 3.539310582E-02 -2.332890657E-01
 8.056646883E-01 3.741076030E-02 -2.548349582E-01
 7.932943702E-01 3.939452954E-02 -2.708536624E-01
 7.809291780E-01 4.131317325E-02 -2.793216475E-01
 7.690086961E-01 4.313748330E-02 -3.003595871E-01
 7.567390501E-01 4.497448727E-02 -3.154072360E-01
 7.435352206E-01 4.689310677E-02 -3.319674439E-01
 7.314736247E-01 4.860411584E-02 -3.481201604E-01
 7.204319835E-01 5.012607574E-02 -3.636368790E-01
 7.088994682E-01 5.166982487E-02 -3.760481295E-01
 6.964948475E-01 5.328120105E-02 -3.923892721E-01
 6.835423708E-01 5.491173267E-02 -4.095829150E-01
 6.717516482E-01 5.634037964E-02 -4.274434000E-01
 6.604910195E-01 5.764292553E-02 -4.349170191E-01
 6.488982439E-01 5.894100107E-02 -4.546567477E-01
 6.372996569E-01 6.018312834E-02 -4.702402009E-01
 6.254799962E-01 6.136735529E-02 -4.732648405E-01
 6.143562496E-01 6.243881769E-02 -4.948729737E-01
 6.031338871E-01 6.345483661E-02 -4.979182375E-01
 5.913558602E-01 6.445774809E-02 -5.151206958E-01
 5.787824690E-01 6.545320898E-02 -5.230639248E-01
 5.656080842E-01 6.640250608E-02 -5.315519281E-01
 5.528884828E-01 6.723669544E-02 -5.407485446E-01
 5.408314764E-01 6.794452667E-02 -5.427080136E-01
 5.291662812E-01 6.855914369E-02 -5.504923986E-01
 5.170129538E-01 6.912941486E-02 -5.529430741E-01
 5.053514391E-01 6.960476562E-02 -5.597534668E-01
 4.932692647E-01 7.001714781E-02 -5.624666578E-01
 4.799792469E-01 7.037167996E-02 -5.533846484E-01
 4.664752632E-01 7.065501809E-02 -5.589780206E-01
 4.528822452E-01 7.085868344E-02 -5.578247860E-01
 4.397614002E-01 7.095933333E-02 -5.555784084E-01
 4.268867075E-01 7.098091394E-02 -5.519401437E-01
 4.141349643E-01 7.092978805E-02 -5.497932571E-01
 4.015823901E-01 7.081011310E-02 -5.474346977E-01
 3.891905695E-01 7.062531263E-02 -5.481944204E-01
 3.772869706E-01 7.037416473E-02 -5.436940627E-01
 3.648621589E-01 7.003606111E-02 -5.360050136E-01
 3.519108295E-01 6.962365285E-02 -5.386826735E-01
 3.390026689E-01 6.912644580E-02 -5.290680085E-01
 3.271311969E-01 6.859889999E-02 -5.266159755E-01
 3.155653328E-01 6.802519783E-02 -5.227261111E-01
 3.029087335E-01 6.732260063E-02 -5.173062853E-01
 2.895253003E-01 6.649303809E-02 -5.077715391E-01
 2.765451223E-01 6.561962515E-02 -5.080760824E-01
 2.646741718E-01 6.474375352E-02 -5.060179234E-01
 2.526023462E-01 6.375680491E-02 -4.914359557E-01
 2.401889190E-01 6.266872771E-02 -4.855441264E-01
 2.278841659E-01 6.152029149E-02 -4.814829888E-01
 2.158555463E-01 6.030931696E-02 -4.752587923E-01
 2.039516121E-01 5.902118422E-02 -4.677795661E-01
 1.918158308E-01 5.761235207E-02 -4.564841251E-01
 1.798068881E-01 5.612638406E-02 -4.480241406E-01
 1.681154296E-01 5.459013954E-02 -4.421235354E-01
 1.564130187E-01 5.294615775E-02 -4.297723456E-01
 1.451163739E-01 5.125419050E-02 -4.205740323E-01
 1.339249089E-01 4.947137833E-02 -4.081617150E-01
 1.225948408E-01 4.755203985E-02 -3.973315772E-01
 1.116935909E-01 4.558020644E-02 -3.858200344E-01
 9.123657271E-02 4.150289111E-02 -3.551923489E-01
 8.026699722E-02 3.908284567E-02 -3.346073160E-01
 6.974472851E-02 3.658247180E-02 -3.206444674E-01
 7.107012346E-02 -3.582823463E-02 -2.197914759E-01
 9.105243534E-02 -4.007847793E-02 -2.509672526E-01
 1.018585749E-01 -4.212673940E-02 -2.594418541E-01
 1.131881960E-01 -4.412553087E-02 -2.748995432E-01
 1.247255877E-01 -4.601884075E-02 -2.857771896E-01
 1.358376145E-01 -4.772722349E-02 -2.989182180E-01
 1.467315033E-01 -4.929540679E-02 -3.073464532E-01
 1.584162563E-01 -5.087378249E-02 -3.194658573E-01
 1.702237651E-01 -5.236698501E-02 -3.311143667E-01
 1.819017753E-01 -5.374957435E-02 -3.411388793E-01
 1.932032257E-01 -5.500405096E-02 -3.548369479E-01
 2.043259218E-01 -5.615032092E-02 -3.638395679E-01
 2.160954922E-01 -5.727304891E-02 -3.740276087E-01
 2.281883582E-01 -5.833695084E-02 -3.842496835E-01
 2.402261198E-01 -5.930420384E-02 -3.959991257E-01
 2.523174733E-01 -6.018419378E-02 -4.048285749E-01
 2.640587538E-01 -6.095359474E-02 -4.193971143E-01
 2.758573145E-01 -6.162326969E-02 -4.260073673E-01
 2.880201340E-01 -6.221962161E-02 -4.364437718E-01
 3.004780561E-01 -6.271203235E-02 -4.447144197E-01
 3.129056245E-01 -6.309248134E-02 -4.483778787E-01
 3.251418620E-01 -6.335993484E-02 -4.554785351E-01
 3.368127495E-01 -6.350966543E-02 -4.616136715E-01
 3.479502648E-01 -6.354759261E-02 -4.611832541E-01
 3.591460884E-01 -6.348550320E-02 -4.651758706E-01
 3.700422943E-01 -6.331863627E-02 -4.614138104E-01
 3.814280182E-01 -6.303082779E-02 -4.552133003E-01
 3.939792812E-01 -6.259202212E-02 -4.456978612E-01
 4.067754745E-01 -6.200843304E-02 -4.403411276E-01
 4.192873538E-01 -6.130150892E-02 -4.218249596E-01
 4.317097962E-01 -6.047201529E-02 -4.122592555E-01
 4.439340234E-01 -5.951666087E-02 -3.863403961E-01
 4.561561495E-01 -5.845541693E-02 -3.643363394E-01
 4.684360176E-01 -5.728619546E-02 -3.427053985E-01
 4.806724936E-01 -5.602442846E-02 -3.192828415E-01
 4.929347038E-01 -5.466150865E-02 -2.950700147E-01
 5.059129298E-01 -5.311710387E-02 -2.635964973E-01
 5.192577541E-01 -5.145183578E-02 -2.343372337E-01
 5.322553217E-01 -4.976243526E-02 -2.080379202E-01
 5.450119674E-01 -4.804714583E-02 -1.813965457E-01
 5.580168962E-01 -4.624241963E-02 -1.549129114E-01
 5.711324215E-01 -4.438764974E-02 -1.283021485E-01
 5.838992298E-01 -4.254046455E-02 -1.078664950E-01
 5.967564881E-01 -4.064501822E-02 -7.614368826E-02
 6.102938354E-01 -3.865235485E-02 -5.517335238E-02
 6.243353188E-01 -3.657013364E-02 -3.398544249E-02
 6.384875476E-01 -3.444641456E-02 -8.851230431E-03
 6.520579457E-01 -3.241682239E-02 1.518339882E-02
 6.651376188E-01 -3.047325090E-02 3.118902109E-02
 6.780032218E-01 -2.856475953E-02 5.093161552E-02
 6.904503703E-01 -2.672542166E-02 6.745754396E-02
 7.040001452E-01 -2.473022603E-02 8.814666164E-02
 7.179442644E-01 -2.270569466E-02 1.087200950E-01
 7.304746211E-01 -2.092082985E-02 1.226506043E-01
 7.431352735E-01 -1.912872773E-02 1.376646421E-01
 7.562456727E-01 -1.729512494E-02 1.585466986E-01
 7.694692910E-01 -1.549670240E-02 1.735275804E-01
 7.824225426E-01 -1.376144728E-02 1.893545583E-01
 7.950130701E-01 -1.210914878E-02 2.087070536E-01
 8.070386946E-01 -1.057869382E-02 2.253955071E-01
 8.183183670E-01 -9.198670741E-03 2.396230977E-01
 8.305391967E-01 -7.782200119E-03 2.525652208E-01
 8.431680799E-01 -6.371231284E-03 2.667478923E-01
 8.555086553E-01 -5.067825317E-03 2.859411623E-01
 8.671829104E-01 -3.931329818E-03 2.975110091E-01
 8.782393634E-01 -2.933722571E-03 3.093016935E-01
 8.901457787E-01 -1.971750171E-03 3.225668226E-01
 9.017068148E-01 -1.162349246E-03 3.334247713E-01
 9.122477472E-01 -5.344501478E-04 3.376011969E-01
 9.227159917E-01 -1.290581713E-05 3.461084468E-01
 9.431961477E-01 6.768725580E-04 3.515114144E-01
 9.557592273E-01 8.943753492E-04 3.536293864E-01
 9.693416357E-01 9.653489105E-04 3.601071561E-01
 9.827848673E-01 8.722957573E-04 3.744324006E-01
 9.946056902E-01 6.495140260E-04 4.477692811E-01
 -5.000000000E-01 9.500000000E-01 -8.906026564E-04
 -5.000000000E-01 9.000000000E-01 -6.645312337E-04
 -5.000000000E-01 8.500000000E-01 3.240243971E-04
 -5.000000000E-01 8.000000000E-01 2.056145362E-03
 -5.000000000E-01 7.500000000E-01 4.552213343E-03
 -5.000000000E-01 7.000000000E-01 7.876207040E-03
 -5.000000000E-01 6.500000000E-01 1.213280467E-02
 -5.000000000E-01 6.000000000E-01 1.729138144E-02
 -5.000000000E-01 5.500000000E-01 2.338278368E-02
 -5.000000000E-01 5.000000000E-01 3.037402205E-02
 -5.000000000E-01 4.500000000E-01 3.835846098E-02
 -5.000000000E-01 4.000000000E-01 4.674932956E-02
 -5.000000000E-01 3.500000000E-01 5.633134844E-02
 -5.000000000E-01 3.000000000E-01 6.544575310E-02
 -5.000000000E-01 2.500000000E-01 7.526822108E-02
 -5.000000000E-01 2.000000000E-01 8.443079783E-02
 -5.000000000E-01 1.500000000E-01 9.290625599E-02
 -5.000000000E-01 1.000000000E-01 9.985769014E-02
 -5.000000000E-01 5.000000000E-02 1.053400118E-01
 -5.000000000E-01 2.752242878E-12 1.088373274E-01
 -5.000000000E-01 -5.000000000E-02 1.103206156E-01
 -5.000000000E-01 -1.000000000E-01 1.096342357E-01
 -5.000000000E-01 -1.500000000E-01 1.071421404E-01
 -5.000000000E-01 -2.000000000E-01 1.029625930E-01
 -5.000000000E-01 -2.500000000E-01 9.776140305E-02
 -5.000000000E-01 -3.000000000E-01 9.167799632E-02
 -5.000000000E-01 -3.500000000E-01 8.517618498E-02
 -5.000000000E-01 -4.000000000E-01 7.849322499E-02
 -5.000000000E-01 -4.500000000E-01 7.199018603E-02
 -5.000000000E-01 -5.000000000E-01 6.557409660E-02
 -5.000000000E-01 -5.500000000E-01 5.973890486E-02
 -5.000000000E-01 -6.000000000E-01 5.411545794E-02
 -5.000000000E-01 -6.500000000E-01 4.899800900E-02
 -5.000000000E-01 -7.000000000E-01 4.421687967E-02
 -5.000000000E-01 -7.500000000E-01 3.978699416E-02
 -5.000000000E-01 -8.000000000E-01 3.556057280E-02
 -5.000000000E-01 -8.500000000E-01 3.130059690E-02
 -5.000000000E-01 -9.000000000E-01 2.670317510E-02
 -5.000000000E-01 -9.500000000E-01 1.979490743E-02
 -4.500000000E-01 -1.000000000E+00 1.806642789E-02
 -4.000000000E-01 -1.000000000E+00 2.345951900E-02
 -3.500000000E-01 -1.000000000E+00 2.587599662E-02
 -3.000000000E-01 -1.000000000E+00 2.711642036E-02
 -2.500000000E-01 -1.000000000E+00 2.744820689E-02
 -2.000000000E-01 -1.000000000E+00 2.697715123E-02
 -1.500000000E-01 -1.000000000E+00 2.566706353E-02
 -1.000000000E-01 -1.000000000E+00 2.371432578E-02
 -5.000000000E-02 -1.000000000E+00 2.109460800E-02
 -9.424683256E-13 -1.000000000E+00 1.804657497E-02
 5.000000000E-02 -1.000000000E+00 1.462163552E-02
 1.000000000E-01 -1.000000000E+00 1.104674704E-02
 1.500000000E-01 -1.000000000E+00 7.369482911E-03
 2.000000000E-01 -1.000000000E+00 3.867054417E-03
 2.500000000E-01 -1.000000000E+00 4.205313668E-04
 3.000000000E-01 -1.000000000E+00 -2.413000482E-03
 3.500000000E-01 -1.000000000E+00 -4.614772887E-03
 4.000000000E-01 -1.000000000E+00 -6.213879625E-03
 4.500000000E-01 -1.000000000E+00 -7.019171821E-03
 5.000000000E-01 -1.000000000E+00 -7.067841847E-03
 5.500000000E-01 -1.000000000E+00 -6.275928382E-03
 6.000000000E-01 -1.000000000E+00 -4.727055843E-03
 6.500000000E-01 -1.000000000E+00 -2.513972293E-03
 7.000000000E-01 -1.000000000E+00 2.550015820E-04
 7.500000000E-01 -1.000000000E+00 3.461911664E-03
 8.000000000E-01 -1.000000000E+00 6.955351642E-03
 8.500000000E-01 -1.000000000E+00 1.054467854E-02
 9.000000000E-01 -1.000000000E+00 1.433848698E-02
 9.500000000E-01 -1.000000000E+00 1.792021957E-02
 1.000000000E+00 -1.000000000E+00 2.121976588E-02
 1.050000000E+00 -1.000000000E+00 2.427601668E-02
 1.100000000E+00 -1.000000000E+00 2.703153857E-02
 1.150000000E+00 -1.000000000E+00 2.945638915E-02
 1.200000000E+00 -1.000000000E+00 3.147342938E-02
 1.250000000E+00 -1.000000000E+00 3.310105414E-02
 1.300000000E+00 -1.000000000E+00 3.436456163E-02
 1.350000000E+00 -1.000000000E+00 3.531543343E-02
 1.400000000E+00 -1.000000000E+00 3.589384673E-02
 1.450000000E+00 -1.000000000E+00 3.623126111E-02
 1.500000000E+00 -1.000000000E+00 3.629139913E-02
 1.550000000E+00 -1.000000000E+00 3.618032860E-02
 1.600000000E+00 -1.000000000E+00 3.586786102E-02
 1.650000000E+00 -1.000000000E+00 3.543691048E-02
 1.700000000E+00 -1.000000000E+00 3.487343132E-02
 1.750000000E+00 -1.000000000E+00 3.423250430E-02
 1.800000000E+00 -1.000000000E+00 3.352640698E-02
 1.850000000E+00 -1.000000000E+00 3.275813522E-02
 1.900000000E+00 -1.000000000E+00 3.200725422E-02
 1.950000000E+00 -1.000000000E+00 3.119727897E-02
 2.000000000E+00 -1.000000000E+00 3.039646869E-02
 2.050000000E+00 -1.000000000E+00 2.957130102E-02
 2.100000000E+00 -1.000000000E+00 2.876678855E-02
 2.150000000E+00 -1.000000000E+00 2.800821894E-02
 2.200000000E+00 -1.000000000E+00 2.729756958E-02
 2.250000000E+00 -1.000000000E+00 2.659765771E-02
 2.300000000E+00 -1.000000000E+00 2.594452966E-02
 2.350000000E+00 -1.000000000E+00 2.529107766E-02
 2.400000000E+00 -1.000000000E+00 2.476142965E-02
 2.450000000E+00 -1.000000000E+00 2.416786951E-02
 2.500000000E+00 -1.000000000E+00 2.371597375E-02
 2.550000000E+00 -1.000000000E+00 2.320126085E-02
 2.600000000E+00 -1.000000000E+00 2.276569531E-02
 2.650000000E+00 -1.000000000E+00 2.237736572E-02
 2.700000000E+00 -1.000000000E+00 2.201772235E-02
 2.750000000E+00 -1.000000000E+00 2.169477777E-02
 2.800000000E+00 -1.000000000E+00 2.139008063E-02
 2.850000000E+00 -1.000000000E+00 2.112085116E-02
 2.900000000E+00 -1.000000000E+00 2.086383672E-02
 2.950000000E+00 -1.000000000E+00 2.059299846E-02
 3.000000000E+00 -1.000000000E+00 2.033305484E-02
 3.050000000E+00 -1.000000000E+00 2.003934795E-02
 3.100000000E+00 -1.000000000E+00 1.972044607E-02
 3.150000000E+00 -1.000000000E+00 1.933987869E-02
 3.200000000E+00 -1.000000000E+00 1.887450619E-02
 3.250000000E+00 -1.000000000E+00 1.827856553E-02
 3.300000000E+00 -1.000000000E+00 1.746562104E-02
 3.350000000E+00 -1.000000000E+00 1.634843702E-02
 3.400000000E+00 -1.000000000E+00 1.462447158E-02
 3.450000000E+00 -1.000000000E+00 1.181269586E-02
 3.500000000E+00 -9.500000000E-01 7.867226692E-03
 3.500000000E+00 -9.000000000E-01 9.495704383E-03
 3.500000000E+00 -8.500000000E-01 1.080608517E-02
 3.500000000E+00 -8.000000000E-01 1.241531082E-02
 3.500000000E+00 -7.500000000E-01 1.401865012E-02
 3.500000000E+00 -7.000000000E-01 1.562088410E-02
 3.500000000E+00 -6.500000000E-01 1.719757402E-02
 3.500000000E+00 -6.000000000E-01 1.904746422E-02
 3.500000000E+00 -5.500000000E-01 2.098024624E-02
 3.500000000E+00 -5.000000000E-01 2.312110987E-02
 3.500000000E+00 -4.500000000E-01 2.529732433E-02
 3.500000000E+00 -4.000000000E-01 2.762131914E-02
 3.500000000E+00 -3.500000000E-01 2.994865815E-02
 3.500000000E+00 -3.000000000E-01 3.214334198E-02
 3.500000000E+00 -2.500000000E-01 3.386321675E-02
 3.500000000E+00 -2.000000000E-01 3.483913228E-02
 3.500000000E+00 -1.500000000E-01 3.494992889E-02
 3.500000000E+00 -1.000000000E-01 3.438068296E-02
 3.500000000E+00 -5.000000000E-02 3.353742419E-02
 3.500000000E+00 -2.752242878E-12 3.277752530E-02
 3.500000000E+00 5.000000000E-02 3.202233993E-02
 3.500000000E+00 1.000000000E-01 3.060918657E-02
 3.500000000E+00 1.500000000E-01 2.884914743E-02
 3.500000000E+00 2.000000000E-01 2.579965162E-02
 3.500000000E+00 2.500000000E-01 2.251536359E-02
 3.500000000E+00 3.000000000E-01 1.926800323E-02
 3.500000000E+00 3.500000000E-01 1.607442733E-02
 3.500000000E+00 4.000000000E-01 1.317420873E-02
 3.500000000E+00 4.500000000E-01 1.034173134E-02
 3.500000000E+00 5.000000000E-01 7.832461181E-03
 3.500000000E+00 5.500000000E-01 5.845421217E-03
 3.500000000E+00 6.000000000E-01 4.495061334E-03
 3.500000000E+00 6.500000000E-01 3.870659163E-03
 3.500000000E+00 7.000000000E-01 3.702604675E-03
 3.500000000E+00 7.500000000E-01 3.259929265E-03
 3.500000000E+00 8.000000000E-01 1.157379479E-04
 3.500000000E+00 8.500000000E-01 -5.994357864E-03
 3.500000000E+00 9.000000000E-01 -1.406318327E-02
 3.500000000E+00 9.500000000E-01 -2.517663365E-02
 3.450000000E+00 1.000000000E+00 -1.540684978E-02
 3.400000000E+00 1.000000000E+00 -6.881800435E-03
 3.350000000E+00 1.000000000E+00 -2.916839710E-03
 3.300000000E+00 1.000000000E+00 -8.688498290E-04
 3.250000000E+00 1.000000000E+00 2.372866526E-04
 3.200000000E+00 1.000000000E+00 8.330385457E-04
 3.150000000E+00 1.000000000E+00 1.112883937E-03
 3.100000000E+00 1.000000000E+00 1.098972387E-03
 3.050000000E+00 1.000000000E+00 7.435956460E-04
 3.000000000E+00 1.000000000E+00 5.455956417E-04
 2.950000000E+00 1.000000000E+00 1.457287989E-04
 2.900000000E+00 1.000000000E+00 -3.984846639E-04
 2.850000000E+00 1.000000000E+00 -9.314460350E-04
 2.800000000E+00 1.000000000E+00 -1.904941642E-03
 2.750000000E+00 1.000000000E+00 -2.635825935E-03
 2.700000000E+00 1.000000000E+00 -3.599456564E-03
 2.650000000E+00 1.000000000E+00 -4.600663771E-03
 2.600000000E+00 1.000000000E+00 -5.226488930E-03
 2.550000000E+00 1.000000000E+00 -6.525846184E-03
 2.500000000E+00 1.000000000E+00 -7.831672899E-03
 2.450000000E+00 1.000000000E+00 -9.088961239E-03
 2.400000000E+00 1.000000000E+00 -1.022028899E-02
 2.350000000E+00 1.000000000E+00 -1.195238537E-02
 2.300000000E+00 1.000000000E+00 -1.323903111E-02
 2.250000000E+00 1.000000000E+00 -1.515985124E-02
 2.200000000E+00 1.000000000E+00 -1.677445463E-02
 2.150000000E+00 1.000000000E+00 -1.866835908E-02
 2.100000000E+00 1.000000000E+00 -2.067644553E-02
 2.050000000E+00 1.000000000E+00 -2.271833039E-02
 2.000000000E+00 1.000000000E+00 -2.518597213E-02
 1.950000000E+00 1.000000000E+00 -2.763613245E-02
 1.900000000E+00 1.000000000E+00 -3.003289941E-02
 1.850000000E+00 1.000000000E+00 -3.334142589E-02
 1.800000000E+00 1.000000000E+00 -3.569089429E-02
 1.750000000E+00 1.000000000E+00 -3.937484931E-02
 1.700000000E+00 1.000000000E+00 -4.287970211E-02
 1.650000000E+00 1.000000000E+00 -4.694837247E-02
 1.600000000E+00 1.000000000E+00 -5.047939777E-02
 1.550000000E+00 1.000000000E+00 -5.534677332E-02
 1.500000000E+00 1.000000000E+00 -5.934201700E-02
 1.450000000E+00 1.000000000E+00 -6.458270993E-02
 1.400000000E+00 1.000000000E+00 -6.970062374E-02
 1.350000000E+00 1.000000000E+00 -7.518659028E-02
 1.300000000E+00 1.000000000E+00 -8.082798386E-02
 1.250000000E+00 1.000000000E+00 -8.659652543E-02
 1.200000000E+00 1.000000000E+00 -9.270837952E-02
 1.150000000E+00 1.000000000E+00 -9.836484683E-02
 1.100000000E+00 1.000000000E+00 -1.045719227E-01
 1.050000000E+00 1.000000000E+00 -1.099433230E-01
 1.000000000E+00 1.000000000E+00 -1.152437049E-01
 9.500000000E-01 1.000000000E+00 -1.194973394E-01
 9.000000000E-01 1.000000000E+00 -1.242528542E-01
 8.500000000E-01 1.000000000E+00 -1.272886770E-01
 8.000000000E-01 1.000000000E+00 -1.302099517E-01
 7.500000000E-01 1.000000000E+00 -1.313422949E-01
 7.000000000E-01 1.000000000E+00 -1.315422939E-01
 6.500000000E-01 1.000000000E+00 -1.303427655E-01
 6.000000000E-01 1.000000000E+00 -1.276476498E-01
 5.500000000E-01 1.000000000E+00 -1.247081409E-01
 5.000000000E-01 1.000000000E+00 -1.193875085E-01
 4.500000000E-01 1.000000000E+00 -1.136306509E-01
 4.000000000E-01 1.000000000E+00 -1.065211135E-01
 3.500000000E-01 1.000000000E+00 -9.861390605E-02
 3.000000000E-01 1.000000000E+00 -9.020064132E-02
 2.500000000E-01 1.000000000E+00 -8.177696968E-02
 2.000000000E-01 1.000000000E+00 -7.279594810E-02
 1.500000000E-01 1.000000000E+00 -6.370469806E-02
 1.000000000E-01 1.000000000E+00 -5.477413983E-02
 5.000000000E-02 1.000000000E+00 -4.641719960E-02
 1.733724275E-12 1.000000000E+00 -3.821013681E-02
 -5.000000000E-02 1.000000000E+00 -3.104817032E-02
 -1.000000000E-01 1.000000000E+00 -2.442837246E-02
 -1.500000000E-01 1.000000000E+00 -1.833555990E-02
 -2.000000000E-01 1.000000000E+00 -1.341930965E-02
 -2.500000000E-01 1.000000000E+00 -9.262505899E-03
 -3.000000000E-01 1.000000000E+00 -6.179279898E-03
 -3.500000000E-01 1.000000000E+00 -3.742987819E-03
 -4.000000000E-01 1.000000000E+00 -2.175761296E-03
 -4.500000000E-01 1.000000000E+00 -1.125987065E-03
 8.983851641E-01 -5.669860920E-03 3.233862316E-01
 8.218692756E-01 -1.383858479E-02 2.399702218E-01
 9.859572642E-01 -4.290023469E-03 3.816781944E-01
 7.472922978E-01 -2.421801209E-02 1.426721307E-01
 6.756274981E-01 -3.420368313E-02 4.587151253E-02
 6.076982168E-01 -4.468346334E-02 -6.012034656E-02
 5.425397623E-01 -5.367192738E-02 -1.837702862E-01
 4.779682901E-01 -6.167568363E-02 -3.165314621E-01
 4.227940959E-01 -6.599057749E-02 -4.106037518E-01
 3.674120741E-01 -6.808993854E-02 -4.506075040E-01
 3.163740367E-01 -6.846732498E-02 -4.401746342E-01