TITLE     = "Visualization of the solution"
VARIABLES = "x"
"y"
"Pressure_Coefficient"
ZONE T="Zone"
 STRANDID=0, SOLUTIONTIME=0
 Nodes=12250, Elements=23918, ZONETYPE=FEQuadrilateral
 DATAPACKING=POINT
 DT=(DOUBLE DOUBLE DOUBLE )
 9.999669790E-01 5.316858296E-04 2.256673166E-01
 9.862888455E-01 2.963452833E-03 1.432887826E-01
 9.737786651E-01 5.139494780E-03 8.924397876E-02
 9.595044851E-01 7.604724262E-03 4.911067515E-02
 9.464802146E-01 9.866754524E-03 5.926552748E-03
 9.341657758E-01 1.194650866E-02 -1.674477189E-02
 9.235409498E-01 1.377822552E-02 -6.151769885E-02
 9.109959006E-01 1.579233073E-02 -7.428058370E-02
 8.992576003E-01 1.770171337E-02 -1.155798790E-01
 8.864462972E-01 1.961633563E-02 -1.278362126E-01
 8.737925887E-01 2.145137452E-02 -1.431080243E-01
 8.616700172E-01 2.315549180E-02 -1.607652856E-01
 8.492041826E-01 2.482215501E-02 -1.698434517E-01
 8.372488022E-01 2.636510320E-02 -1.754456222E-01
 8.253021240E-01 2.788084932E-02 -1.842046083E-01
 8.123156428E-01 2.950225584E-02 -2.003569627E-01
 7.993229032E-01 3.105041198E-02 -2.056706059E-01
 7.871780396E-01 3.247005120E-02 -2.117250520E-01
 7.744783163E-01 3.394269571E-02 -2.239225377E-01
 7.620812654E-01 3.535243869E-02 -2.373408007E-01
 7.488467693E-01 3.680455685E-02 -2.451307739E-01
 7.351215482E-01 3.828363493E-02 -2.555379550E-01
 7.240318060E-01 3.946696222E-02 -2.718561091E-01
 7.120950818E-01 4.068223014E-02 -2.776222077E-01
 7.000538111E-01 4.189182073E-02 -2.896536434E-01
 6.864024997E-01 4.322072119E-02 -3.033413413E-01
 6.730879545E-01 4.447007924E-02 -3.174120139E-01
 6.620964408E-01 4.545864463E-02 -3.264417100E-01
 6.497337818E-01 4.652904719E-02 -3.385603760E-01
 6.385400295E-01 4.744903371E-02 -3.443866140E-01
 6.264238358E-01 4.842028767E-02 -3.600663559E-01
 6.148007512E-01 4.928869754E-02 -3.696462014E-01
 6.035419106E-01 5.007163063E-02 -3.713864715E-01
 5.913542509E-01 5.089661106E-02 -3.861267595E-01
 5.793956518E-01 5.163965374E-02 -3.940775839E-01
 5.659453273E-01 5.240657926E-02 -4.041284637E-01
 5.530187488E-01 5.306367949E-02 -4.094882158E-01
 5.402491689E-01 5.364678800E-02 -4.158304257E-01
 5.290499330E-01 5.410166830E-02 -4.210183065E-01
 5.168718100E-01 5.452605337E-02 -4.217137927E-01
 5.042653680E-01 5.491134897E-02 -4.271614870E-01
 4.935708046E-01 5.519042909E-02 -4.348510710E-01
 4.805784523E-01 5.542357266E-02 -4.290589073E-01
 4.680092931E-01 5.559129268E-02 -4.260008381E-01
 4.544396102E-01 5.571798980E-02 -4.312996210E-01
 4.408241212E-01 5.575395748E-02 -4.292935023E-01
 4.280328155E-01 5.571642146E-02 -4.265581770E-01
 4.148727059E-01 5.560949817E-02 -4.256553704E-01
 4.025975764E-01 5.543814227E-02 -4.205224156E-01
 3.899190724E-01 5.520118773E-02 -4.152667467E-01
 3.779444396E-01 5.493241921E-02 -4.163596760E-01
 3.666813076E-01 5.461290106E-02 -4.090642246E-01
 3.538671732E-01 5.419505388E-02 -4.017536028E-01
 3.420155048E-01 5.377462879E-02 -4.033331153E-01
 3.299961090E-01 5.327793211E-02 -3.998239422E-01
 3.197618723E-01 5.280176550E-02 -3.896664512E-01
 3.081864119E-01 5.223775283E-02 -3.889888167E-01
 2.954813540E-01 5.154760182E-02 -3.822732517E-01
 2.818780243E-01 5.074212700E-02 -3.757241315E-01
 2.693494558E-01 4.994276911E-02 -3.713008531E-01
 2.572886646E-01 4.911100864E-02 -3.636840041E-01
 2.446949631E-01 4.818997905E-02 -3.590184257E-01
 2.316055745E-01 4.715937749E-02 -3.515372456E-01
 2.193276584E-01 4.613345489E-02 -3.444321017E-01
 2.074314803E-01 4.508948326E-02 -3.407046491E-01
 1.957257241E-01 4.399707168E-02 -3.332006472E-01
 1.832465976E-01 4.277063161E-02 -3.284394644E-01
 1.712790877E-01 4.152366892E-02 -3.206466653E-01
 1.591535211E-01 4.019672051E-02 -3.157350526E-01
 1.472288519E-01 3.881669790E-02 -3.120308829E-01
 1.359650642E-01 3.742806986E-02 -3.014514550E-01
 1.245813519E-01 3.596465662E-02 -2.977379809E-01
 1.132262424E-01 3.441675380E-02 -2.930932095E-01
 1.022120938E-01 3.282260522E-02 -2.864681585E-01
 9.222587198E-02 3.130058572E-02 -2.831527337E-01
 8.117199689E-02 2.950010262E-02 -2.772398594E-01
 6.975051016E-02 2.749925666E-02 -2.741021221E-01
 6.039545685E-02 2.573268488E-02 -2.702402703E-01
 5.126200616E-02 2.386603691E-02 -2.654702459E-01
 4.272795841E-02 2.196286432E-02 -2.645598638E-01
 3.523085639E-02 2.013099380E-02 -2.615842111E-01
 2.886754461E-02 1.840819791E-02 -2.574741897E-01
 2.335730195E-02 1.676809974E-02 -2.603534360E-01
 1.934521459E-02 1.544270106E-02 -2.473431128E-01
 1.563422754E-02 1.409021392E-02 -2.446790477E-01
 1.289375406E-02 1.299036015E-02 -2.396695190E-01
 1.050316729E-02 1.193927601E-02 -2.310814145E-01
 8.800599724E-03 1.111065131E-02 -2.137114442E-01
 7.183631416E-03 1.026503835E-02 -2.017416314E-01
 5.632103421E-03 9.359550662E-03 -1.452985227E-01
 3.613068489E-03 8.019056171E-03 -7.637743063E-02
 1.920152339E-03 6.655957550E-03 1.749954359E-02
 5.389417638E-04 5.272370297E-03 2.310420686E-01
 -8.183348109E-04 3.384831361E-03 4.863921260E-01
 -1.515636919E-03 1.827946631E-03 7.281906841E-01
 -1.831609872E-03 5.375403562E-04 9.121578576E-01
 -1.917783287E-03 -1.027245307E-03 1.079975663E+00
 -1.621987903E-03 -2.971735317E-03 1.117719052E+00
 -7.840288454E-04 -5.182183348E-03 1.038847772E+00
 6.504729390E-04 -7.560242899E-03 9.073267487E-01
 2.705072286E-03 -1.005311310E-02 7.221453824E-01
 4.590026569E-03 -1.191863883E-02 5.884220108E-01
 6.822430529E-03 -1.382365078E-02 4.913130087E-01
 8.517959155E-03 -1.512279082E-02 3.954903030E-01
 1.061235275E-02 -1.658946648E-02 3.377347022E-01
 1.304154471E-02 -1.815252937E-02 2.594296308E-01
 1.628825068E-02 -2.004616894E-02 1.901092557E-01
 1.950627379E-02 -2.176237106E-02 1.186143719E-01
 2.351046540E-02 -2.371451259E-02 5.989168940E-02
 2.891746722E-02 -2.610852011E-02 -6.852711960E-04
 3.452166915E-02 -2.834684029E-02 -6.427100272E-02
 4.149893299E-02 -3.086212091E-02 -1.053031249E-01
 4.903323576E-02 -3.333174065E-02 -1.488987906E-01
 5.763580650E-02 -3.588808700E-02 -1.825373915E-01
 6.633579731E-02 -3.824822605E-02 -2.131411812E-01
 7.661370188E-02 -4.081031308E-02 -2.412777757E-01
 8.654849976E-02 -4.307497293E-02 -2.633704533E-01
 9.729041904E-02 -4.533609748E-02 -2.812824915E-01
 1.085395068E-01 -4.752787203E-02 -2.970741045E-01
 1.203717738E-01 -4.967034236E-02 -3.146605038E-01
 1.319402009E-01 -5.160951242E-02 -3.277746992E-01
 1.426918358E-01 -5.330027267E-02 -3.426020239E-01
 1.539997458E-01 -5.496979877E-02 -3.563295844E-01
 1.658368856E-01 -5.659704655E-02 -3.675710930E-01
 1.774454862E-01 -5.809202790E-02 -3.821520570E-01
 1.892815530E-01 -5.950775743E-02 -3.935144423E-01
 1.997138560E-01 -6.066791713E-02 -4.034991946E-01
 2.111812532E-01 -6.186564267E-02 -4.165735833E-01
 2.233091295E-01 -6.302448362E-02 -4.252593003E-01
 2.354414016E-01 -6.409860402E-02 -4.408693491E-01
 2.472671717E-01 -6.504151970E-02 -4.522049507E-01
 2.595706284E-01 -6.592085212E-02 -4.640664631E-01
 2.708943486E-01 -6.662566215E-02 -4.703625325E-01
 2.834350169E-01 -6.731647253E-02 -4.825217745E-01
 2.958948612E-01 -6.788820028E-02 -4.910962123E-01
 3.085660636E-01 -6.835429370E-02 -5.006378366E-01
 3.200816810E-01 -6.867045164E-02 -5.085068596E-01
 3.321385086E-01 -6.888262928E-02 -5.106771882E-01
 3.424565196E-01 -6.897751242E-02 -5.162348636E-01
 3.537702262E-01 -6.897860765E-02 -5.162278243E-01
 3.649033606E-01 -6.888703257E-02 -5.227118162E-01
 3.757716715E-01 -6.867376715E-02 -5.167973749E-01
 3.873955309E-01 -6.832025945E-02 -5.037814525E-01
 3.997709453E-01 -6.785037369E-02 -5.041496692E-01
 4.118415415E-01 -6.723394990E-02 -4.870327001E-01
 4.247792661E-01 -6.645169854E-02 -4.738800996E-01
 4.371364117E-01 -6.556934118E-02 -4.559982576E-01
 4.503816366E-01 -6.448439509E-02 -4.327612222E-01
 4.629216194E-01 -6.334992498E-02 -4.163433105E-01
 4.754690826E-01 -6.207881868E-02 -3.896670457E-01
 4.875409305E-01 -6.074166298E-02 -3.597653213E-01
 4.995217025E-01 -5.933297053E-02 -3.300411921E-01
 5.129759908E-01 -5.769813433E-02 -3.097160693E-01
 5.263071656E-01 -5.596697330E-02 -2.789297212E-01
 5.392186642E-01 -5.422357842E-02 -2.534923701E-01
 5.528287888E-01 -5.228395388E-02 -2.155526933E-01
 5.657622218E-01 -5.043692142E-02 -1.966616974E-01
 5.792393684E-01 -4.845666513E-02 -1.725366310E-01
 5.920528173E-01 -4.650181904E-02 -1.405124018E-01
 6.048364639E-01 -4.454578087E-02 -1.193092217E-01
 6.179208159E-01 -4.252232611E-02 -9.568034119E-02
 6.316947341E-01 -4.036810994E-02 -7.096658499E-02
 6.449572444E-01 -3.828164190E-02 -4.804516842E-02
 6.585564613E-01 -3.614097461E-02 -2.681330797E-02
 6.721907854E-01 -3.399528190E-02 -6.468522960E-03
 6.847581267E-01 -3.200604022E-02 1.585514717E-02
 6.975782514E-01 -3.000606224E-02 3.091741800E-02
 7.121675014E-01 -2.771403268E-02 5.506489420E-02
 7.254104614E-01 -2.567869052E-02 6.706217610E-02
 7.368555665E-01 -2.387538180E-02 9.370130538E-02
 7.498354912E-01 -2.191138640E-02 1.029993293E-01
 7.624101043E-01 -1.998253167E-02 1.286263359E-01
 7.755827308E-01 -1.801601984E-02 1.454710411E-01
 7.879015207E-01 -1.623973064E-02 1.550736522E-01
 8.000050187E-01 -1.445301250E-02 1.838262412E-01
 8.110018969E-01 -1.288652699E-02 2.027857509E-01
 8.226008415E-01 -1.135478448E-02 2.074309376E-01
 8.347072601E-01 -9.745544754E-03 2.301307836E-01
 8.468192816E-01 -8.215392008E-03 2.459995517E-01
 8.586479425E-01 -6.785238627E-03 2.655228597E-01
 8.700662851E-01 -5.518582184E-03 2.777999406E-01
 8.817391992E-01 -4.322010092E-03 2.909609234E-01
 8.947126865E-01 -3.126527183E-03 3.013585373E-01
 9.046110511E-01 -2.300120424E-03 3.131580625E-01
 9.152011275E-01 -1.542127808E-03 3.206585339E-01
 9.254177809E-01 -9.200268541E-04 3.242750769E-01
 9.352717400E-01 -4.215211375E-04 3.292525996E-01
 9.486053586E-01 7.968844875E-05 3.300994674E-01
 9.630675912E-01 4.296613042E-04 3.321112717E-01
 9.772437811E-01 5.924811121E-04 3.401664607E-01
 9.897828698E-01 5.891405162E-04 3.611166754E-01
 -5.000000000E-01 -1.000000000E+00 9.545313073E-03
 3.500000000E+00 -1.000000000E+00 4.944307796E-03
 3.500000000E+00 1.000000000E+00 -1.225461530E-02
 -5.000000000E-01 1.000000000E+00 2.049051071E-03
 9.931279123E-01 1.747569331E-03 2.143180730E-01
 9.800337553E-01 4.051473807E-03 1.138847880E-01
 9.666415751E-01 6.372109521E-03 6.837614218E-02
 9.529923499E-01 8.735739393E-03 2.514324739E-02
 9.403229952E-01 1.090663159E-02 -3.450419632E-03
 9.288533628E-01 1.286236709E-02 -4.531747642E-02
 9.172684252E-01 1.478527812E-02 -6.468168472E-02
 9.051267505E-01 1.674702205E-02 -1.010706992E-01
 8.928519487E-01 1.865902450E-02 -1.203817396E-01
 8.801194429E-01 2.053385507E-02 -1.348553149E-01
 8.677313030E-01 2.230343316E-02 -1.533756350E-01
 8.554370999E-01 2.398882341E-02 -1.647523264E-01
 8.432264924E-01 2.559362911E-02 -1.714785806E-01
 8.312754631E-01 2.712297626E-02 -1.794038292E-01
 8.188088834E-01 2.869155258E-02 -1.939387740E-01
 8.058192730E-01 3.027633391E-02 -2.021369621E-01
 7.932504714E-01 3.176023159E-02 -2.076438533E-01
 7.808281779E-01 3.320637345E-02 -2.179019249E-01
 7.682797909E-01 3.464756720E-02 -2.317265348E-01
 7.554640174E-01 3.607849777E-02 -2.405368856E-01
 7.419841588E-01 3.754409589E-02 -2.493640790E-01
 7.295766771E-01 3.887529857E-02 -2.658009378E-01
 7.180634439E-01 4.007459618E-02 -2.735603118E-01
 7.060744464E-01 4.128702544E-02 -2.840751265E-01
 6.932281554E-01 4.255627096E-02 -2.966953607E-01
 6.797452271E-01 4.384540021E-02 -3.102320599E-01
 6.675921977E-01 4.496436194E-02 -3.221068748E-01
 6.559151113E-01 4.599384591E-02 -3.326330475E-01
 6.441369057E-01 4.698904045E-02 -3.404907909E-01
 6.324819326E-01 4.793466069E-02 -3.533498012E-01
 6.206122935E-01 4.885449260E-02 -3.654316296E-01
 6.091713309E-01 4.968016408E-02 -3.689711694E-01
 5.974480808E-01 5.048412085E-02 -3.797866476E-01
 5.853749514E-01 5.126813240E-02 -3.910129501E-01
 5.726704895E-01 5.202311650E-02 -3.995542230E-01
 5.594820380E-01 5.273512937E-02 -4.066157763E-01
 5.466339588E-01 5.335523374E-02 -4.118799896E-01
 5.346495509E-01 5.387422815E-02 -4.195376412E-01
 5.229608715E-01 5.431386083E-02 -4.208356158E-01
 5.105685890E-01 5.471870117E-02 -4.231012937E-01
 4.989180863E-01 5.505088903E-02 -4.353414727E-01
 4.870746285E-01 5.530700088E-02 -4.305375658E-01
 4.742938727E-01 5.550743267E-02 -4.269938954E-01
 4.612244517E-01 5.565464124E-02 -4.295372439E-01
 4.476318657E-01 5.573597364E-02 -4.294742959E-01
 4.344284683E-01 5.573518947E-02 -4.282993393E-01
 4.214527607E-01 5.566295981E-02 -4.261338022E-01
 4.087351412E-01 5.552382022E-02 -4.230082281E-01
 3.962583244E-01 5.531966500E-02 -4.168676721E-01
 3.839317560E-01 5.506680347E-02 -4.164316807E-01
 3.723128736E-01 5.477266014E-02 -4.130415296E-01
 3.602742404E-01 5.440397747E-02 -4.038164712E-01
 3.479413390E-01 5.398484133E-02 -4.040541383E-01
 3.360058069E-01 5.352628045E-02 -4.010515134E-01
 3.248789907E-01 5.303984880E-02 -3.934421006E-01
 3.139741421E-01 5.251975916E-02 -3.909465243E-01
 3.018338829E-01 5.189267732E-02 -3.861443181E-01
 2.886796892E-01 5.114486441E-02 -3.783122487E-01
 2.756137401E-01 5.034244806E-02 -3.736107913E-01
 2.633190602E-01 4.952688888E-02 -3.672803738E-01
 2.509918138E-01 4.865049385E-02 -3.622600976E-01
 2.381502688E-01 4.767467827E-02 -3.547149290E-01
 2.254666165E-01 4.664641619E-02 -3.473701239E-01
 2.133795694E-01 4.561146908E-02 -3.430175511E-01
 2.015786022E-01 4.454327747E-02 -3.372532982E-01
 1.894861609E-01 4.338385165E-02 -3.309446311E-01
 1.772628427E-01 4.214715026E-02 -3.241644528E-01
 1.652163044E-01 4.086019471E-02 -3.184935355E-01
 1.531911865E-01 3.950670920E-02 -3.142311401E-01
 1.415969580E-01 3.812238388E-02 -3.056580393E-01
 1.302732080E-01 3.669636324E-02 -3.005657448E-01
 1.189037971E-01 3.519070521E-02 -2.955682973E-01
 1.077191681E-01 3.361967951E-02 -2.884858733E-01
 9.721898288E-02 3.206159547E-02 -2.879196890E-01
 8.669893444E-02 3.040034417E-02 -2.811885842E-01
 7.546125352E-02 2.849967964E-02 -2.762671919E-01
 7.147474959E-02 -3.952926956E-02 -2.292441476E-01
 8.158110082E-02 -4.194264300E-02 -2.556742029E-01
 9.191945940E-02 -4.420553520E-02 -2.717144576E-01
 1.029149629E-01 -4.643198475E-02 -2.890173197E-01
 1.144556403E-01 -4.859910719E-02 -3.058205590E-01
 1.261559874E-01 -5.063992739E-02 -3.233099547E-01
 1.373160183E-01 -5.245489255E-02 -3.360536063E-01
 1.483457908E-01 -5.413503572E-02 -3.481352840E-01
 1.599183157E-01 -5.578342266E-02 -3.622484107E-01
 1.716411859E-01 -5.734453723E-02 -3.748969869E-01
 1.833635196E-01 -5.879989266E-02 -3.879225945E-01
 1.944977045E-01 -6.008783728E-02 -4.003799475E-01
 2.054475546E-01 -6.126677990E-02 -4.086954251E-01
 2.172451913E-01 -6.244506314E-02 -4.211123526E-01
 2.293752655E-01 -6.356154382E-02 -4.323858619E-01
 2.413542867E-01 -6.457006186E-02 -4.473155601E-01
 2.534189001E-01 -6.548118591E-02 -4.575912552E-01
 2.652324885E-01 -6.627325714E-02 -4.689967438E-01
 2.771646827E-01 -6.697106734E-02 -4.742477798E-01
 2.896649390E-01 -6.760233641E-02 -4.872816962E-01
 3.022304624E-01 -6.812124699E-02 -4.957278302E-01
 3.143238723E-01 -6.851237267E-02 -5.061043283E-01
 3.261100948E-01 -6.877654046E-02 -5.095501283E-01
 3.372975141E-01 -6.893007085E-02 -5.148534694E-01
 3.481133729E-01 -6.897806004E-02 -5.152239837E-01
 3.593367934E-01 -6.893282011E-02 -5.186714264E-01
 3.703375161E-01 -6.878039986E-02 -5.214796270E-01
 3.815836012E-01 -6.849701330E-02 -5.106202752E-01
 3.935832381E-01 -6.808531657E-02 -5.008617406E-01
 4.058062434E-01 -6.754216179E-02 -4.986330822E-01
 4.183104038E-01 -6.684282422E-02 -4.791072429E-01
 4.309578389E-01 -6.601051986E-02 -4.663186494E-01
 4.437590241E-01 -6.502686813E-02 -4.443960940E-01
 4.566516280E-01 -6.391716003E-02 -4.243645003E-01
 4.691953510E-01 -6.271437183E-02 -4.047960633E-01
 4.815050066E-01 -6.141024083E-02 -3.767160963E-01
 4.935313165E-01 -6.003731675E-02 -3.452654394E-01
 5.062488467E-01 -5.851555243E-02 -3.176351396E-01
 5.196415782E-01 -5.683255382E-02 -2.957159539E-01
 5.327629149E-01 -5.509527586E-02 -2.658045864E-01
 5.460237265E-01 -5.325376615E-02 -2.365785075E-01
 5.592955053E-01 -5.136043765E-02 -2.043126269E-01
 5.725007951E-01 -4.944679327E-02 -1.846661956E-01
 5.856460929E-01 -4.747924209E-02 -1.586275022E-01
 5.984446406E-01 -4.552379996E-02 -1.291927139E-01
 6.113786399E-01 -4.353405349E-02 -1.071038953E-01
 6.248077750E-01 -4.144521803E-02 -8.380027705E-02
 6.383259892E-01 -3.932487592E-02 -5.962721451E-02
 6.517568529E-01 -3.721130826E-02 -3.751271334E-02
 6.653736234E-01 -3.506812826E-02 -1.667155252E-02
 6.784744561E-01 -3.300066106E-02 3.676326512E-03
 6.911681890E-01 -3.100605123E-02 2.381365988E-02
 7.048728764E-01 -2.886004746E-02 4.149811699E-02
 7.187889814E-01 -2.669636160E-02 6.316004910E-02
 7.311330140E-01 -2.477703616E-02 7.748915023E-02
 7.433455288E-01 -2.289338410E-02 1.000800458E-01
 7.561227977E-01 -2.094695903E-02 1.140921868E-01
 7.689964175E-01 -1.899927575E-02 1.373034772E-01
 7.817421257E-01 -1.712787524E-02 1.525708911E-01
 7.939532697E-01 -1.534637157E-02 1.660065552E-01
 8.055034578E-01 -1.366976975E-02 1.929928281E-01
 8.168013692E-01 -1.212065574E-02 2.078454005E-01
 8.286540508E-01 -1.055016462E-02 2.163326857E-01
 8.407632709E-01 -8.980468381E-03 2.378293504E-01
 8.527336121E-01 -7.500315318E-03 2.550524961E-01
 8.643571138E-01 -6.151910406E-03 2.722046790E-01
 8.759027421E-01 -4.920296138E-03 2.835439777E-01
 8.882259429E-01 -3.724268638E-03 2.959969547E-01
 9.099060893E-01 -1.921124116E-03 3.195147905E-01
 9.203094542E-01 -1.231077331E-03 3.233681878E-01
 9.419385493E-01 -1.709163444E-04 3.295346463E-01
 9.558364749E-01 2.546748765E-04 3.304866072E-01
 9.701556861E-01 5.110712082E-04 3.351215506E-01
 9.835133255E-01 5.908108142E-04 3.493657989E-01
 9.948749244E-01 5.604131729E-04 4.282670734E-01
 -5.000000000E-01 9.500000000E-01 2.920881042E-03
 -5.000000000E-01 9.000000000E-01 4.311226300E-03
 -5.000000000E-01 8.500000000E-01 5.859555091E-03
 -5.000000000E-01 8.000000000E-01 7.782182878E-03
 -5.000000000E-01 7.500000000E-01 1.031119843E-02
 -5.000000000E-01 7.000000000E-01 1.339603698E-02
 -5.000000000E-01 6.500000000E-01 1.720717368E-02
 -5.000000000E-01 6.000000000E-01 2.166208969E-02
 -5.000000000E-01 5.500000000E-01 2.694273025E-02
 -5.000000000E-01 5.000000000E-01 3.278050647E-02
 -5.000000000E-01 4.500000000E-01 3.958697655E-02
 -5.000000000E-01 4.000000000E-01 4.669023331E-02
 -5.000000000E-01 3.500000000E-01 5.446620145E-02
 -5.000000000E-01 3.000000000E-01 6.246420231E-02
 -5.000000000E-01 2.500000000E-01 7.054172437E-02
 -5.000000000E-01 2.000000000E-01 7.803614527E-02
 -5.000000000E-01 1.500000000E-01 8.505054153E-02
 -5.000000000E-01 1.000000000E-01 9.082012179E-02
 -5.000000000E-01 5.000000000E-02 9.513467943E-02
 -5.000000000E-01 2.752242878E-12 9.776100315E-02
 -5.000000000E-01 -5.000000000E-02 9.834696284E-02
 -5.000000000E-01 -1.000000000E-01 9.711506951E-02
 -5.000000000E-01 -1.500000000E-01 9.424738620E-02
 -5.000000000E-01 -2.000000000E-01 8.982706762E-02
 -5.000000000E-01 -2.500000000E-01 8.429701391E-02
 -5.000000000E-01 -3.000000000E-01 7.813229613E-02
 -5.000000000E-01 -3.500000000E-01 7.150537371E-02
 -5.000000000E-01 -4.000000000E-01 6.485519234E-02
 -5.000000000E-01 -4.500000000E-01 5.831008492E-02
 -5.000000000E-01 -5.000000000E-01 5.208157472E-02
 -5.000000000E-01 -5.500000000E-01 4.634124581E-02
 -5.000000000E-01 -6.000000000E-01 4.099862148E-02
 -5.000000000E-01 -6.500000000E-01 3.628715842E-02
 -5.000000000E-01 -7.000000000E-01 3.193256988E-02
 -5.000000000E-01 -7.500000000E-01 2.809100728E-02
 -5.000000000E-01 -8.000000000E-01 2.453644808E-02
 -5.000000000E-01 -8.500000000E-01 2.127296970E-02
 -5.000000000E-01 -9.000000000E-01 1.781848815E-02
 -5.000000000E-01 -9.500000000E-01 1.313854778E-02
 -4.500000000E-01 -1.000000000E+00 1.192906742E-02
 -4.000000000E-01 -1.000000000E+00 1.523674214E-02
 -3.500000000E-01 -1.000000000E+00 1.653084924E-02
 -3.000000000E-01 -1.000000000E+00 1.674217687E-02
 -2.500000000E-01 -1.000000000E+00 1.612928195E-02
 -2.000000000E-01 -1.000000000E+00 1.471228610E-02
 -1.500000000E-01 -1.000000000E+00 1.255019691E-02
 -1.000000000E-01 -1.000000000E+00 9.751069099E-03
 -5.000000000E-02 -1.000000000E+00 6.298290500E-03
 -9.424683256E-13 -1.000000000E+00 2.368857332E-03
 5.000000000E-02 -1.000000000E+00 -1.988460582E-03
 1.000000000E-01 -1.000000000E+00 -6.475256053E-03
 1.500000000E-01 -1.000000000E+00 -1.108872117E-02
 2.000000000E-01 -1.000000000E+00 -1.548748027E-02
 2.500000000E-01 -1.000000000E+00 -1.967984063E-02
 3.000000000E-01 -1.000000000E+00 -2.332877905E-02
 3.500000000E-01 -1.000000000E+00 -2.644487599E-02
 4.000000000E-01 -1.000000000E+00 -2.872922210E-02
 4.500000000E-01 -1.000000000E+00 -3.021226517E-02
 5.000000000E-01 -1.000000000E+00 -3.077038257E-02
 5.500000000E-01 -1.000000000E+00 -3.045613522E-02
 6.000000000E-01 -1.000000000E+00 -2.925661427E-02
 6.500000000E-01 -1.000000000E+00 -2.727480193E-02
 7.000000000E-01 -1.000000000E+00 -2.461041150E-02
 7.500000000E-01 -1.000000000E+00 -2.129658096E-02
 8.000000000E-01 -1.000000000E+00 -1.766388790E-02
 8.500000000E-01 -1.000000000E+00 -1.370139257E-02
 9.000000000E-01 -1.000000000E+00 -9.623392079E-03
 9.500000000E-01 -1.000000000E+00 -5.589560274E-03
 1.000000000E+00 -1.000000000E+00 -1.675370344E-03
 1.050000000E+00 -1.000000000E+00 2.049846263E-03
 1.100000000E+00 -1.000000000E+00 5.448914394E-03
 1.150000000E+00 -1.000000000E+00 8.521791257E-03
 1.200000000E+00 -1.000000000E+00 1.121165408E-02
 1.250000000E+00 -1.000000000E+00 1.356952342E-02
 1.300000000E+00 -1.000000000E+00 1.560675075E-02
 1.350000000E+00 -1.000000000E+00 1.723122773E-02
 1.400000000E+00 -1.000000000E+00 1.856374298E-02
 1.450000000E+00 -1.000000000E+00 1.964708108E-02
 1.500000000E+00 -1.000000000E+00 2.040148152E-02
 1.550000000E+00 -1.000000000E+00 2.099414211E-02
 1.600000000E+00 -1.000000000E+00 2.134921060E-02
 1.650000000E+00 -1.000000000E+00 2.158432573E-02
 1.700000000E+00 -1.000000000E+00 2.164038790E-02
 1.750000000E+00 -1.000000000E+00 2.160986519E-02
 1.800000000E+00 -1.000000000E+00 2.148699572E-02
 1.850000000E+00 -1.000000000E+00 2.129329329E-02
 1.900000000E+00 -1.000000000E+00 2.104309462E-02
 1.950000000E+00 -1.000000000E+00 2.077462818E-02
 2.000000000E+00 -1.000000000E+00 2.043140999E-02
 2.050000000E+00 -1.000000000E+00 2.011320916E-02
 2.100000000E+00 -1.000000000E+00 1.977073871E-02
 2.150000000E+00 -1.000000000E+00 1.946618964E-02
 2.200000000E+00 -1.000000000E+00 1.907802762E-02
 2.250000000E+00 -1.000000000E+00 1.878299750E-02
 2.300000000E+00 -1.000000000E+00 1.841395081E-02
 2.350000000E+00 -1.000000000E+00 1.813257417E-02
 2.400000000E+00 -1.000000000E+00 1.787180276E-02
 2.450000000E+00 -1.000000000E+00 1.764387102E-02
 2.500000000E+00 -1.000000000E+00 1.734989359E-02
 2.550000000E+00 -1.000000000E+00 1.719438278E-02
 2.600000000E+00 -1.000000000E+00 1.693331577E-02
 2.650000000E+00 -1.000000000E+00 1.677257088E-02
 2.700000000E+00 -1.000000000E+00 1.657844711E-02
 2.750000000E+00 -1.000000000E+00 1.640358446E-02
 2.800000000E+00 -1.000000000E+00 1.630872479E-02
 2.850000000E+00 -1.000000000E+00 1.611526918E-02
 2.900000000E+00 -1.000000000E+00 1.601625009E-02
 2.950000000E+00 -1.000000000E+00 1.583052199E-02
 3.000000000E+00 -1.000000000E+00 1.568991302E-02
 3.050000000E+00 -1.000000000E+00 1.548430736E-02
 3.100000000E+00 -1.000000000E+00 1.523322806E-02
 3.150000000E+00 -1.000000000E+00 1.496467490E-02
 3.200000000E+00 -1.000000000E+00 1.448563287E-02
 3.250000000E+00 -1.000000000E+00 1.398429399E-02
 3.300000000E+00 -1.000000000E+00 1.320790942E-02
 3.350000000E+00 -1.000000000E+00 1.214310384E-02
 3.400000000E+00 -1.000000000E+00 1.053361965E-02
 3.450000000E+00 -1.000000000E+00 7.888676101E-03
 3.500000000E+00 -9.500000000E-01 4.211873175E-03
 3.500000000E+00 -9.000000000E-01 5.795214731E-03
 3.500000000E+00 -8.500000000E-01 7.069373424E-03
 3.500000000E+00 -8.000000000E-01 8.464483479E-03
 3.500000000E+00 -7.500000000E-01 9.796622073E-03
 3.500000000E+00 -7.000000000E-01 1.103310956E-02
 3.500000000E+00 -6.500000000E-01 1.254236650E-02
 3.500000000E+00 -6.000000000E-01 1.411527713E-02
 3.500000000E+00 -5.500000000E-01 1.593510821E-02
 3.500000000E+00 -5.000000000E-01 1.788902071E-02
 3.500000000E+00 -4.500000000E-01 2.001539112E-02
 3.500000000E+00 -4.000000000E-01 2.230749834E-02
 3.500000000E+00 -3.500000000E-01 2.465369766E-02
 3.500000000E+00 -3.000000000E-01 2.693249527E-02
 3.500000000E+00 -2.500000000E-01 2.890473978E-02
 3.500000000E+00 -2.000000000E-01 3.014981725E-02
 3.500000000E+00 -1.500000000E-01 3.064036540E-02
 3.500000000E+00 -1.000000000E-01 3.053836976E-02
 3.500000000E+00 -5.000000000E-02 3.011159369E-02
 3.500000000E+00 -2.752242878E-12 2.966064402E-02
 3.500000000E+00 5.000000000E-02 2.926411369E-02
 3.500000000E+00 1.000000000E-01 2.851157900E-02
 3.500000000E+00 1.500000000E-01 2.709271981E-02
 3.500000000E+00 2.000000000E-01 2.499614318E-02
 3.500000000E+00 2.500000000E-01 2.234642345E-02
 3.500000000E+00 3.000000000E-01 1.953079888E-02
 3.500000000E+00 3.500000000E-01 1.681168100E-02
 3.500000000E+00 4.000000000E-01 1.427866642E-02
 3.500000000E+00 4.500000000E-01 1.194500082E-02
 3.500000000E+00 5.000000000E-01 9.777424146E-03
 3.500000000E+00 5.500000000E-01 7.888514946E-03
 3.500000000E+00 6.000000000E-01 6.445625291E-03
 3.500000000E+00 6.500000000E-01 5.587397744E-03
 3.500000000E+00 7.000000000E-01 5.122406124E-03
 3.500000000E+00 7.500000000E-01 4.217279505E-03
 3.500000000E+00 8.000000000E-01 2.647183373E-03
 3.500000000E+00 8.500000000E-01 -1.030357720E-03
 3.500000000E+00 9.000000000E-01 -6.146751786E-03
 3.500000000E+00 9.500000000E-01 -1.234871276E-02
 3.450000000E+00 1.000000000E+00 -5.866148452E-03
 3.400000000E+00 1.000000000E+00 -6.240843380E-04
 3.350000000E+00 1.000000000E+00 1.843487284E-03
 3.300000000E+00 1.000000000E+00 3.004856114E-03
 3.250000000E+00 1.000000000E+00 3.698461599E-03
 3.200000000E+00 1.000000000E+00 4.103938177E-03
 3.150000000E+00 1.000000000E+00 4.187122900E-03
 3.100000000E+00 1.000000000E+00 4.044686399E-03
 3.050000000E+00 1.000000000E+00 3.867986529E-03
 3.000000000E+00 1.000000000E+00 3.524156910E-03
 2.950000000E+00 1.000000000E+00 3.166450484E-03
 2.900000000E+00 1.000000000E+00 2.729074678E-03
 2.850000000E+00 1.000000000E+00 2.281762253E-03
 2.800000000E+00 1.000000000E+00 1.628595630E-03
 2.750000000E+00 1.000000000E+00 1.044717486E-03
 2.700000000E+00 1.000000000E+00 3.679559261E-04
 2.650000000E+00 1.000000000E+00 -2.393394451E-04
 2.600000000E+00 1.000000000E+00 -1.125878130E-03
 2.550000000E+00 1.000000000E+00 -1.902031639E-03
 2.500000000E+00 1.000000000E+00 -2.855888926E-03
 2.450000000E+00 1.000000000E+00 -3.782465807E-03
 2.400000000E+00 1.000000000E+00 -4.786848312E-03
 2.350000000E+00 1.000000000E+00 -5.756699185E-03
 2.300000000E+00 1.000000000E+00 -6.935159072E-03
 2.250000000E+00 1.000000000E+00 -8.039884057E-03
 2.200000000E+00 1.000000000E+00 -9.364859388E-03
 2.150000000E+00 1.000000000E+00 -1.070458645E-02
 2.100000000E+00 1.000000000E+00 -1.213398385E-02
 2.050000000E+00 1.000000000E+00 -1.364643529E-02
 2.000000000E+00 1.000000000E+00 -1.527817041E-02
 1.950000000E+00 1.000000000E+00 -1.720495626E-02
 1.900000000E+00 1.000000000E+00 -1.898579963E-02
 1.850000000E+00 1.000000000E+00 -2.130639404E-02
 1.800000000E+00 1.000000000E+00 -2.331435627E-02
 1.750000000E+00 1.000000000E+00 -2.573205553E-02
 1.700000000E+00 1.000000000E+00 -2.830935869E-02
 1.650000000E+00 1.000000000E+00 -3.108974141E-02
 1.600000000E+00 1.000000000E+00 -3.400160870E-02
 1.550000000E+00 1.000000000E+00 -3.723350919E-02
 1.500000000E+00 1.000000000E+00 -4.077956079E-02
 1.450000000E+00 1.000000000E+00 -4.422366339E-02
 1.400000000E+00 1.000000000E+00 -4.815523091E-02
 1.350000000E+00 1.000000000E+00 -5.209315483E-02
 1.300000000E+00 1.000000000E+00 -5.631898126E-02
 1.250000000E+00 1.000000000E+00 -6.078895632E-02
 1.200000000E+00 1.000000000E+00 -6.506346653E-02
 1.150000000E+00 1.000000000E+00 -6.959882711E-02
 1.100000000E+00 1.000000000E+00 -7.408738258E-02
 1.050000000E+00 1.000000000E+00 -7.817582194E-02
 1.000000000E+00 1.000000000E+00 -8.200673793E-02
 9.500000000E-01 1.000000000E+00 -8.559121389E-02
 9.000000000E-01 1.000000000E+00 -8.904161812E-02
 8.500000000E-01 1.000000000E+00 -9.095269895E-02
 8.000000000E-01 1.000000000E+00 -9.317342713E-02
 7.500000000E-01 1.000000000E+00 -9.337765753E-02
 7.000000000E-01 1.000000000E+00 -9.408097913E-02
 6.500000000E-01 1.000000000E+00 -9.306178297E-02
 6.000000000E-01 1.000000000E+00 -9.136662401E-02
 5.500000000E-01 1.000000000E+00 -8.857603928E-02
 5.000000000E-01 1.000000000E+00 -8.500607179E-02
 4.500000000E-01 1.000000000E+00 -8.044044206E-02
 4.000000000E-01 1.000000000E+00 -7.519201992E-02
 3.500000000E-01 1.000000000E+00 -6.936548547E-02
 3.000000000E-01 1.000000000E+00 -6.301389674E-02
 2.500000000E-01 1.000000000E+00 -5.628118748E-02
 2.000000000E-01 1.000000000E+00 -4.953528053E-02
 1.500000000E-01 1.000000000E+00 -4.257691042E-02
 1.000000000E-01 1.000000000E+00 -3.573977370E-02
 5.000000000E-02 1.000000000E+00 -2.903937934E-02
 1.733724275E-12 1.000000000E+00 -2.302712019E-02
 -5.000000000E-02 1.000000000E+00 -1.739267361E-02
 -1.000000000E-01 1.000000000E+00 -1.240636073E-02
 -1.500000000E-01 1.000000000E+00 -7.998224106E-03
 -2.000000000E-01 1.000000000E+00 -4.413665483E-03
 -2.500000000E-01 1.000000000E+00 -1.451669590E-03
 -3.000000000E-01 1.000000000E+00 6.468474462E-04
 -3.500000000E-01 1.000000000E+00 2.053028883E-03
 -4.000000000E-01 1.000000000E+00 2.690002486E-03
 -4.500000000E-01 1.000000000E+00 2.436259992E-03
 9.128759305E-01 -6.234857136E-03 3.108640477E-01
 8.339283274E-01 -1.585585527E-02 2.227871295E-01
 9.868006553E-01 -4.106270162E-03 3.540498002E-01
 7.602029651E-01 -2.528078884E-02 1.205722325E-01
 6.892302902E-01 -3.674469072E-02 1.999934873E-02
 6.222954428E-01 -4.799574270E-02 -8.825527569E-02
 5.568619355E-01 -5.742253655E-02 -2.074111858E-01
 4.910699712E-01 -6.591193651E-02 -3.446062629E-01
 4.345776013E-01 -7.122813677E-02 -4.482884875E-01
 3.781510948E-01 -7.300768600E-02 -5.032361923E-01