TITLE     = "Visualization of the solution"
VARIABLES = "x"
"y"
"Pressure_Coefficient"
ZONE T="Zone"
 STRANDID=0, SOLUTIONTIME=0
 Nodes=12243, Elements=23906, ZONETYPE=FEQuadrilateral
 DATAPACKING=POINT
 DT=(DOUBLE DOUBLE DOUBLE )
 9.997334480E-01 5.217900034E-04 2.681474287E-01
 9.871915579E-01 3.071115585E-03 1.762394783E-01
 9.752375484E-01 5.543855019E-03 1.036169065E-01
 9.600756764E-01 8.551862091E-03 6.992667883E-02
 9.464843273E-01 1.135982759E-02 8.301223581E-03
 9.331433773E-01 1.397273876E-02 -1.446927096E-02
 9.220562577E-01 1.617703028E-02 -4.916648360E-02
 9.104540944E-01 1.844614372E-02 -8.125274745E-02
 8.991158009E-01 2.062523924E-02 -1.157589307E-01
 8.872178793E-01 2.280551754E-02 -1.348987840E-01
 8.751492500E-01 2.495719120E-02 -1.525633927E-01
 8.631970286E-01 2.704508975E-02 -1.750133060E-01
 8.508355021E-01 2.912221290E-02 -1.871357196E-01
 8.395239115E-01 3.099486232E-02 -1.995433118E-01
 8.281210065E-01 3.288159892E-02 -2.297558743E-01
 8.150016069E-01 3.491921350E-02 -2.372781812E-01
 8.019407392E-01 3.689702600E-02 -2.429893430E-01
 7.895535231E-01 3.877445683E-02 -2.665386500E-01
 7.767456770E-01 4.063315317E-02 -2.699485351E-01
 7.650496960E-01 4.236099496E-02 -3.003295028E-01
 7.517529130E-01 4.421472549E-02 -3.133778591E-01
 7.376590967E-01 4.610404000E-02 -3.189969513E-01
 7.268546820E-01 4.755355418E-02 -3.386445568E-01
 7.155191898E-01 4.902361706E-02 -3.546708645E-01
 7.036110759E-01 5.050361529E-02 -3.603231218E-01
 6.901834607E-01 5.215530843E-02 -3.814581524E-01
 6.768902540E-01 5.372310430E-02 -4.004929152E-01
 6.663277745E-01 5.491326749E-02 -4.123251754E-01
 6.544327140E-01 5.619126931E-02 -4.189232787E-01
 6.427959204E-01 5.741255730E-02 -4.339834178E-01
 6.308773160E-01 5.861208960E-02 -4.519086603E-01
 6.193901300E-01 5.969306827E-02 -4.607994997E-01
 6.084767580E-01 6.067092344E-02 -4.671607930E-01
 5.961729288E-01 6.173950806E-02 -4.924378488E-01
 5.842927098E-01 6.265162677E-02 -4.897616517E-01
 5.708447099E-01 6.363894045E-02 -5.037688206E-01
 5.583045483E-01 6.447979063E-02 -5.165836301E-01
 5.456016660E-01 6.523201615E-02 -5.209658775E-01
 5.345034599E-01 6.582409889E-02 -5.238392044E-01
 5.225728750E-01 6.640069932E-02 -5.297032434E-01
 5.101373196E-01 6.692536920E-02 -5.379282088E-01
 4.989811182E-01 6.731200963E-02 -5.357228438E-01
 4.856269956E-01 6.769277155E-02 -5.327857906E-01
 4.723829925E-01 6.800261885E-02 -5.353011391E-01
 4.586549699E-01 6.824062765E-02 -5.400454445E-01
 4.449024796E-01 6.836996973E-02 -5.370588453E-01
 4.319361150E-01 6.841086596E-02 -5.342382171E-01
 4.188450873E-01 6.837162375E-02 -5.299104323E-01
 4.064074755E-01 6.826969981E-02 -5.289982187E-01
 3.939192295E-01 6.809242070E-02 -5.242067313E-01
 3.816768825E-01 6.786245108E-02 -5.261787947E-01
 3.698092997E-01 6.755552441E-02 -5.173405310E-01
 3.564754725E-01 6.714760512E-02 -5.139038061E-01
 3.439413905E-01 6.669442356E-02 -5.105719516E-01
 3.310301900E-01 6.615220010E-02 -5.083030886E-01
 3.201124370E-01 6.562823057E-02 -5.017636466E-01
 3.075230122E-01 6.495671719E-02 -4.951551165E-01
 2.941357493E-01 6.416431814E-02 -4.885815138E-01
 2.800239325E-01 6.324232370E-02 -4.824303086E-01
 2.675976753E-01 6.236166507E-02 -4.818792332E-01
 2.555468380E-01 6.141294166E-02 -4.695574620E-01
 2.429481298E-01 6.036143377E-02 -4.657540133E-01
 2.304504365E-01 5.922947451E-02 -4.578155479E-01
 2.182510346E-01 5.804977193E-02 -4.526504169E-01
 2.063886970E-01 5.681892484E-02 -4.457997667E-01
 1.948713511E-01 5.554078519E-02 -4.364782600E-01
 1.826947480E-01 5.410432070E-02 -4.285152002E-01
 1.709981561E-01 5.263297260E-02 -4.196908756E-01
 1.596551836E-01 5.111670494E-02 -4.095556169E-01
 1.479610056E-01 4.945949465E-02 -4.013576176E-01
 1.374841928E-01 4.788383096E-02 -3.909797825E-01
 1.260765195E-01 4.606533796E-02 -3.801933718E-01
 1.149448231E-01 4.417947307E-02 -3.718271787E-01
 1.043576822E-01 4.225515947E-02 -3.554717316E-01
 9.474056214E-02 4.040874541E-02 -3.438859442E-01
 8.386710286E-02 3.817645460E-02 -3.280262658E-01
 7.237556577E-02 3.563182056E-02 -3.138550409E-01
 6.266687065E-02 3.330016881E-02 -2.919691272E-01
 5.302630737E-02 3.079304844E-02 -2.673042465E-01
 4.433523118E-02 2.832171135E-02 -2.438653678E-01
 3.682205081E-02 2.598954737E-02 -2.187593422E-01
 3.028127179E-02 2.376434207E-02 -1.888208704E-01
 2.464160882E-02 2.166656218E-02 -1.667731123E-01
 2.054845355E-02 1.999784820E-02 -1.302160653E-01
 1.670799032E-02 1.829081215E-02 -1.010494525E-01
 1.379519328E-02 1.687924750E-02 -6.051581878E-02
 1.112859696E-02 1.547165774E-02 -2.838962889E-02
 9.174511768E-03 1.434814930E-02 9.804647480E-03
 7.435062900E-03 1.325723529E-02 4.113735961E-02
 5.817964207E-03 1.214935724E-02 1.199169909E-01
 3.700391855E-03 1.050592121E-02 2.127699264E-01
 1.885879203E-03 8.824786171E-03 3.165022819E-01
 3.848831111E-04 7.075200789E-03 5.549560966E-01
 -1.061986317E-03 4.660402890E-03 7.765753825E-01
 -1.684807125E-03 2.796698827E-03 9.658978979E-01
 -1.885970240E-03 1.296222559E-03 1.063124645E+00
 -1.807322842E-03 -3.861575678E-04 1.106701495E+00
 -1.374094514E-03 -2.184149111E-03 1.052447389E+00
 -4.201798874E-04 -4.323934205E-03 9.448238591E-01
 1.066239551E-03 -6.550988648E-03 7.615600065E-01
 3.128138604E-03 -8.869308047E-03 5.997843375E-01
 4.967050161E-03 -1.056724973E-02 4.550934054E-01
 7.130092476E-03 -1.229806431E-02 3.680664593E-01
 8.809851483E-03 -1.350301132E-02 2.790383972E-01
 1.091455854E-02 -1.487830374E-02 2.289729522E-01
 1.332212426E-02 -1.631681807E-02 1.607572995E-01
 1.663617045E-02 -1.811288856E-02 1.019690689E-01
 1.972518861E-02 -1.963527873E-02 3.720696549E-02
 2.374723181E-02 -2.144443430E-02 -8.143466853E-03
 2.921676636E-02 -2.365666069E-02 -5.254298479E-02
 3.501260281E-02 -2.577759884E-02 -1.040413248E-01
 4.222488031E-02 -2.814465761E-02 -1.324468577E-01
 4.983212799E-02 -3.040222451E-02 -1.663141969E-01
 5.883085728E-02 -3.281346336E-02 -1.867013437E-01
 6.756219268E-02 -3.495173529E-02 -2.096613471E-01
 7.795988023E-02 -3.729430959E-02 -2.292431794E-01
 8.799468726E-02 -3.936943784E-02 -2.450362849E-01
 9.824024886E-02 -4.132861272E-02 -2.568419904E-01
 1.093477979E-01 -4.330292717E-02 -2.677822494E-01
 1.205959171E-01 -4.516938701E-02 -2.800983228E-01
 1.323062181E-01 -4.698486626E-02 -2.922866336E-01
 1.428089589E-01 -4.850498959E-02 -3.013891809E-01
 1.539987922E-01 -5.004272610E-02 -3.159983617E-01
 1.661273390E-01 -5.159245431E-02 -3.260965275E-01
 1.778028011E-01 -5.298122391E-02 -3.355527317E-01
 1.895610988E-01 -5.428905040E-02 -3.456179173E-01
 2.001900077E-01 -5.539860204E-02 -3.571637769E-01
 2.114271373E-01 -5.649373308E-02 -3.673905026E-01
 2.236406505E-01 -5.759154633E-02 -3.775502085E-01
 2.361379564E-01 -5.862298235E-02 -3.904809677E-01
 2.483129799E-01 -5.951753259E-02 -3.965013151E-01
 2.609493434E-01 -6.036928296E-02 -4.120979146E-01
 2.720799744E-01 -6.101927906E-02 -4.190170395E-01
 2.848331928E-01 -6.167238206E-02 -4.299882801E-01
 2.974793017E-01 -6.219952181E-02 -4.367565183E-01
 3.103809655E-01 -6.262616813E-02 -4.447072441E-01
 3.221383095E-01 -6.290514022E-02 -4.486473944E-01
 3.348791599E-01 -6.310855597E-02 -4.583626749E-01
 3.456275165E-01 -6.316573173E-02 -4.592137398E-01
 3.571232259E-01 -6.313608587E-02 -4.628442567E-01
 3.681771159E-01 -6.299537420E-02 -4.606706409E-01
 3.790225387E-01 -6.275410950E-02 -4.557812074E-01
 3.904795647E-01 -6.240005419E-02 -4.519724815E-01
 4.036615789E-01 -6.185262650E-02 -4.429393091E-01
 4.159173965E-01 -6.119836867E-02 -4.289829771E-01
 4.287597537E-01 -6.037529558E-02 -4.100643138E-01
 4.415673018E-01 -5.944150686E-02 -3.968202723E-01
 4.540617764E-01 -5.839517340E-02 -3.768008827E-01
 4.661188722E-01 -5.725641176E-02 -3.495958747E-01
 4.786994159E-01 -5.596791208E-02 -3.225898332E-01
 4.903770983E-01 -5.470378697E-02 -3.042000515E-01
 5.032068491E-01 -5.321357399E-02 -2.774459023E-01
 5.170506835E-01 -5.148786306E-02 -2.420528807E-01
 5.305242538E-01 -4.974057898E-02 -2.138519247E-01
 5.438778400E-01 -4.795292020E-02 -1.884602891E-01
 5.569633245E-01 -4.613030329E-02 -1.584900290E-01
 5.702384710E-01 -4.424844682E-02 -1.334946894E-01
 5.834185481E-01 -4.234393314E-02 -1.093214093E-01
 5.958070159E-01 -4.050488025E-02 -8.013165013E-02
 6.086537242E-01 -3.861999884E-02 -6.396047173E-02
 6.225908399E-01 -3.651711345E-02 -3.292772313E-02
 6.367328167E-01 -3.441145644E-02 -1.408248761E-02
 6.510030627E-01 -3.227321059E-02 8.925014997E-03
 6.639854312E-01 -3.031734563E-02 3.276496534E-02
 6.773589253E-01 -2.834106982E-02 4.862071370E-02
 6.898713708E-01 -2.650620975E-02 6.380139051E-02
 7.021250725E-01 -2.469950356E-02 8.337052828E-02
 7.166163921E-01 -2.259216644E-02 1.010344857E-01
 7.294182777E-01 -2.071597055E-02 1.266705286E-01
 7.412102222E-01 -1.906713471E-02 1.352282242E-01
 7.542982101E-01 -1.723493822E-02 1.552142752E-01
 7.667622566E-01 -1.554521639E-02 1.675094784E-01
 7.798231840E-01 -1.378101856E-02 1.891853972E-01
 7.917678952E-01 -1.223301329E-02 2.021227919E-01
 8.043704629E-01 -1.064735744E-02 2.163047265E-01
 8.153778315E-01 -9.293482639E-03 2.315651840E-01
 8.265929222E-01 -7.956350222E-03 2.480357246E-01
 8.390863538E-01 -6.536453497E-03 2.648622650E-01
 8.513531685E-01 -5.246985704E-03 2.764707388E-01
 8.634121418E-01 -4.049182869E-03 2.926345269E-01
 8.748503923E-01 -3.017506329E-03 3.041201651E-01
 8.863179684E-01 -2.082910389E-03 3.155637257E-01
 8.992081881E-01 -1.172246411E-03 3.231429259E-01
 9.089764953E-01 -5.673029809E-04 3.337403121E-01
 9.194272757E-01 -5.250902541E-05 3.352047539E-01
 9.288777113E-01 3.315194335E-04 3.396049642E-01
 9.377515316E-01 6.126570515E-04 3.447446943E-01
 9.495083690E-01 8.666429203E-04 3.461687974E-01
 9.627482891E-01 9.930824162E-04 3.482568246E-01
 9.768613577E-01 9.570597322E-04 3.576236258E-01
 9.894985557E-01 7.715886459E-04 3.884072341E-01
 -5.000000000E-01 -1.000000000E+00 1.379832195E-02
 3.500000000E+00 -1.000000000E+00 8.203142288E-03
 3.500000000E+00 1.000000000E+00 -2.340364228E-02
 -5.000000000E-01 1.000000000E+00 -5.376860458E-04
 9.934625030E-01 1.796452794E-03 2.718474938E-01
 9.812145531E-01 4.307485302E-03 1.371639281E-01
 9.676566124E-01 7.047858555E-03 8.862561375E-02
 9.532800019E-01 9.955844842E-03 3.318868028E-02
 9.398138523E-01 1.266628318E-02 -1.340720341E-03
 9.275998175E-01 1.507488452E-02 -3.330249969E-02
 9.162551761E-01 1.731158700E-02 -6.589621809E-02
 9.047849476E-01 1.953569148E-02 -1.015490536E-01
 8.931668401E-01 2.171537839E-02 -1.248166664E-01
 8.811835647E-01 2.388135437E-02 -1.434354886E-01
 8.691731393E-01 2.600114048E-02 -1.654995793E-01
 8.570162654E-01 2.808365133E-02 -1.796845798E-01
 8.451797068E-01 3.005853761E-02 -1.913864650E-01
 8.338224590E-01 3.193823062E-02 -2.198752865E-01
 8.215613067E-01 3.390040621E-02 -2.323863846E-01
 8.084711730E-01 3.590811975E-02 -2.376250634E-01
 7.957471311E-01 3.783574142E-02 -2.574470510E-01
 7.831496000E-01 3.970380500E-02 -2.644264438E-01
 7.708976865E-01 4.149707407E-02 -2.895995786E-01
 7.584013045E-01 4.328786023E-02 -3.075689305E-01
 7.447060049E-01 4.515938275E-02 -3.131879690E-01
 7.322568893E-01 4.682879709E-02 -3.304108880E-01
 7.211869359E-01 4.828858562E-02 -3.482154787E-01
 7.095651329E-01 4.976361617E-02 -3.556349974E-01
 6.968972683E-01 5.132946186E-02 -3.717059219E-01
 6.835368574E-01 5.293920636E-02 -3.907308671E-01
 6.716090143E-01 5.431818590E-02 -4.076196571E-01
 6.603802443E-01 5.555226840E-02 -4.138940577E-01
 6.486143172E-01 5.680191331E-02 -4.268647676E-01
 6.368366182E-01 5.801232345E-02 -4.442387546E-01
 6.251337230E-01 5.915257894E-02 -4.556256753E-01
 6.139334440E-01 6.018199585E-02 -4.625641018E-01
 6.023248434E-01 6.120521575E-02 -4.835891859E-01
 5.902328193E-01 6.219556741E-02 -4.892679859E-01
 5.775687099E-01 6.314528361E-02 -4.968505208E-01
 5.645746291E-01 6.405936554E-02 -5.121038441E-01
 5.519531071E-01 6.485590339E-02 -5.174654161E-01
 5.400525630E-01 6.552805752E-02 -5.221418409E-01
 5.285381675E-01 6.611239910E-02 -5.274515023E-01
 5.163550973E-01 6.666303426E-02 -5.341630553E-01
 5.045592189E-01 6.711868942E-02 -5.380769717E-01
 4.923040569E-01 6.750239059E-02 -5.331730977E-01
 4.790049940E-01 6.784769520E-02 -5.343606808E-01
 4.655189812E-01 6.812162325E-02 -5.392382037E-01
 4.517787248E-01 6.830529869E-02 -5.376751142E-01
 4.384192973E-01 6.839041784E-02 -5.356820418E-01
 4.253906012E-01 6.839124486E-02 -5.313067084E-01
 4.126262814E-01 6.832066178E-02 -5.299533238E-01
 4.001633525E-01 6.818106025E-02 -5.257468222E-01
 3.877980560E-01 6.797743589E-02 -5.262455702E-01
 3.757430911E-01 6.770898774E-02 -5.216399866E-01
 3.631423861E-01 6.735156476E-02 -5.151978086E-01
 3.502084315E-01 6.692101434E-02 -5.128688325E-01
 3.374857903E-01 6.642331183E-02 -5.085260272E-01
 3.255713135E-01 6.589021534E-02 -5.058277404E-01
 3.138177246E-01 6.529247388E-02 -4.989450904E-01
 3.008293808E-01 6.456051767E-02 -4.926036866E-01
 2.870798409E-01 6.370332092E-02 -4.842125026E-01
 2.738108039E-01 6.280199438E-02 -4.833355784E-01
 2.615722567E-01 6.188730337E-02 -4.746435094E-01
 2.492474839E-01 6.088718772E-02 -4.683757353E-01
 2.366992831E-01 5.979545414E-02 -4.613537058E-01
 2.243507355E-01 5.863962322E-02 -4.552420849E-01
 2.123198658E-01 5.743434839E-02 -4.494540393E-01
 2.006300241E-01 5.617985502E-02 -4.417252856E-01
 1.887830496E-01 5.482255295E-02 -4.324988086E-01
 1.768464521E-01 5.336864665E-02 -4.241422336E-01
 1.653266698E-01 5.187483877E-02 -4.151628234E-01
 1.538080946E-01 5.028809980E-02 -4.047451278E-01
 1.427225992E-01 4.867166281E-02 -3.970487962E-01
 1.317803562E-01 4.697458446E-02 -3.856768439E-01
 1.205106713E-01 4.512240551E-02 -3.771430940E-01
 1.096512526E-01 4.321731627E-02 -3.652444932E-01
 8.930383250E-02 3.929260001E-02 -3.403251979E-01
 7.812133431E-02 3.690413758E-02 -3.240055780E-01
 7.276103646E-02 -3.612302244E-02 -2.198329536E-01
 8.297728375E-02 -3.833187371E-02 -2.393576185E-01
 9.311746806E-02 -4.034902528E-02 -2.519449800E-01
 1.037940234E-01 -4.231576994E-02 -2.619979894E-01
 1.149718575E-01 -4.423615709E-02 -2.745732008E-01
 1.264510676E-01 -4.607712664E-02 -2.864712841E-01
 1.375575885E-01 -4.774492793E-02 -2.993394561E-01
 1.484038755E-01 -4.927385785E-02 -3.070034408E-01
 1.600630656E-01 -5.081759021E-02 -3.209772482E-01
 1.719650701E-01 -5.228683911E-02 -3.318354578E-01
 1.836819500E-01 -5.363513716E-02 -3.407407641E-01
 1.948755533E-01 -5.484382622E-02 -3.521218257E-01
 2.058085725E-01 -5.594616756E-02 -3.614005243E-01
 2.175338939E-01 -5.704263970E-02 -3.716995244E-01
 2.298893034E-01 -5.810726434E-02 -3.835625734E-01
 2.422254682E-01 -5.907025747E-02 -3.949602914E-01
 2.546311617E-01 -5.994340777E-02 -4.022696918E-01
 2.665146589E-01 -6.069428101E-02 -4.177485400E-01
 2.784565836E-01 -6.134583056E-02 -4.225811729E-01
 2.911562473E-01 -6.193595193E-02 -4.341166600E-01
 3.039301336E-01 -6.241284497E-02 -4.404055917E-01
 3.162596375E-01 -6.276565418E-02 -4.483325606E-01
 3.285087347E-01 -6.300684810E-02 -4.512489260E-01
 3.402533382E-01 -6.313714385E-02 -4.622346346E-01
 3.513753712E-01 -6.315090880E-02 -4.590795049E-01
 3.626501709E-01 -6.306573004E-02 -4.628608619E-01
 3.735998273E-01 -6.287474185E-02 -4.587813277E-01
 3.847510517E-01 -6.257708184E-02 -4.528216363E-01
 3.970705718E-01 -6.212634034E-02 -4.460000891E-01
 4.097894877E-01 -6.152549759E-02 -4.380879602E-01
 4.223385751E-01 -6.078683212E-02 -4.194575704E-01
 4.351635277E-01 -5.990840122E-02 -4.025742790E-01
 4.478145391E-01 -5.891834013E-02 -3.879358190E-01
 4.600903243E-01 -5.782579258E-02 -3.649135401E-01
 4.724091440E-01 -5.661216192E-02 -3.362836203E-01
 4.845382571E-01 -5.533584952E-02 -3.127097217E-01
 4.967919737E-01 -5.395868048E-02 -2.908770340E-01
 5.101287663E-01 -5.235071853E-02 -2.611076368E-01
 5.237874687E-01 -5.061422102E-02 -2.280235182E-01
 5.372010469E-01 -4.884674959E-02 -2.008051961E-01
 5.504205823E-01 -4.704161175E-02 -1.745110953E-01
 5.636008978E-01 -4.518937506E-02 -1.456590711E-01
 5.768285096E-01 -4.329618998E-02 -1.213689642E-01
 5.896127820E-01 -4.142440669E-02 -9.603393602E-02
 6.022303700E-01 -3.956243955E-02 -7.034025619E-02
 6.156222820E-01 -3.756855614E-02 -5.053566808E-02
 6.296618283E-01 -3.546428494E-02 -2.243826482E-02
 6.438679397E-01 -3.334233351E-02 -2.794943171E-03
 6.574942470E-01 -3.129527811E-02 2.013028476E-02
 6.706721783E-01 -2.932920773E-02 4.145258835E-02
 6.836151481E-01 -2.742363978E-02 5.690454796E-02
 6.959982216E-01 -2.560285665E-02 7.264332336E-02
 7.093707323E-01 -2.364583500E-02 9.193132953E-02
 7.230173349E-01 -2.165406849E-02 1.119366652E-01
 7.353142500E-01 -1.989155263E-02 1.334221001E-01
 7.477542162E-01 -1.815103646E-02 1.435164759E-01
 7.605302334E-01 -1.639007730E-02 1.627461098E-01
 7.732927203E-01 -1.466311747E-02 1.769514001E-01
 7.857955396E-01 -1.300701592E-02 1.968090291E-01
 7.980691791E-01 -1.144018536E-02 2.090722634E-01
 8.098741472E-01 -9.970420040E-03 2.237232296E-01
 8.209853768E-01 -8.624916431E-03 2.388163704E-01
 8.328396380E-01 -7.246401859E-03 2.551317195E-01
 8.452197611E-01 -5.891719600E-03 2.715813154E-01
 8.573826551E-01 -4.648084287E-03 2.837036109E-01
 8.691312671E-01 -3.533344599E-03 2.989689378E-01
 8.805841804E-01 -2.550208359E-03 3.094348056E-01
 8.927630782E-01 -1.627578400E-03 3.196130648E-01
 9.142018855E-01 -3.099060032E-04 3.381785168E-01
 9.436299503E-01 7.396499859E-04 3.435939938E-01
 9.561283290E-01 9.298626683E-04 3.460100282E-01
 9.698048234E-01 9.750710742E-04 3.510174636E-01
 9.831799567E-01 8.643241890E-04 3.669221740E-01
 9.946160018E-01 6.466893246E-04 4.330383994E-01
 -5.000000000E-01 9.500000000E-01 -5.945696518E-04
 -5.000000000E-01 9.000000000E-01 -2.668421859E-04
 -5.000000000E-01 8.500000000E-01 7.266573339E-04
 -5.000000000E-01 8.000000000E-01 2.408418208E-03
 -5.000000000E-01 7.500000000E-01 4.914327580E-03
 -5.000000000E-01 7.000000000E-01 8.146199426E-03
 -5.000000000E-01 6.500000000E-01 1.224418943E-02
 -5.000000000E-01 6.000000000E-01 1.724235736E-02
 -5.000000000E-01 5.500000000E-01 2.316143095E-02
 -5.000000000E-01 5.000000000E-01 2.985696986E-02
 -5.000000000E-01 4.500000000E-01 3.759828533E-02
 -5.000000000E-01 4.000000000E-01 4.578185293E-02
 -5.000000000E-01 3.500000000E-01 5.469939560E-02
 -5.000000000E-01 3.000000000E-01 6.406091575E-02
 -5.000000000E-01 2.500000000E-01 7.314187765E-02
 -5.000000000E-01 2.000000000E-01 8.207895123E-02
 -5.000000000E-01 1.500000000E-01 9.018009565E-02
 -5.000000000E-01 1.000000000E-01 9.702951560E-02
 -5.000000000E-01 5.000000000E-02 1.022576661E-01
 -5.000000000E-01 2.752242878E-12 1.057706868E-01
 -5.000000000E-01 -5.000000000E-02 1.069441232E-01
 -5.000000000E-01 -1.000000000E-01 1.062603408E-01
 -5.000000000E-01 -1.500000000E-01 1.038747783E-01
 -5.000000000E-01 -2.000000000E-01 9.978816364E-02
 -5.000000000E-01 -2.500000000E-01 9.457987368E-02
 -5.000000000E-01 -3.000000000E-01 8.866416317E-02
 -5.000000000E-01 -3.500000000E-01 8.228679648E-02
 -5.000000000E-01 -4.000000000E-01 7.573711554E-02
 -5.000000000E-01 -4.500000000E-01 6.928919587E-02
 -5.000000000E-01 -5.000000000E-01 6.317506295E-02
 -5.000000000E-01 -5.500000000E-01 5.726728434E-02
 -5.000000000E-01 -6.000000000E-01 5.188915221E-02
 -5.000000000E-01 -6.500000000E-01 4.687159377E-02
 -5.000000000E-01 -7.000000000E-01 4.228871085E-02
 -5.000000000E-01 -7.500000000E-01 3.788736018E-02
 -5.000000000E-01 -8.000000000E-01 3.389422538E-02
 -5.000000000E-01 -8.500000000E-01 2.974221402E-02
 -5.000000000E-01 -9.000000000E-01 2.532592132E-02
 -5.000000000E-01 -9.500000000E-01 1.880169639E-02
 -4.500000000E-01 -1.000000000E+00 1.719368515E-02
 -4.000000000E-01 -1.000000000E+00 2.229030010E-02
 -3.500000000E-01 -1.000000000E+00 2.455392740E-02
 -3.000000000E-01 -1.000000000E+00 2.562794840E-02
 -2.500000000E-01 -1.000000000E+00 2.588051446E-02
 -2.000000000E-01 -1.000000000E+00 2.525826029E-02
 -1.500000000E-01 -1.000000000E+00 2.392114457E-02
 -1.000000000E-01 -1.000000000E+00 2.194201281E-02
 -5.000000000E-02 -1.000000000E+00 1.932434898E-02
 -9.424683256E-13 -1.000000000E+00 1.626447935E-02
 5.000000000E-02 -1.000000000E+00 1.278052962E-02
 1.000000000E-01 -1.000000000E+00 9.121875967E-03
 1.500000000E-01 -1.000000000E+00 5.564570497E-03
 2.000000000E-01 -1.000000000E+00 1.963979150E-03
 2.500000000E-01 -1.000000000E+00 -1.322356138E-03
 3.000000000E-01 -1.000000000E+00 -4.196748842E-03
 3.500000000E-01 -1.000000000E+00 -6.456896942E-03
 4.000000000E-01 -1.000000000E+00 -8.032532247E-03
 4.500000000E-01 -1.000000000E+00 -8.834393638E-03
 5.000000000E-01 -1.000000000E+00 -8.860459436E-03
 5.500000000E-01 -1.000000000E+00 -8.087225316E-03
 6.000000000E-01 -1.000000000E+00 -6.590851953E-03
 6.500000000E-01 -1.000000000E+00 -4.389035661E-03
 7.000000000E-01 -1.000000000E+00 -1.676368916E-03
 7.500000000E-01 -1.000000000E+00 1.510120925E-03
 8.000000000E-01 -1.000000000E+00 4.973631004E-03
 8.500000000E-01 -1.000000000E+00 8.597100887E-03
 9.000000000E-01 -1.000000000E+00 1.223658579E-02
 9.500000000E-01 -1.000000000E+00 1.580824169E-02
 1.000000000E+00 -1.000000000E+00 1.914057270E-02
 1.050000000E+00 -1.000000000E+00 2.225929914E-02
 1.100000000E+00 -1.000000000E+00 2.501909342E-02
 1.150000000E+00 -1.000000000E+00 2.741949172E-02
 1.200000000E+00 -1.000000000E+00 2.944210011E-02
 1.250000000E+00 -1.000000000E+00 3.109584905E-02
 1.300000000E+00 -1.000000000E+00 3.240165246E-02
 1.350000000E+00 -1.000000000E+00 3.334890405E-02
 1.400000000E+00 -1.000000000E+00 3.400160326E-02
 1.450000000E+00 -1.000000000E+00 3.437768111E-02
 1.500000000E+00 -1.000000000E+00 3.451532356E-02
 1.550000000E+00 -1.000000000E+00 3.441180605E-02
 1.600000000E+00 -1.000000000E+00 3.415820110E-02
 1.650000000E+00 -1.000000000E+00 3.383226287E-02
 1.700000000E+00 -1.000000000E+00 3.325123002E-02
 1.750000000E+00 -1.000000000E+00 3.274006848E-02
 1.800000000E+00 -1.000000000E+00 3.200466327E-02
 1.850000000E+00 -1.000000000E+00 3.130664096E-02
 1.900000000E+00 -1.000000000E+00 3.057062923E-02
 1.950000000E+00 -1.000000000E+00 2.981919138E-02
 2.000000000E+00 -1.000000000E+00 2.906698713E-02
 2.050000000E+00 -1.000000000E+00 2.830396557E-02
 2.100000000E+00 -1.000000000E+00 2.757540637E-02
 2.150000000E+00 -1.000000000E+00 2.685048045E-02
 2.200000000E+00 -1.000000000E+00 2.615831031E-02
 2.250000000E+00 -1.000000000E+00 2.551308691E-02
 2.300000000E+00 -1.000000000E+00 2.487394201E-02
 2.350000000E+00 -1.000000000E+00 2.428957843E-02
 2.400000000E+00 -1.000000000E+00 2.372215080E-02
 2.450000000E+00 -1.000000000E+00 2.319971354E-02
 2.500000000E+00 -1.000000000E+00 2.272712375E-02
 2.550000000E+00 -1.000000000E+00 2.232032186E-02
 2.600000000E+00 -1.000000000E+00 2.186424369E-02
 2.650000000E+00 -1.000000000E+00 2.155662262E-02
 2.700000000E+00 -1.000000000E+00 2.114105539E-02
 2.750000000E+00 -1.000000000E+00 2.082912561E-02
 2.800000000E+00 -1.000000000E+00 2.054678631E-02
 2.850000000E+00 -1.000000000E+00 2.030364151E-02
 2.900000000E+00 -1.000000000E+00 2.001641400E-02
 2.950000000E+00 -1.000000000E+00 1.980026370E-02
 3.000000000E+00 -1.000000000E+00 1.952720783E-02
 3.050000000E+00 -1.000000000E+00 1.926217040E-02
 3.100000000E+00 -1.000000000E+00 1.895601218E-02
 3.150000000E+00 -1.000000000E+00 1.856611479E-02
 3.200000000E+00 -1.000000000E+00 1.811879834E-02
 3.250000000E+00 -1.000000000E+00 1.752636336E-02
 3.300000000E+00 -1.000000000E+00 1.674024805E-02
 3.350000000E+00 -1.000000000E+00 1.565641645E-02
 3.400000000E+00 -1.000000000E+00 1.396826443E-02
 3.450000000E+00 -1.000000000E+00 1.123948994E-02
 3.500000000E+00 -9.500000000E-01 7.404922861E-03
 3.500000000E+00 -9.000000000E-01 8.970168601E-03
 3.500000000E+00 -8.500000000E-01 1.031628352E-02
 3.500000000E+00 -8.000000000E-01 1.180262153E-02
 3.500000000E+00 -7.500000000E-01 1.321499143E-02
 3.500000000E+00 -7.000000000E-01 1.488510866E-02
 3.500000000E+00 -6.500000000E-01 1.647309777E-02
 3.500000000E+00 -6.000000000E-01 1.823260821E-02
 3.500000000E+00 -5.500000000E-01 2.008170069E-02
 3.500000000E+00 -5.000000000E-01 2.212251438E-02
 3.500000000E+00 -4.500000000E-01 2.419820837E-02
 3.500000000E+00 -4.000000000E-01 2.658137944E-02
 3.500000000E+00 -3.500000000E-01 2.890790179E-02
 3.500000000E+00 -3.000000000E-01 3.108464114E-02
 3.500000000E+00 -2.500000000E-01 3.275921477E-02
 3.500000000E+00 -2.000000000E-01 3.353790757E-02
 3.500000000E+00 -1.500000000E-01 3.347756164E-02
 3.500000000E+00 -1.000000000E-01 3.280772209E-02
 3.500000000E+00 -5.000000000E-02 3.200795165E-02
 3.500000000E+00 -2.752242878E-12 3.140814325E-02
 3.500000000E+00 5.000000000E-02 3.080782663E-02
 3.500000000E+00 1.000000000E-01 2.987900256E-02
 3.500000000E+00 1.500000000E-01 2.785682418E-02
 3.500000000E+00 2.000000000E-01 2.528198382E-02
 3.500000000E+00 2.500000000E-01 2.217986689E-02
 3.500000000E+00 3.000000000E-01 1.894434173E-02
 3.500000000E+00 3.500000000E-01 1.585845849E-02
 3.500000000E+00 4.000000000E-01 1.298132749E-02
 3.500000000E+00 4.500000000E-01 1.031330102E-02
 3.500000000E+00 5.000000000E-01 7.908620106E-03
 3.500000000E+00 5.500000000E-01 5.856474305E-03
 3.500000000E+00 6.000000000E-01 4.569786216E-03
 3.500000000E+00 6.500000000E-01 4.042403269E-03
 3.500000000E+00 7.000000000E-01 3.902872604E-03
 3.500000000E+00 7.500000000E-01 3.415453279E-03
 3.500000000E+00 8.000000000E-01 6.186540697E-04
 3.500000000E+00 8.500000000E-01 -5.543573528E-03
 3.500000000E+00 9.000000000E-01 -1.361176985E-02
 3.500000000E+00 9.500000000E-01 -2.324812237E-02
 3.450000000E+00 1.000000000E+00 -1.405889432E-02
 3.400000000E+00 1.000000000E+00 -6.088739578E-03
 3.350000000E+00 1.000000000E+00 -2.287108670E-03
 3.300000000E+00 1.000000000E+00 -4.386716163E-04
 3.250000000E+00 1.000000000E+00 6.117385220E-04
 3.200000000E+00 1.000000000E+00 1.145130775E-03
 3.150000000E+00 1.000000000E+00 1.359461852E-03
 3.100000000E+00 1.000000000E+00 1.369947997E-03
 3.050000000E+00 1.000000000E+00 8.952986377E-04
 3.000000000E+00 1.000000000E+00 8.639333166E-04
 2.950000000E+00 1.000000000E+00 5.675129004E-05
 2.900000000E+00 1.000000000E+00 -3.813527386E-05
 2.850000000E+00 1.000000000E+00 -8.854912564E-04
 2.800000000E+00 1.000000000E+00 -1.512759031E-03
 2.750000000E+00 1.000000000E+00 -2.401983900E-03
 2.700000000E+00 1.000000000E+00 -3.160181945E-03
 2.650000000E+00 1.000000000E+00 -4.174198875E-03
 2.600000000E+00 1.000000000E+00 -4.982793479E-03
 2.550000000E+00 1.000000000E+00 -6.092295994E-03
 2.500000000E+00 1.000000000E+00 -7.336453439E-03
 2.450000000E+00 1.000000000E+00 -8.508076619E-03
 2.400000000E+00 1.000000000E+00 -9.949032417E-03
 2.350000000E+00 1.000000000E+00 -1.120684660E-02
 2.300000000E+00 1.000000000E+00 -1.269741868E-02
 2.250000000E+00 1.000000000E+00 -1.436124286E-02
 2.200000000E+00 1.000000000E+00 -1.593343860E-02
 2.150000000E+00 1.000000000E+00 -1.787678760E-02
 2.100000000E+00 1.000000000E+00 -1.956398302E-02
 2.050000000E+00 1.000000000E+00 -2.183049061E-02
 2.000000000E+00 1.000000000E+00 -2.399240737E-02
 1.950000000E+00 1.000000000E+00 -2.626359875E-02
 1.900000000E+00 1.000000000E+00 -2.882071997E-02
 1.850000000E+00 1.000000000E+00 -3.140661603E-02
 1.800000000E+00 1.000000000E+00 -3.438789735E-02
 1.750000000E+00 1.000000000E+00 -3.756204511E-02
 1.700000000E+00 1.000000000E+00 -4.118064485E-02
 1.650000000E+00 1.000000000E+00 -4.494033171E-02
 1.600000000E+00 1.000000000E+00 -4.853428104E-02
 1.550000000E+00 1.000000000E+00 -5.272485449E-02
 1.500000000E+00 1.000000000E+00 -5.678005693E-02
 1.450000000E+00 1.000000000E+00 -6.193878692E-02
 1.400000000E+00 1.000000000E+00 -6.662899143E-02
 1.350000000E+00 1.000000000E+00 -7.191478544E-02
 1.300000000E+00 1.000000000E+00 -7.763339547E-02
 1.250000000E+00 1.000000000E+00 -8.230100197E-02
 1.200000000E+00 1.000000000E+00 -8.881230666E-02
 1.150000000E+00 1.000000000E+00 -9.422801386E-02
 1.100000000E+00 1.000000000E+00 -9.998662669E-02
 1.050000000E+00 1.000000000E+00 -1.054293116E-01
 1.000000000E+00 1.000000000E+00 -1.102594491E-01
 9.500000000E-01 1.000000000E+00 -1.146870212E-01
 9.000000000E-01 1.000000000E+00 -1.186971545E-01
 8.500000000E-01 1.000000000E+00 -1.221742381E-01
 8.000000000E-01 1.000000000E+00 -1.240370821E-01
 7.500000000E-01 1.000000000E+00 -1.256105376E-01
 7.000000000E-01 1.000000000E+00 -1.255112681E-01
 6.500000000E-01 1.000000000E+00 -1.248589250E-01
 6.000000000E-01 1.000000000E+00 -1.217862885E-01
 5.500000000E-01 1.000000000E+00 -1.187162188E-01
 5.000000000E-01 1.000000000E+00 -1.141374907E-01
 4.500000000E-01 1.000000000E+00 -1.081547487E-01
 4.000000000E-01 1.000000000E+00 -1.022130215E-01
 3.500000000E-01 1.000000000E+00 -9.369485990E-02
 3.000000000E-01 1.000000000E+00 -8.660606592E-02
 2.500000000E-01 1.000000000E+00 -7.748917907E-02
 2.000000000E-01 1.000000000E+00 -6.944864106E-02
 1.500000000E-01 1.000000000E+00 -6.061140003E-02
 1.000000000E-01 1.000000000E+00 -5.220057757E-02
 5.000000000E-02 1.000000000E+00 -4.394504251E-02
 1.733724275E-12 1.000000000E+00 -3.623248542E-02
 -5.000000000E-02 1.000000000E+00 -2.910866845E-02
 -1.000000000E-01 1.000000000E+00 -2.264226328E-02
 -1.500000000E-01 1.000000000E+00 -1.714956059E-02
 -2.000000000E-01 1.000000000E+00 -1.245783169E-02
 -2.500000000E-01 1.000000000E+00 -8.521921704E-03
 -3.000000000E-01 1.000000000E+00 -5.569405021E-03
 -3.500000000E-01 1.000000000E+00 -3.260601735E-03
 -4.000000000E-01 1.000000000E+00 -1.786432563E-03
 -4.500000000E-01 1.000000000E+00 -8.617581279E-04
 1.974301794E+00 -9.567100624E-01 2.912942075E-02
 1.968335536E+00 9.536869636E-01 -2.426882551E-02
 9.170374929E-01 -4.706528169E-03 3.303356910E-01
 8.368444275E-01 -1.221518120E-02 2.555307399E-01
 7.655328985E-01 -2.082094461E-02 1.646681371E-01
 6.938783796E-01 -3.215430069E-02 6.828478141E-02
 9.862665722E-01 -4.134417602E-03 3.669923789E-01
 6.270183597E-01 -4.188688006E-02 -2.841227305E-02
 5.542673570E-01 -5.249537364E-02 -1.629843842E-01
 4.942283799E-01 -6.082220628E-02 -2.874546163E-01
 4.389486664E-01 -6.542152881E-02 -3.868715406E-01
 3.821886266E-01 -6.740752813E-02 -4.434870018E-01
 3.252388339E-01 -6.826040085E-02 -4.400391673E-01