TITLE     = "Visualization of the solution"
VARIABLES = "x"
"y"
"Pressure_Coefficient"
ZONE T="Zone"
 STRANDID=0, SOLUTIONTIME=0
 Nodes=11910, Elements=23237, ZONETYPE=FEQuadrilateral
 DATAPACKING=POINT
 DT=(DOUBLE DOUBLE DOUBLE )
 1.000321507E+00 5.183507456E-04 2.313385312E-01
 9.866502285E-01 3.003245452E-03 1.594686783E-01
 9.739601016E-01 5.360725801E-03 9.266831045E-02
 9.585042596E-01 8.208742365E-03 4.181134579E-02
 9.439456463E-01 1.083598193E-02 1.020460943E-02
 9.304652214E-01 1.328587160E-02 -2.728611422E-02
 9.186896086E-01 1.538652927E-02 -5.378664162E-02
 9.063264132E-01 1.756929234E-02 -8.056014849E-02
 8.944876790E-01 1.963750273E-02 -1.150108473E-01
 8.821185827E-01 2.168722264E-02 -1.319212361E-01
 8.698886037E-01 2.366618626E-02 -1.458076443E-01
 8.581519723E-01 2.556286380E-02 -1.821479122E-01
 8.457056880E-01 2.739461325E-02 -1.736618677E-01
 8.344955444E-01 2.907637134E-02 -1.928277678E-01
 8.230226040E-01 3.074936941E-02 -2.057876905E-01
 8.106939197E-01 3.251056746E-02 -2.226785718E-01
 7.979512215E-01 3.425761685E-02 -2.280571462E-01
 7.857198715E-01 3.592404723E-02 -2.456667982E-01
 7.729628086E-01 3.759456798E-02 -2.486851347E-01
 7.610990405E-01 3.916823119E-02 -2.736272069E-01
 7.476663589E-01 4.085176438E-02 -2.785388524E-01
 7.342224717E-01 4.253293201E-02 -2.985187143E-01
 7.232934833E-01 4.385445267E-02 -3.134660734E-01
 7.115933299E-01 4.520545155E-02 -3.163507283E-01
 6.998797655E-01 4.655218497E-02 -3.319808506E-01
 6.866469383E-01 4.802251607E-02 -3.456615443E-01
 6.736441851E-01 4.942925274E-02 -3.662626300E-01
 6.627928019E-01 5.053941905E-02 -3.743211044E-01
 6.509022117E-01 5.171269923E-02 -3.846933056E-01
 6.395432353E-01 5.279335007E-02 -3.957755561E-01
 6.277115941E-01 5.387848616E-02 -4.121676605E-01
 6.162462831E-01 5.486556143E-02 -4.223913818E-01
 6.054201126E-01 5.574837700E-02 -4.327556191E-01
 5.933310390E-01 5.666304007E-02 -4.388041298E-01
 5.816133618E-01 5.750098452E-02 -4.469975957E-01
 5.682649016E-01 5.839400738E-02 -4.635690781E-01
 5.556100607E-01 5.913673341E-02 -4.643680174E-01
 5.430990458E-01 5.982152373E-02 -4.759331621E-01
 5.318110585E-01 6.036553904E-02 -4.824256703E-01
 5.197409987E-01 6.086227298E-02 -4.781998434E-01
 5.076011419E-01 6.132686511E-02 -4.921175677E-01
 4.966402352E-01 6.165577844E-02 -4.894925881E-01
 4.835878611E-01 6.196951494E-02 -4.834135862E-01
 4.709278047E-01 6.223548204E-02 -4.953167741E-01
 4.572083354E-01 6.238712370E-02 -4.834146068E-01
 4.439892173E-01 6.249020994E-02 -4.867130160E-01
 4.312403798E-01 6.251317263E-02 -4.866844854E-01
 4.183547795E-01 6.245955452E-02 -4.856120420E-01
 4.059571326E-01 6.232938543E-02 -4.789943865E-01
 3.934214413E-01 6.214506924E-02 -4.799063429E-01
 3.811739683E-01 6.188162789E-02 -4.720846409E-01
 3.694979846E-01 6.158100069E-02 -4.669906908E-01
 3.566653430E-01 6.119460240E-02 -4.645780841E-01
 3.443988562E-01 6.076317281E-02 -4.624650142E-01
 3.320654035E-01 6.025942415E-02 -4.579913241E-01
 3.214029372E-01 5.977224931E-02 -4.526818646E-01
 3.092970550E-01 5.916411430E-02 -4.489880584E-01
 2.962805629E-01 5.842991546E-02 -4.397722949E-01
 2.825548947E-01 5.758964643E-02 -4.362346966E-01
 2.700899243E-01 5.674790218E-02 -4.266214799E-01
 2.584720850E-01 5.592731386E-02 -4.290201645E-01
 2.457473874E-01 5.491976067E-02 -4.137699602E-01
 2.332195491E-01 5.389162898E-02 -4.146141910E-01
 2.207966149E-01 5.277368426E-02 -4.054743695E-01
 2.089161575E-01 5.163559690E-02 -3.951289734E-01
 1.970945448E-01 5.045295507E-02 -3.945132747E-01
 1.847234666E-01 4.911108688E-02 -3.826489562E-01
 1.727625728E-01 4.774343595E-02 -3.745856627E-01
 1.609188169E-01 4.631698877E-02 -3.699341020E-01
 1.488065124E-01 4.475903511E-02 -3.624470904E-01
 1.377695948E-01 4.324976727E-02 -3.522301104E-01
 1.260740608E-01 4.155903310E-02 -3.439853569E-01
 1.146356389E-01 3.980292380E-02 -3.367177474E-01
 1.038043648E-01 3.802765161E-02 -3.266216701E-01
 9.373169392E-02 3.627658263E-02 -3.161669156E-01
 8.262842894E-02 3.421798721E-02 -3.065248797E-01
 7.135049254E-02 3.195975348E-02 -2.938369957E-01
 6.158980355E-02 2.984963730E-02 -2.824312560E-01
 5.215744302E-02 2.763478644E-02 -2.668239530E-01
 4.344860464E-02 2.539647929E-02 -2.561123649E-01
 3.600719571E-02 2.330523729E-02 -2.390821946E-01
 2.950684913E-02 2.129529417E-02 -2.205613100E-01
 2.398773655E-02 1.942041330E-02 -2.078640707E-01
 1.997192390E-02 1.791566052E-02 -1.796125763E-01
 1.625881903E-02 1.639848761E-02 -1.620112989E-01
 1.337612234E-02 1.510335319E-02 -1.317143018E-01
 1.081167068E-02 1.383984089E-02 -1.011528993E-01
 8.926813491E-03 1.281862706E-02 -6.961015220E-02
 7.221123669E-03 1.181932539E-02 -4.805964342E-02
 5.629050545E-03 1.079090033E-02 1.984348418E-02
 3.535801778E-03 9.233097546E-03 1.156941791E-01
 1.803352963E-03 7.678837050E-03 2.288423264E-01
 3.917314461E-04 6.074070465E-03 4.641684883E-01
 -9.385486483E-04 3.906974569E-03 7.120041658E-01
 -1.538486104E-03 2.186686033E-03 9.127504038E-01
 -1.744884648E-03 7.795986603E-04 1.042848381E+00
 -1.685840776E-03 -8.538325201E-04 1.117037653E+00
 -1.256534364E-03 -2.700055484E-03 1.083321364E+00
 -3.093023261E-04 -4.827310331E-03 9.654341426E-01
 1.172024291E-03 -7.045507897E-03 7.884830995E-01
 3.208016744E-03 -9.342963807E-03 6.266468589E-01
 5.092984997E-03 -1.109303255E-02 4.831897307E-01
 7.293482311E-03 -1.285375282E-02 3.927641622E-01
 9.002996609E-03 -1.407808997E-02 3.035695913E-01
 1.108864602E-02 -1.545080449E-02 2.488216453E-01
 1.351232361E-02 -1.690604910E-02 1.781986739E-01
 1.674938202E-02 -1.866797917E-02 1.140478319E-01
 1.986692846E-02 -2.021669783E-02 5.071337490E-02
 2.381237037E-02 -2.201034501E-02 1.148950062E-03
 2.909591421E-02 -2.418002114E-02 -4.799114095E-02
 3.469410166E-02 -2.625107579E-02 -9.666142314E-02
 4.150618613E-02 -2.852831222E-02 -1.279543744E-01
 4.899456352E-02 -3.079885989E-02 -1.654158252E-01
 5.776810646E-02 -3.319376335E-02 -1.912713110E-01
 6.648964435E-02 -3.537290171E-02 -2.153074335E-01
 7.674916089E-02 -3.771610186E-02 -2.352729018E-01
 8.667565137E-02 -3.978672624E-02 -2.489506902E-01
 9.717006236E-02 -4.182118550E-02 -2.657465907E-01
 1.083097905E-01 -4.381666705E-02 -2.778049338E-01
 1.198438257E-01 -4.574025795E-02 -2.922117794E-01
 1.315429658E-01 -4.754612595E-02 -3.021474962E-01
 1.424549371E-01 -4.912200198E-02 -3.138528271E-01
 1.537027210E-01 -5.064965785E-02 -3.254745509E-01
 1.659366786E-01 -5.219953880E-02 -3.372619288E-01
 1.778028309E-01 -5.358856916E-02 -3.445668381E-01
 1.896952391E-01 -5.489565805E-02 -3.572025123E-01
 2.004577219E-01 -5.599462986E-02 -3.669752550E-01
 2.120984197E-01 -5.710402131E-02 -3.787434556E-01
 2.244490385E-01 -5.818444118E-02 -3.901049516E-01
 2.366999984E-01 -5.915303901E-02 -3.995988673E-01
 2.488137782E-01 -6.001354381E-02 -4.068043289E-01
 2.613458633E-01 -6.082084030E-02 -4.204890920E-01
 2.727214396E-01 -6.145507470E-02 -4.289900022E-01
 2.853110731E-01 -6.205879524E-02 -4.373750889E-01
 2.975902855E-01 -6.254126132E-02 -4.453202836E-01
 3.104249835E-01 -6.294134259E-02 -4.565603614E-01
 3.221858740E-01 -6.317166239E-02 -4.527638728E-01
 3.348596692E-01 -6.334144622E-02 -4.646857493E-01
 3.455680907E-01 -6.337519735E-02 -4.675975344E-01
 3.568334579E-01 -6.329468638E-02 -4.601803232E-01
 3.680632114E-01 -6.314467639E-02 -4.688453197E-01
 3.789753020E-01 -6.286805123E-02 -4.572064863E-01
 3.906237185E-01 -6.248198450E-02 -4.537416417E-01
 4.033503234E-01 -6.193818152E-02 -4.496671343E-01
 4.153479338E-01 -6.126300246E-02 -4.278646888E-01
 4.281658530E-01 -6.045719981E-02 -4.245378414E-01
 4.402272105E-01 -5.951258913E-02 -3.891743158E-01
 4.526416659E-01 -5.848728865E-02 -3.808697044E-01
 4.646333456E-01 -5.737569556E-02 -3.603605630E-01
 4.770102799E-01 -5.609344319E-02 -3.280826937E-01
 4.887109995E-01 -5.481662601E-02 -3.073422383E-01
 5.009775162E-01 -5.339241028E-02 -2.812687625E-01
 5.143398643E-01 -5.176287889E-02 -2.569504483E-01
 5.271782279E-01 -5.008881167E-02 -2.223189267E-01
 5.399860740E-01 -4.837578908E-02 -1.961906492E-01
 5.529731512E-01 -4.660078138E-02 -1.733033690E-01
 5.659824014E-01 -4.476277903E-02 -1.453052785E-01
 5.788547397E-01 -4.291356727E-02 -1.214878195E-01
 5.915785432E-01 -4.105246440E-02 -9.683746491E-02
 6.043339968E-01 -3.916038573E-02 -7.079664891E-02
 6.178064942E-01 -3.717491031E-02 -5.255828124E-02
 6.315917969E-01 -3.511333093E-02 -2.780330352E-02
 6.454436183E-01 -3.303414583E-02 -4.489519404E-03
 6.585353017E-01 -3.108796850E-02 1.257547186E-02
 6.717147231E-01 -2.911025472E-02 3.707147436E-02
 6.842512488E-01 -2.726310492E-02 5.252392163E-02
 6.967476606E-01 -2.543713525E-02 6.896132701E-02
 7.112505436E-01 -2.333513461E-02 8.688034186E-02
 7.243484855E-01 -2.146091871E-02 1.012283886E-01
 7.357345819E-01 -1.980330236E-02 1.265040939E-01
 7.490633130E-01 -1.794463210E-02 1.379474987E-01
 7.618009448E-01 -1.618412137E-02 1.570115559E-01
 7.752596736E-01 -1.437522192E-02 1.730024145E-01
 7.874720097E-01 -1.277767494E-02 1.874325142E-01
 8.002000451E-01 -1.116088219E-02 2.009753608E-01
 8.111091852E-01 -9.781573899E-03 2.223051784E-01
 8.224951625E-01 -8.422770537E-03 2.342416587E-01
 8.351317644E-01 -6.995038595E-03 2.463164741E-01
 8.473502994E-01 -5.657734815E-03 2.651310546E-01
 8.596625328E-01 -4.420112353E-03 2.771122567E-01
 8.708302379E-01 -3.371630097E-03 2.916907583E-01
 8.824009299E-01 -2.392647322E-03 3.025831944E-01
 8.956428766E-01 -1.421638182E-03 3.104080536E-01
 9.060369134E-01 -7.636848022E-04 3.186534794E-01
 9.168061018E-01 -1.812825067E-04 3.261216719E-01
 9.271218777E-01 2.668997622E-04 3.292726570E-01
 9.371486902E-01 5.919730174E-04 3.316282279E-01
 9.498846531E-01 8.670856478E-04 3.325733811E-01
 9.637384415E-01 9.976438014E-04 3.349480470E-01
 9.775807261E-01 9.605244850E-04 3.437698601E-01
 9.895679951E-01 7.815306308E-04 3.658026012E-01
 -5.000000000E-01 -1.000000000E+00 1.197324400E-02
 3.500000000E+00 -1.000000000E+00 7.013988268E-03
 3.500000000E+00 1.000000000E+00 -1.863611650E-02
 -5.000000000E-01 1.000000000E+00 1.160943660E-04
 9.934858680E-01 1.760798099E-03 1.987008218E-01
 9.803051651E-01 4.181985627E-03 1.168500125E-01
 9.662321806E-01 6.784734083E-03 6.479357073E-02
 9.512249529E-01 9.522362147E-03 2.693963310E-02
 9.372054338E-01 1.206092676E-02 -1.002394522E-02
 9.245774150E-01 1.433620043E-02 -4.034939943E-02
 9.125080109E-01 1.647791080E-02 -6.699773348E-02
 9.004070461E-01 1.860339753E-02 -1.011239163E-01
 8.883031309E-01 2.066236269E-02 -1.225065069E-01
 8.760035932E-01 2.267670445E-02 -1.364798267E-01
 8.640202880E-01 2.461452503E-02 -1.707488690E-01
 8.519288301E-01 2.647873852E-02 -1.730944345E-01
 8.401006162E-01 2.823549230E-02 -1.845122390E-01
 8.287590742E-01 2.991287038E-02 -1.994917519E-01
 8.168582618E-01 3.162996843E-02 -2.158433839E-01
 8.043225706E-01 3.338409215E-02 -2.235701901E-01
 7.918355465E-01 3.509083204E-02 -2.386207574E-01
 7.793413401E-01 3.675930761E-02 -2.442139385E-01
 7.670309246E-01 3.838139959E-02 -2.649768217E-01
 7.543826997E-01 4.000999779E-02 -2.737057126E-01
 7.409444153E-01 4.169234820E-02 -2.889311756E-01
 7.287579775E-01 4.319369234E-02 -3.079203364E-01
 7.174434066E-01 4.452995211E-02 -3.126750697E-01
 7.057365477E-01 4.587881826E-02 -3.252129711E-01
 6.932633519E-01 4.728735052E-02 -3.384717712E-01
 6.801455617E-01 4.872588441E-02 -3.567494418E-01
 6.682184935E-01 4.998433590E-02 -3.702174235E-01
 6.568475068E-01 5.112605914E-02 -3.789089814E-01
 6.452227235E-01 5.225302465E-02 -3.900900713E-01
 6.336274147E-01 5.333591811E-02 -4.049194779E-01
 6.219789386E-01 5.437202379E-02 -4.169708259E-01
 6.108331978E-01 5.530696921E-02 -4.291268966E-01
 5.993755758E-01 5.620570853E-02 -4.348653789E-01
 5.874722004E-01 5.708201230E-02 -4.432384170E-01
 5.749391317E-01 5.794749595E-02 -4.571307241E-01
 5.619374812E-01 5.876537040E-02 -4.623143401E-01
 5.493545532E-01 5.947912857E-02 -4.703099646E-01
 5.374550521E-01 6.009353139E-02 -4.808149954E-01
 5.257760286E-01 6.061390601E-02 -4.778725937E-01
 5.136710703E-01 6.109456904E-02 -4.868606799E-01
 5.021206886E-01 6.149132177E-02 -4.922504679E-01
 4.901140481E-01 6.181264669E-02 -4.838576410E-01
 4.772578329E-01 6.210249849E-02 -4.936918837E-01
 4.640680701E-01 6.231130287E-02 -4.866679673E-01
 4.505987763E-01 6.243866682E-02 -4.852195696E-01
 4.376147985E-01 6.250169128E-02 -4.871456795E-01
 4.247975796E-01 6.248636357E-02 -4.862788052E-01
 4.121559560E-01 6.239446998E-02 -4.811939410E-01
 3.996892869E-01 6.223722734E-02 -4.805962208E-01
 3.872977048E-01 6.201334856E-02 -4.749000379E-01
 3.753359765E-01 6.173131429E-02 -4.699459989E-01
 3.630816638E-01 6.138780154E-02 -4.656862865E-01
 3.505320996E-01 6.097888760E-02 -4.641957903E-01
 3.382321298E-01 6.051129848E-02 -4.591477861E-01
 3.267341703E-01 6.001583673E-02 -4.556921574E-01
 3.153499961E-01 5.946818180E-02 -4.521172701E-01
 3.027888089E-01 5.879701488E-02 -4.441673782E-01
 2.894177288E-01 5.800978094E-02 -4.380515047E-01
 2.763224095E-01 5.716877431E-02 -4.292445305E-01
 2.642810047E-01 5.633760802E-02 -4.313797313E-01
 2.521097362E-01 5.542353727E-02 -4.187463380E-01
 2.394834682E-01 5.440569483E-02 -4.159282965E-01
 2.270080820E-01 5.333265662E-02 -4.094812249E-01
 2.148563862E-01 5.220464058E-02 -3.989021969E-01
 2.030053511E-01 5.104427598E-02 -3.971370163E-01
 1.909090057E-01 4.978202097E-02 -3.878317185E-01
 1.787430197E-01 4.842726141E-02 -3.781214626E-01
 1.668406948E-01 4.703021236E-02 -3.735484808E-01
 1.548626646E-01 4.553801194E-02 -3.655587869E-01
 1.432880536E-01 4.400440119E-02 -3.575689859E-01
 1.319218278E-01 4.240440018E-02 -3.485100473E-01
 1.203548498E-01 4.068097845E-02 -3.404151477E-01
 1.092200018E-01 3.891528770E-02 -3.307963537E-01
 9.876802936E-02 3.715211712E-02 -3.233925123E-01
 8.818006143E-02 3.524728492E-02 -3.130812420E-01
 7.698946074E-02 3.308887035E-02 -3.031091526E-01
 7.161940262E-02 -3.654450178E-02 -2.289018273E-01
 8.171240613E-02 -3.875141405E-02 -2.452709557E-01
 9.192285687E-02 -4.080395587E-02 -2.575961698E-01
 1.027399264E-01 -4.281892627E-02 -2.722070619E-01
 1.140768081E-01 -4.477846250E-02 -2.849679986E-01
 1.256933957E-01 -4.664319195E-02 -2.983510300E-01
 1.369989514E-01 -4.833406396E-02 -3.092087623E-01
 1.480788291E-01 -4.988582991E-02 -3.185969785E-01
 1.598196998E-01 -5.142459832E-02 -3.310773716E-01
 1.718697548E-01 -5.289405398E-02 -3.425394038E-01
 1.837490350E-01 -5.424211361E-02 -3.508134176E-01
 1.950764805E-01 -5.544514395E-02 -3.633757507E-01
 2.062780708E-01 -5.654932559E-02 -3.716582192E-01
 2.182737291E-01 -5.764423124E-02 -3.839766628E-01
 2.305745184E-01 -5.866874009E-02 -3.952237495E-01
 2.427568883E-01 -5.958329141E-02 -4.036541995E-01
 2.550798208E-01 -6.041719206E-02 -4.124805959E-01
 2.670336515E-01 -6.113795750E-02 -4.261486160E-01
 2.790162563E-01 -6.175693497E-02 -4.315799126E-01
 2.914506793E-01 -6.230002828E-02 -4.419336896E-01
 3.040076345E-01 -6.274130195E-02 -4.495481157E-01
 3.163054287E-01 -6.305650249E-02 -4.583413291E-01
 3.285227716E-01 -6.325655431E-02 -4.555588029E-01
 3.402138799E-01 -6.335832179E-02 -4.691738723E-01
 3.512007743E-01 -6.333494186E-02 -4.645730625E-01
 3.624483347E-01 -6.321968138E-02 -4.620805895E-01
 3.735192567E-01 -6.300636381E-02 -4.655370723E-01
 3.847995102E-01 -6.267501786E-02 -4.538378164E-01
 3.969870210E-01 -6.221008301E-02 -4.502413794E-01
 4.093491286E-01 -6.160059199E-02 -4.435372586E-01
 4.217568934E-01 -6.086010113E-02 -4.226806043E-01
 4.341965318E-01 -5.998489447E-02 -4.130256075E-01
 4.464344382E-01 -5.899993889E-02 -3.814294227E-01
 4.586375058E-01 -5.793149211E-02 -3.721483768E-01
 4.708218127E-01 -5.673456937E-02 -3.466148498E-01
 4.828606397E-01 -5.545503460E-02 -3.172105471E-01
 4.948442578E-01 -5.410451815E-02 -2.943982019E-01
 5.076586902E-01 -5.257764459E-02 -2.683240444E-01
 5.207590461E-01 -5.092584528E-02 -2.421621271E-01
 5.335821509E-01 -4.923230037E-02 -2.090844104E-01
 5.464796126E-01 -4.748828523E-02 -1.843263452E-01
 5.594777763E-01 -4.568178020E-02 -1.600518746E-01
 5.724185705E-01 -4.383817315E-02 -1.333138254E-01
 5.852166414E-01 -4.198301584E-02 -1.096200215E-01
 5.979562700E-01 -4.010642506E-02 -8.441961920E-02
 6.110702455E-01 -3.816764802E-02 -6.066341928E-02
 6.246991456E-01 -3.614412062E-02 -4.108979049E-02
 6.385177076E-01 -3.407373838E-02 -1.641516956E-02
 6.519894600E-01 -3.206105717E-02 5.169542126E-03
 6.651250124E-01 -3.009911161E-02 2.368177351E-02
 6.779829860E-01 -2.818667982E-02 4.568289869E-02
 6.904994547E-01 -2.635012008E-02 6.069076349E-02
 7.039991021E-01 -2.438613493E-02 7.766660836E-02
 7.177995145E-01 -2.239802666E-02 9.509812445E-02
 7.300415337E-01 -2.063211054E-02 1.112488554E-01
 7.423989475E-01 -1.887396723E-02 1.328681196E-01
 7.554321289E-01 -1.706437673E-02 1.468450528E-01
 7.685303092E-01 -1.527967164E-02 1.648637820E-01
 7.813658416E-01 -1.357644843E-02 1.808508343E-01
 7.938360274E-01 -1.196927857E-02 1.946366351E-01
 8.056546152E-01 -1.047122804E-02 2.100715300E-01
 8.168021739E-01 -9.102172218E-03 2.287267474E-01
 8.288134634E-01 -7.708904566E-03 2.403791596E-01
 8.412410319E-01 -6.326386705E-03 2.543027547E-01
 8.535064161E-01 -5.038923584E-03 2.714416800E-01
 8.652463853E-01 -3.895871225E-03 2.839859931E-01
 8.766155839E-01 -2.882138710E-03 2.967802214E-01
 8.890219033E-01 -1.907142752E-03 3.063338813E-01
 9.008398950E-01 -1.092661492E-03 3.167203893E-01
 9.114215076E-01 -4.724836544E-04 3.216408574E-01
 9.219639897E-01 4.280862777E-05 3.286814040E-01
 9.435166717E-01 7.295293325E-04 3.317244607E-01
 9.568115473E-01 9.323647246E-04 3.329452836E-01
 9.706595838E-01 9.790841432E-04 3.376258310E-01
 9.835743606E-01 8.710275579E-04 3.506135590E-01
 9.949447513E-01 6.499406882E-04 4.141229840E-01
 -5.000000000E-01 9.500000000E-01 3.046240551E-04
 -5.000000000E-01 9.000000000E-01 8.714156235E-04
 -5.000000000E-01 8.500000000E-01 1.964063077E-03
 -5.000000000E-01 8.000000000E-01 3.649331905E-03
 -5.000000000E-01 7.500000000E-01 6.010027226E-03
 -5.000000000E-01 7.000000000E-01 9.098637040E-03
 -5.000000000E-01 6.500000000E-01 1.295687662E-02
 -5.000000000E-01 6.000000000E-01 1.762199820E-02
 -5.000000000E-01 5.500000000E-01 2.311352342E-02
 -5.000000000E-01 5.000000000E-01 2.940443173E-02
 -5.000000000E-01 4.500000000E-01 3.648075308E-02
 -5.000000000E-01 4.000000000E-01 4.418868951E-02
 -5.000000000E-01 3.500000000E-01 5.244970898E-02
 -5.000000000E-01 3.000000000E-01 6.109169456E-02
 -5.000000000E-01 2.500000000E-01 6.960577311E-02
 -5.000000000E-01 2.000000000E-01 7.794651129E-02
 -5.000000000E-01 1.500000000E-01 8.532710052E-02
 -5.000000000E-01 1.000000000E-01 9.175658301E-02
 -5.000000000E-01 5.000000000E-02 9.657476834E-02
 -5.000000000E-01 2.752242878E-12 9.970545225E-02
 -5.000000000E-01 -5.000000000E-02 1.006307325E-01
 -5.000000000E-01 -1.000000000E-01 9.985521546E-02
 -5.000000000E-01 -1.500000000E-01 9.738916842E-02
 -5.000000000E-01 -2.000000000E-01 9.330632725E-02
 -5.000000000E-01 -2.500000000E-01 8.831049308E-02
 -5.000000000E-01 -3.000000000E-01 8.243186645E-02
 -5.000000000E-01 -3.500000000E-01 7.605365739E-02
 -5.000000000E-01 -4.000000000E-01 6.986223560E-02
 -5.000000000E-01 -4.500000000E-01 6.343605253E-02
 -5.000000000E-01 -5.000000000E-01 5.757562142E-02
 -5.000000000E-01 -5.500000000E-01 5.189185878E-02
 -5.000000000E-01 -6.000000000E-01 4.671742731E-02
 -5.000000000E-01 -6.500000000E-01 4.194261137E-02
 -5.000000000E-01 -7.000000000E-01 3.756074133E-02
 -5.000000000E-01 -7.500000000E-01 3.354011756E-02
 -5.000000000E-01 -8.000000000E-01 2.975620065E-02
 -5.000000000E-01 -8.500000000E-01 2.606384871E-02
 -5.000000000E-01 -9.000000000E-01 2.206901478E-02
 -5.000000000E-01 -9.500000000E-01 1.637090860E-02
 -4.500000000E-01 -1.000000000E+00 1.496517771E-02
 -4.000000000E-01 -1.000000000E+00 1.933153348E-02
 -3.500000000E-01 -1.000000000E+00 2.119912184E-02
 -3.000000000E-01 -1.000000000E+00 2.191444984E-02
 -2.500000000E-01 -1.000000000E+00 2.188829525E-02
 -2.000000000E-01 -1.000000000E+00 2.116954291E-02
 -1.500000000E-01 -1.000000000E+00 1.955490238E-02
 -1.000000000E-01 -1.000000000E+00 1.736075257E-02
 -5.000000000E-02 -1.000000000E+00 1.461442855E-02
 -9.424683256E-13 -1.000000000E+00 1.137665639E-02
 5.000000000E-02 -1.000000000E+00 7.830874689E-03
 1.000000000E-01 -1.000000000E+00 4.186312576E-03
 1.500000000E-01 -1.000000000E+00 3.083524062E-04
 2.000000000E-01 -1.000000000E+00 -3.278182691E-03
 2.500000000E-01 -1.000000000E+00 -6.803440408E-03
 3.000000000E-01 -1.000000000E+00 -9.737864534E-03
 3.500000000E-01 -1.000000000E+00 -1.203908417E-02
 4.000000000E-01 -1.000000000E+00 -1.373130201E-02
 4.500000000E-01 -1.000000000E+00 -1.456832919E-02
 5.000000000E-01 -1.000000000E+00 -1.469795788E-02
 5.500000000E-01 -1.000000000E+00 -1.399298990E-02
 6.000000000E-01 -1.000000000E+00 -1.253736095E-02
 6.500000000E-01 -1.000000000E+00 -1.039052347E-02
 7.000000000E-01 -1.000000000E+00 -7.697550992E-03
 7.500000000E-01 -1.000000000E+00 -4.579662116E-03
 8.000000000E-01 -1.000000000E+00 -1.027707044E-03
 8.500000000E-01 -1.000000000E+00 2.566550449E-03
 9.000000000E-01 -1.000000000E+00 6.324287960E-03
 9.500000000E-01 -1.000000000E+00 9.880790871E-03
 1.000000000E+00 -1.000000000E+00 1.327580155E-02
 1.050000000E+00 -1.000000000E+00 1.645848396E-02
 1.100000000E+00 -1.000000000E+00 1.925330062E-02
 1.150000000E+00 -1.000000000E+00 2.177284982E-02
 1.200000000E+00 -1.000000000E+00 2.392970517E-02
 1.250000000E+00 -1.000000000E+00 2.570920521E-02
 1.300000000E+00 -1.000000000E+00 2.712529265E-02
 1.350000000E+00 -1.000000000E+00 2.823677573E-02
 1.400000000E+00 -1.000000000E+00 2.901112069E-02
 1.450000000E+00 -1.000000000E+00 2.952163981E-02
 1.500000000E+00 -1.000000000E+00 2.981751185E-02
 1.550000000E+00 -1.000000000E+00 2.989141895E-02
 1.600000000E+00 -1.000000000E+00 2.981474872E-02
 1.650000000E+00 -1.000000000E+00 2.957016488E-02
 1.700000000E+00 -1.000000000E+00 2.924394569E-02
 1.750000000E+00 -1.000000000E+00 2.873849054E-02
 1.800000000E+00 -1.000000000E+00 2.828961921E-02
 1.850000000E+00 -1.000000000E+00 2.767031119E-02
 1.900000000E+00 -1.000000000E+00 2.710593517E-02
 1.950000000E+00 -1.000000000E+00 2.651235902E-02
 2.000000000E+00 -1.000000000E+00 2.586364601E-02
 2.050000000E+00 -1.000000000E+00 2.523969457E-02
 2.100000000E+00 -1.000000000E+00 2.462408154E-02
 2.150000000E+00 -1.000000000E+00 2.402309894E-02
 2.200000000E+00 -1.000000000E+00 2.343559632E-02
 2.250000000E+00 -1.000000000E+00 2.291898353E-02
 2.300000000E+00 -1.000000000E+00 2.236204459E-02
 2.350000000E+00 -1.000000000E+00 2.192503426E-02
 2.400000000E+00 -1.000000000E+00 2.138381480E-02
 2.450000000E+00 -1.000000000E+00 2.094172025E-02
 2.500000000E+00 -1.000000000E+00 2.053522811E-02
 2.550000000E+00 -1.000000000E+00 2.017049176E-02
 2.600000000E+00 -1.000000000E+00 1.981639369E-02
 2.650000000E+00 -1.000000000E+00 1.950367346E-02
 2.700000000E+00 -1.000000000E+00 1.921384107E-02
 2.750000000E+00 -1.000000000E+00 1.897046709E-02
 2.800000000E+00 -1.000000000E+00 1.871054556E-02
 2.850000000E+00 -1.000000000E+00 1.847029696E-02
 2.900000000E+00 -1.000000000E+00 1.825951432E-02
 2.950000000E+00 -1.000000000E+00 1.801239099E-02
 3.000000000E+00 -1.000000000E+00 1.781210591E-02
 3.050000000E+00 -1.000000000E+00 1.753902857E-02
 3.100000000E+00 -1.000000000E+00 1.727581521E-02
 3.150000000E+00 -1.000000000E+00 1.691807525E-02
 3.200000000E+00 -1.000000000E+00 1.648663457E-02
 3.250000000E+00 -1.000000000E+00 1.590051461E-02
 3.300000000E+00 -1.000000000E+00 1.515342554E-02
 3.350000000E+00 -1.000000000E+00 1.408143546E-02
 3.400000000E+00 -1.000000000E+00 1.247728931E-02
 3.450000000E+00 -1.000000000E+00 9.889225413E-03
 3.500000000E+00 -9.500000000E-01 6.254477203E-03
 3.500000000E+00 -9.000000000E-01 7.717995032E-03
 3.500000000E+00 -8.500000000E-01 8.905128168E-03
 3.500000000E+00 -8.000000000E-01 1.028134182E-02
 3.500000000E+00 -7.500000000E-01 1.170038224E-02
 3.500000000E+00 -7.000000000E-01 1.312944784E-02
 3.500000000E+00 -6.500000000E-01 1.468692546E-02
 3.500000000E+00 -6.000000000E-01 1.631979928E-02
 3.500000000E+00 -5.500000000E-01 1.816420877E-02
 3.500000000E+00 -5.000000000E-01 2.008266464E-02
 3.500000000E+00 -4.500000000E-01 2.208159853E-02
 3.500000000E+00 -4.000000000E-01 2.430425335E-02
 3.500000000E+00 -3.500000000E-01 2.655949801E-02
 3.500000000E+00 -3.000000000E-01 2.871810977E-02
 3.500000000E+00 -2.500000000E-01 3.045049938E-02
 3.500000000E+00 -2.000000000E-01 3.149502828E-02
 3.500000000E+00 -1.500000000E-01 3.170340541E-02
 3.500000000E+00 -1.000000000E-01 3.124100487E-02
 3.500000000E+00 -5.000000000E-02 3.063140494E-02
 3.500000000E+00 -2.752242878E-12 3.007702715E-02
 3.500000000E+00 5.000000000E-02 2.939984534E-02
 3.500000000E+00 1.000000000E-01 2.840947047E-02
 3.500000000E+00 1.500000000E-01 2.702363765E-02
 3.500000000E+00 2.000000000E-01 2.437523326E-02
 3.500000000E+00 2.500000000E-01 2.136809256E-02
 3.500000000E+00 3.000000000E-01 1.843871265E-02
 3.500000000E+00 3.500000000E-01 1.555744839E-02
 3.500000000E+00 4.000000000E-01 1.290179710E-02
 3.500000000E+00 4.500000000E-01 1.042736854E-02
 3.500000000E+00 5.000000000E-01 8.168722449E-03
 3.500000000E+00 5.500000000E-01 6.220473605E-03
 3.500000000E+00 6.000000000E-01 4.903971516E-03
 3.500000000E+00 6.500000000E-01 4.275386791E-03
 3.500000000E+00 7.000000000E-01 3.986988099E-03
 3.500000000E+00 7.500000000E-01 3.340728174E-03
 3.500000000E+00 8.000000000E-01 9.566447678E-04
 3.500000000E+00 8.500000000E-01 -3.459612918E-03
 3.500000000E+00 9.000000000E-01 -1.007050554E-02
 3.500000000E+00 9.500000000E-01 -1.871472592E-02
 3.450000000E+00 1.000000000E+00 -1.064440194E-02
 3.400000000E+00 1.000000000E+00 -4.014782501E-03
 3.350000000E+00 1.000000000E+00 -8.280972255E-04
 3.300000000E+00 1.000000000E+00 6.337450518E-04
 3.250000000E+00 1.000000000E+00 1.611815163E-03
 3.200000000E+00 1.000000000E+00 1.945043133E-03
 3.150000000E+00 1.000000000E+00 2.179797262E-03
 3.100000000E+00 1.000000000E+00 2.016042329E-03
 3.050000000E+00 1.000000000E+00 1.756744557E-03
 3.000000000E+00 1.000000000E+00 1.556874175E-03
 2.950000000E+00 1.000000000E+00 1.081418377E-03
 2.900000000E+00 1.000000000E+00 7.048731254E-04
 2.850000000E+00 1.000000000E+00 5.455917998E-06
 2.800000000E+00 1.000000000E+00 -5.793774222E-04
 2.750000000E+00 1.000000000E+00 -1.451398548E-03
 2.700000000E+00 1.000000000E+00 -2.108133276E-03
 2.650000000E+00 1.000000000E+00 -2.966079678E-03
 2.600000000E+00 1.000000000E+00 -4.096864778E-03
 2.550000000E+00 1.000000000E+00 -4.612376945E-03
 2.500000000E+00 1.000000000E+00 -6.046228983E-03
 2.450000000E+00 1.000000000E+00 -6.870391178E-03
 2.400000000E+00 1.000000000E+00 -8.289779650E-03
 2.350000000E+00 1.000000000E+00 -9.330699672E-03
 2.300000000E+00 1.000000000E+00 -1.068107392E-02
 2.250000000E+00 1.000000000E+00 -1.219272164E-02
 2.200000000E+00 1.000000000E+00 -1.365881505E-02
 2.150000000E+00 1.000000000E+00 -1.511253233E-02
 2.100000000E+00 1.000000000E+00 -1.718809901E-02
 2.050000000E+00 1.000000000E+00 -1.866184623E-02
 2.000000000E+00 1.000000000E+00 -2.112180278E-02
 1.950000000E+00 1.000000000E+00 -2.319837373E-02
 1.900000000E+00 1.000000000E+00 -2.515015797E-02
 1.850000000E+00 1.000000000E+00 -2.794710397E-02
 1.800000000E+00 1.000000000E+00 -3.012517001E-02
 1.750000000E+00 1.000000000E+00 -3.354633190E-02
 1.700000000E+00 1.000000000E+00 -3.583175768E-02
 1.650000000E+00 1.000000000E+00 -3.951069393E-02
 1.600000000E+00 1.000000000E+00 -4.289370756E-02
 1.550000000E+00 1.000000000E+00 -4.664607531E-02
 1.500000000E+00 1.000000000E+00 -5.060848441E-02
 1.450000000E+00 1.000000000E+00 -5.496059359E-02
 1.400000000E+00 1.000000000E+00 -5.938250567E-02
 1.350000000E+00 1.000000000E+00 -6.408477225E-02
 1.300000000E+00 1.000000000E+00 -6.868524395E-02
 1.250000000E+00 1.000000000E+00 -7.417308851E-02
 1.200000000E+00 1.000000000E+00 -7.868438375E-02
 1.150000000E+00 1.000000000E+00 -8.421496929E-02
 1.100000000E+00 1.000000000E+00 -8.911311319E-02
 1.050000000E+00 1.000000000E+00 -9.401993955E-02
 1.000000000E+00 1.000000000E+00 -9.806167727E-02
 9.500000000E-01 1.000000000E+00 -1.026192900E-01
 9.000000000E-01 1.000000000E+00 -1.059702069E-01
 8.500000000E-01 1.000000000E+00 -1.089237838E-01
 8.000000000E-01 1.000000000E+00 -1.110556278E-01
 7.500000000E-01 1.000000000E+00 -1.122411184E-01
 7.000000000E-01 1.000000000E+00 -1.120295359E-01
 6.500000000E-01 1.000000000E+00 -1.111800934E-01
 6.000000000E-01 1.000000000E+00 -1.092452122E-01
 5.500000000E-01 1.000000000E+00 -1.057415377E-01
 5.000000000E-01 1.000000000E+00 -1.021591186E-01
 4.500000000E-01 1.000000000E+00 -9.677694140E-02
 4.000000000E-01 1.000000000E+00 -9.098853705E-02
 3.500000000E-01 1.000000000E+00 -8.381090975E-02
 3.000000000E-01 1.000000000E+00 -7.710551367E-02
 2.500000000E-01 1.000000000E+00 -6.894179779E-02
 2.000000000E-01 1.000000000E+00 -6.167030459E-02
 1.500000000E-01 1.000000000E+00 -5.362551679E-02
 1.000000000E-01 1.000000000E+00 -4.589817427E-02
 5.000000000E-02 1.000000000E+00 -3.844487190E-02
 1.733724275E-12 1.000000000E+00 -3.137850877E-02
 -5.000000000E-02 1.000000000E+00 -2.507285769E-02
 -1.000000000E-01 1.000000000E+00 -1.923583309E-02
 -1.500000000E-01 1.000000000E+00 -1.429849942E-02
 -2.000000000E-01 1.000000000E+00 -9.884579650E-03
 -2.500000000E-01 1.000000000E+00 -6.411417765E-03
 -3.000000000E-01 1.000000000E+00 -3.746769898E-03
 -3.500000000E-01 1.000000000E+00 -1.737772931E-03
 -4.000000000E-01 1.000000000E+00 -5.911632489E-04
 -4.500000000E-01 1.000000000E+00 4.819277406E-06
 9.141639541E-01 -4.939639526E-03 3.167740743E-01
 8.391105712E-01 -1.282687379E-02 2.466191176E-01
 7.659281091E-01 -2.140498135E-02 1.581239755E-01
 9.865205443E-01 -3.928124421E-03 3.557935910E-01
 6.942270209E-01 -3.108935192E-02 6.365592312E-02
 6.289378895E-01 -4.152515093E-02 -3.387161067E-02
 5.569119411E-01 -5.158920153E-02 -1.628158528E-01
 4.925526589E-01 -5.928410949E-02 -2.936863610E-01
 4.314918534E-01 -6.517092479E-02 -4.054136060E-01
 3.761092127E-01 -6.758509557E-02 -4.504939611E-01