TITLE     = "Visualization of the solution"
VARIABLES = "x"
"y"
"Pressure_Coefficient"
ZONE T="Zone"
 STRANDID=0, SOLUTIONTIME=0
 Nodes=11973, Elements=23366, ZONETYPE=FEQuadrilateral
 DATAPACKING=POINT
 DT=(DOUBLE DOUBLE DOUBLE )
 1.000288486E+00 5.229074741E-04 2.500532774E-01
 9.859328270E-01 3.289654618E-03 1.662106600E-01
 9.736183286E-01 5.730101373E-03 1.017621342E-01
 9.587419629E-01 8.616530336E-03 5.502133868E-02
 9.451578856E-01 1.124978904E-02 7.076425390E-03
 9.325367808E-01 1.359818410E-02 -9.253386586E-03
 9.216469526E-01 1.568595320E-02 -4.639803539E-02
 9.099934697E-01 1.788567007E-02 -8.871451277E-02
 8.985605836E-01 1.991799846E-02 -1.020851745E-01
 8.866575360E-01 2.201252989E-02 -1.279627716E-01
 8.744591475E-01 2.408744209E-02 -1.466074014E-01
 8.625690341E-01 2.606071159E-02 -1.645726105E-01
 8.504169583E-01 2.803109773E-02 -1.882550673E-01
 8.388893604E-01 2.980941720E-02 -1.938347656E-01
 8.272287846E-01 3.158905730E-02 -2.101562068E-01
 8.143644333E-01 3.348674625E-02 -2.193529786E-01
 8.014032245E-01 3.537774086E-02 -2.396032045E-01
 7.892737985E-01 3.707175702E-02 -2.455941223E-01
 7.768224478E-01 3.879432753E-02 -2.589141276E-01
 7.651525140E-01 4.038090259E-02 -2.734071409E-01
 7.522639036E-01 4.209040478E-02 -2.879363464E-01
 7.384489179E-01 4.387081787E-02 -3.034530746E-01
 7.274313569E-01 4.524863139E-02 -3.113660035E-01
 7.162097096E-01 4.664288834E-02 -3.290179015E-01
 7.043879032E-01 4.806480557E-02 -3.459030675E-01
 6.906334758E-01 4.963296279E-02 -3.532519500E-01
 6.774887443E-01 5.110463873E-02 -3.707398114E-01
 6.667734981E-01 5.226277933E-02 -3.856480149E-01
 6.549175382E-01 5.348404124E-02 -3.944462297E-01
 6.435573697E-01 5.462247878E-02 -4.114196752E-01
 6.314232945E-01 5.576212704E-02 -4.183989788E-01
 6.198537350E-01 5.681491643E-02 -4.349418620E-01
 6.089611650E-01 5.774404481E-02 -4.435287316E-01
 5.966325402E-01 5.873819813E-02 -4.568724756E-01
 5.845661759E-01 5.963430926E-02 -4.634114523E-01
 5.707977414E-01 6.058470532E-02 -4.759429107E-01
 5.576060414E-01 6.140300259E-02 -4.835154724E-01
 5.445292592E-01 6.212953851E-02 -4.898538395E-01
 5.330824852E-01 6.270003319E-02 -4.944342765E-01
 5.209993124E-01 6.323501468E-02 -4.984683311E-01
 5.081611872E-01 6.372980028E-02 -5.064370559E-01
 4.970787764E-01 6.407725811E-02 -5.016321085E-01
 4.838629365E-01 6.444258243E-02 -5.111265214E-01
 4.706410170E-01 6.469614804E-02 -5.073481475E-01
 4.563858807E-01 6.488774717E-02 -5.073678386E-01
 4.424270093E-01 6.498729438E-02 -5.100127741E-01
 4.291437268E-01 6.498032808E-02 -5.031021329E-01
 4.159480035E-01 6.490934640E-02 -5.046435501E-01
 4.032269716E-01 6.474725157E-02 -4.947017270E-01
 3.903497756E-01 6.453757733E-02 -4.975754122E-01
 3.780980706E-01 6.425153464E-02 -4.904149790E-01
 3.667048216E-01 6.394051015E-02 -4.894662801E-01
 3.532415628E-01 6.348294765E-02 -4.818062316E-01
 3.410036564E-01 6.300947070E-02 -4.792984223E-01
 3.282458186E-01 6.243529916E-02 -4.712175527E-01
 3.178841472E-01 6.193046644E-02 -4.693474410E-01
 3.057080209E-01 6.126721948E-02 -4.618593122E-01
 2.928170860E-01 6.050303206E-02 -4.585515323E-01
 2.789906263E-01 5.958710983E-02 -4.501466756E-01
 2.667718232E-01 5.871143937E-02 -4.430847673E-01
 2.548623085E-01 5.779896304E-02 -4.384646252E-01
 2.424596399E-01 5.677557364E-02 -4.337319324E-01
 2.296952307E-01 5.562973395E-02 -4.216903717E-01
 2.177544981E-01 5.450632423E-02 -4.190369281E-01
 2.059063017E-01 5.330679566E-02 -4.121395066E-01
 1.944924742E-01 5.207104608E-02 -3.991926041E-01
 1.821929812E-01 5.068076029E-02 -3.953041951E-01
 1.703811735E-01 4.925310239E-02 -3.874540898E-01
 1.588037908E-01 4.776700586E-02 -3.765090905E-01
 1.470665783E-01 4.617919773E-02 -3.692048549E-01
 1.364731342E-01 4.466510192E-02 -3.617747255E-01
 1.252953559E-01 4.297193885E-02 -3.522187453E-01
 1.140781417E-01 4.116743803E-02 -3.425748987E-01
 1.036355346E-01 3.938340768E-02 -3.313151873E-01
 9.410676360E-02 3.766983747E-02 -3.228089043E-01
 8.335221559E-02 3.560717776E-02 -3.108026124E-01
 7.199522108E-02 3.326552361E-02 -3.016470129E-01
 6.229006127E-02 3.109616973E-02 -2.832317098E-01
 5.285911635E-02 2.883169614E-02 -2.729436654E-01
 4.393012449E-02 2.648408338E-02 -2.532132942E-01
 3.623289242E-02 2.426548861E-02 -2.370724205E-01
 2.952211536E-02 2.215220965E-02 -2.206858898E-01
 2.381085046E-02 2.016637288E-02 -2.031113160E-01
 1.962191053E-02 1.856245846E-02 -1.798291531E-01
 1.570797898E-02 1.692405902E-02 -1.600884691E-01
 1.284840517E-02 1.559888199E-02 -1.259819894E-01
 1.032811310E-02 1.432938036E-02 -1.041632470E-01
 8.454820141E-03 1.329919696E-02 -7.245387425E-02
 6.745133549E-03 1.226807665E-02 -4.735331424E-02
 5.169435404E-03 1.122613065E-02 2.342437940E-02
 3.153422615E-03 9.704305790E-03 1.141180709E-01
 1.459046965E-03 8.166827261E-03 2.072060896E-01
 1.898628216E-05 6.525203120E-03 4.466510460E-01
 -1.332162647E-03 4.329713061E-03 7.052934339E-01
 -1.953542465E-03 2.605828457E-03 8.814646263E-01
 -2.188355429E-03 1.206794637E-03 1.042358933E+00
 -2.168436768E-03 -5.137409316E-04 1.113422671E+00
 -1.759818406E-03 -2.479300136E-03 1.094728207E+00
 -8.050021133E-04 -4.753078800E-03 1.006871602E+00
 7.398110465E-04 -7.183271460E-03 8.194140869E-01
 2.910961397E-03 -9.727904573E-03 6.678435646E-01
 4.872704856E-03 -1.160892658E-02 5.214968324E-01
 7.140443660E-03 -1.350253262E-02 4.377780209E-01
 8.849889040E-03 -1.478158310E-02 3.460961935E-01
 1.094568707E-02 -1.622767374E-02 2.877552732E-01
 1.344310865E-02 -1.780069433E-02 2.165369302E-01
 1.671758480E-02 -1.968247816E-02 1.471409108E-01
 1.988077722E-02 -2.134095132E-02 7.931911172E-02
 2.399365790E-02 -2.331364341E-02 2.634897856E-02
 2.946606651E-02 -2.567919903E-02 -2.854186065E-02
 3.518572822E-02 -2.792271972E-02 -8.348531744E-02
 4.230206460E-02 -3.043421917E-02 -1.218539893E-01
 4.980559647E-02 -3.283515945E-02 -1.610751251E-01
 5.844758078E-02 -3.535455093E-02 -1.904295531E-01
 6.705985963E-02 -3.764918819E-02 -2.213823154E-01
 7.737013698E-02 -4.015481472E-02 -2.387871110E-01
 8.713549376E-02 -4.234457389E-02 -2.575040301E-01
 9.762886912E-02 -4.452234879E-02 -2.769446609E-01
 1.086370647E-01 -4.663836211E-02 -2.914419377E-01
 1.201674864E-01 -4.870336503E-02 -3.068516601E-01
 1.316489577E-01 -5.061146617E-02 -3.183348301E-01
 1.419306546E-01 -5.222085491E-02 -3.334476427E-01
 1.528543085E-01 -5.382075906E-02 -3.431625846E-01
 1.646055877E-01 -5.543430522E-02 -3.545080199E-01
 1.761329770E-01 -5.691863596E-02 -3.672696878E-01
 1.876768768E-01 -5.831005052E-02 -3.804803426E-01
 1.980486214E-01 -5.947367102E-02 -3.911890999E-01
 2.090142816E-01 -6.062703952E-02 -4.035212700E-01
 2.210397869E-01 -6.177919358E-02 -4.078681809E-01
 2.331516296E-01 -6.286514550E-02 -4.233900552E-01
 2.451064885E-01 -6.384211779E-02 -4.369654688E-01
 2.574911416E-01 -6.474103779E-02 -4.456565914E-01
 2.685328126E-01 -6.546001881E-02 -4.576313348E-01
 2.811940312E-01 -6.618058681E-02 -4.686233518E-01
 2.933647037E-01 -6.675274670E-02 -4.752334070E-01
 3.062269688E-01 -6.724853814E-02 -4.850473373E-01
 3.178763092E-01 -6.757847965E-02 -4.867916401E-01
 3.305453658E-01 -6.784567237E-02 -4.990924596E-01
 3.411011994E-01 -6.795820594E-02 -5.041068452E-01
 3.524705470E-01 -6.796134263E-02 -4.988354243E-01
 3.635874987E-01 -6.788212806E-02 -5.049293791E-01
 3.743352890E-01 -6.768237799E-02 -4.961919535E-01
 3.860764503E-01 -6.737487763E-02 -4.973832525E-01
 3.989093006E-01 -6.688104570E-02 -4.838967058E-01
 4.110859334E-01 -6.629602611E-02 -4.782965283E-01
 4.240551293E-01 -6.550973654E-02 -4.576318831E-01
 4.368385673E-01 -6.461797655E-02 -4.470524378E-01
 4.498196542E-01 -6.353886425E-02 -4.165029092E-01
 4.622704983E-01 -6.240180507E-02 -3.961231923E-01
 4.749436975E-01 -6.114465371E-02 -3.771941210E-01
 4.868932366E-01 -5.983127654E-02 -3.476266624E-01
 4.993922710E-01 -5.836853012E-02 -3.195778190E-01
 5.130196214E-01 -5.667528883E-02 -2.874446961E-01
 5.267093778E-01 -5.490083992E-02 -2.619089386E-01
 5.396687388E-01 -5.313568562E-02 -2.321076541E-01
 5.532265902E-01 -5.122489110E-02 -2.036589554E-01
 5.662788749E-01 -4.932495207E-02 -1.751441635E-01
 5.795685649E-01 -4.735124111E-02 -1.477459048E-01
 5.926294923E-01 -4.538256302E-02 -1.239038808E-01
 6.052054167E-01 -4.344762489E-02 -9.695673867E-02
 6.186414957E-01 -4.138687626E-02 -7.801769887E-02
 6.324623823E-01 -3.921093047E-02 -4.700496247E-02
 6.462188363E-01 -3.708014637E-02 -3.168849894E-02
 6.593257785E-01 -3.500083089E-02 -2.454416257E-03
 6.731385589E-01 -3.285666928E-02 1.152693595E-02
 6.856235862E-01 -3.090379946E-02 3.090272972E-02
 6.978954077E-01 -2.896159515E-02 5.518646106E-02
 7.128099203E-01 -2.665122971E-02 7.276647600E-02
 7.256074548E-01 -2.465097234E-02 9.878248525E-02
 7.376244664E-01 -2.287133038E-02 1.000976837E-01
 7.501426935E-01 -2.092427015E-02 1.344297017E-01
 7.633131146E-01 -1.897763647E-02 1.463675586E-01
 7.766430974E-01 -1.705298014E-02 1.600294155E-01
 7.887298465E-01 -1.530993916E-02 1.784625931E-01
 8.012680411E-01 -1.350236125E-02 2.050582239E-01
 8.124868870E-01 -1.198609453E-02 2.138492632E-01
 8.235933781E-01 -1.049971674E-02 2.341285827E-01
 8.360534906E-01 -8.938181214E-03 2.424269242E-01
 8.479151726E-01 -7.444168441E-03 2.700990358E-01
 8.601374626E-01 -6.058966275E-03 2.779051587E-01
 8.711140156E-01 -4.854425322E-03 2.989407558E-01
 8.827309608E-01 -3.717803862E-03 3.091391819E-01
 8.954456449E-01 -2.597648418E-03 3.213559408E-01
 9.055324793E-01 -1.825696090E-03 3.292692649E-01
 9.157845974E-01 -1.136925886E-03 3.357169248E-01
 9.252791405E-01 -5.925755831E-04 3.409776271E-01
 9.347662926E-01 -1.546964922E-04 3.471093661E-01
 9.472844005E-01 2.756867034E-04 3.466256770E-01
 9.612012506E-01 5.819567014E-04 3.505618040E-01
 9.765061736E-01 7.063398953E-04 3.587646432E-01
 9.898377657E-01 6.451922236E-04 3.863682166E-01
 -5.000000000E-01 -1.000000000E+00 1.223493064E-02
 3.500000000E+00 -1.000000000E+00 7.012113702E-03
 3.500000000E+00 1.000000000E+00 -1.915104651E-02
 -5.000000000E-01 1.000000000E+00 7.917963023E-04
 9.931106567E-01 1.906281046E-03 2.572757130E-01
 9.797755778E-01 4.509877996E-03 1.307236859E-01
 9.661801457E-01 7.173315855E-03 7.764959139E-02
 9.519499242E-01 9.933159687E-03 2.786317558E-02
 9.388473332E-01 1.242398657E-02 2.129563935E-03
 9.270918667E-01 1.464206865E-02 -2.972706870E-02
 9.158202112E-01 1.678581163E-02 -7.203053248E-02
 9.042770267E-01 1.890183426E-02 -9.325145485E-02
 8.926090598E-01 2.096526418E-02 -1.156880620E-01
 8.805583417E-01 2.304998599E-02 -1.368720615E-01
 8.685140908E-01 2.507407684E-02 -1.554462306E-01
 8.564929962E-01 2.704590466E-02 -1.782579557E-01
 8.446531594E-01 2.892025746E-02 -1.890761979E-01
 8.330590725E-01 3.069923725E-02 -2.032567069E-01
 8.207966089E-01 3.253790177E-02 -2.134923323E-01
 8.078838289E-01 3.443224356E-02 -2.312916092E-01
 7.953385115E-01 3.622474894E-02 -2.410889173E-01
 7.830481231E-01 3.793304227E-02 -2.518144569E-01
 7.709874809E-01 3.958761506E-02 -2.667838114E-01
 7.587082088E-01 4.123565368E-02 -2.811629817E-01
 7.453564107E-01 4.298061132E-02 -2.953813028E-01
 7.329401374E-01 4.455972463E-02 -3.058280980E-01
 7.218205333E-01 4.594575986E-02 -3.210941864E-01
 7.102988064E-01 4.735384695E-02 -3.399061086E-01
 6.975106895E-01 4.884888418E-02 -3.477783122E-01
 6.840611100E-01 5.036880076E-02 -3.615452650E-01
 6.721311212E-01 5.168370903E-02 -3.795501499E-01
 6.608455181E-01 5.287341028E-02 -3.887556905E-01
 6.492374539E-01 5.405326001E-02 -4.048697923E-01
 6.374903321E-01 5.519230291E-02 -4.135360631E-01
 6.256385148E-01 5.628852174E-02 -4.273662812E-01
 6.144074500E-01 5.727948062E-02 -4.397110717E-01
 6.027968526E-01 5.824112147E-02 -4.508220809E-01
 5.905993581E-01 5.918625370E-02 -4.606655788E-01
 5.776819587E-01 6.010950729E-02 -4.700268045E-01
 5.642018914E-01 6.099385396E-02 -4.799279507E-01
 5.510676503E-01 6.176627055E-02 -4.857338189E-01
 5.388058722E-01 6.241478585E-02 -4.924269702E-01
 5.270408988E-01 6.296752393E-02 -4.969712636E-01
 5.145802498E-01 6.348240748E-02 -5.024493944E-01
 5.026199818E-01 6.390352920E-02 -5.031220252E-01
 4.904708564E-01 6.425992027E-02 -5.084885087E-01
 4.772519767E-01 6.456936523E-02 -5.092047151E-01
 4.635134488E-01 6.479194760E-02 -5.070594836E-01
 4.494064450E-01 6.493752077E-02 -5.093513244E-01
 4.357853681E-01 6.498381123E-02 -5.054525161E-01
 4.225458652E-01 6.494483724E-02 -5.048417337E-01
 4.095874876E-01 6.482829899E-02 -4.979932380E-01
 3.967883736E-01 6.464241445E-02 -4.972909752E-01
 3.842239231E-01 6.439455599E-02 -4.921724987E-01
 3.724014461E-01 6.409602240E-02 -4.923369867E-01
 3.599731922E-01 6.371172890E-02 -4.841990792E-01
 3.471226096E-01 6.324620917E-02 -4.817542135E-01
 3.346247375E-01 6.272238493E-02 -4.728387468E-01
 3.230649829E-01 6.218288280E-02 -4.723655810E-01
 3.117960840E-01 6.159884296E-02 -4.656081215E-01
 2.992625535E-01 6.088512577E-02 -4.619175554E-01
 2.859038562E-01 6.004507095E-02 -4.530798426E-01
 2.728812248E-01 5.914927460E-02 -4.459713911E-01
 2.608170658E-01 5.825520121E-02 -4.413948320E-01
 2.486609742E-01 5.728726834E-02 -4.376170459E-01
 2.360774353E-01 5.620265380E-02 -4.257375984E-01
 2.237248644E-01 5.506802909E-02 -4.213969876E-01
 2.118303999E-01 5.390655994E-02 -4.158218555E-01
 2.001993880E-01 5.268892087E-02 -4.048460841E-01
 1.883427277E-01 5.137590319E-02 -3.980133213E-01
 1.762870774E-01 4.996693134E-02 -3.915110797E-01
 1.645924821E-01 4.851005413E-02 -3.817576077E-01
 1.529351845E-01 4.697310179E-02 -3.722143089E-01
 1.417698562E-01 4.542214982E-02 -3.665975304E-01
 1.308842450E-01 4.381852038E-02 -3.575763524E-01
 1.196867488E-01 4.206968844E-02 -3.472226007E-01
 1.088568382E-01 4.027542286E-02 -3.366837622E-01
 8.872948959E-02 3.663850762E-02 -3.197715355E-01
 7.767371833E-02 3.443635069E-02 -3.086419636E-01
 7.221499830E-02 -3.890200146E-02 -2.347486750E-01
 9.238218144E-02 -4.343346134E-02 -2.726934216E-01
 1.031329669E-01 -4.558035545E-02 -2.844691510E-01
 1.144022755E-01 -4.767086357E-02 -2.990410720E-01
 1.259082220E-01 -4.965741560E-02 -3.140475062E-01
 1.367898062E-01 -5.141616054E-02 -3.272073395E-01
 1.473924816E-01 -5.302080698E-02 -3.380164876E-01
 1.587299481E-01 -5.462753214E-02 -3.484459137E-01
 1.703692824E-01 -5.617647059E-02 -3.610749160E-01
 1.819049269E-01 -5.761434324E-02 -3.739545742E-01
 1.928627491E-01 -5.889186077E-02 -3.875226675E-01
 2.035314515E-01 -6.005035527E-02 -3.962578065E-01
 2.150270343E-01 -6.120311655E-02 -4.062614797E-01
 2.270957083E-01 -6.232216954E-02 -4.142717218E-01
 2.391290590E-01 -6.335363165E-02 -4.300888197E-01
 2.512988150E-01 -6.429157779E-02 -4.415750650E-01
 2.630119771E-01 -6.510052830E-02 -4.520209750E-01
 2.748634219E-01 -6.582030281E-02 -4.611843018E-01
 2.872793674E-01 -6.646666676E-02 -4.733779052E-01
 2.997958362E-01 -6.700064242E-02 -4.784920685E-01
 3.120516390E-01 -6.741350889E-02 -4.881945764E-01
 3.242108375E-01 -6.771207601E-02 -4.901760939E-01
 3.358232826E-01 -6.790193915E-02 -5.047712411E-01
 3.467858732E-01 -6.795977429E-02 -5.013532433E-01
 3.580290228E-01 -6.792173535E-02 -5.004562049E-01
 3.689613938E-01 -6.778225303E-02 -5.030405981E-01
 3.802058697E-01 -6.752862781E-02 -4.942921342E-01
 3.924928755E-01 -6.712796167E-02 -4.911446876E-01
 4.049976170E-01 -6.658853590E-02 -4.809076289E-01
 4.175705314E-01 -6.590288132E-02 -4.690525757E-01
 4.304468483E-01 -6.506385654E-02 -4.514143700E-01
 4.433291107E-01 -6.407842040E-02 -4.344034336E-01
 4.560450763E-01 -6.297033466E-02 -4.061084732E-01
 4.686070979E-01 -6.177322939E-02 -3.855457140E-01
 4.809184670E-01 -6.048796512E-02 -3.650817779E-01
 4.931427538E-01 -5.909990333E-02 -3.334849263E-01
 5.062059462E-01 -5.752190948E-02 -3.037549117E-01
 5.198644996E-01 -5.578806438E-02 -2.742762568E-01
 5.331890583E-01 -5.401826277E-02 -2.484570757E-01
 5.464476645E-01 -5.218028836E-02 -2.180178262E-01
 5.597527325E-01 -5.027492158E-02 -1.901963096E-01
 5.729237199E-01 -4.833809659E-02 -1.613514762E-01
 5.860990286E-01 -4.636690207E-02 -1.355528140E-01
 5.989174545E-01 -4.441509396E-02 -1.113490360E-01
 6.119234562E-01 -4.241725057E-02 -8.646654229E-02
 6.255519390E-01 -4.029890336E-02 -6.464143383E-02
 6.393406093E-01 -3.814553842E-02 -3.742751862E-02
 6.527723074E-01 -3.604048863E-02 -1.937264909E-02
 6.662321687E-01 -3.392875008E-02 6.223130295E-03
 6.793810725E-01 -3.188023437E-02 2.096731020E-02
 6.917594969E-01 -2.993269730E-02 4.121342224E-02
 7.053526640E-01 -2.780641243E-02 6.427169439E-02
 7.192086875E-01 -2.565110102E-02 8.436914828E-02
 7.316159606E-01 -2.376115136E-02 1.040933752E-01
 7.438835800E-01 -2.189780027E-02 1.126201171E-01
 7.567279041E-01 -1.995095331E-02 1.420121518E-01
 7.699781060E-01 -1.801530831E-02 1.543836642E-01
 7.826864719E-01 -1.618145965E-02 1.686435604E-01
 7.949989438E-01 -1.440615021E-02 1.895122760E-01
 8.068774641E-01 -1.274422789E-02 2.122932342E-01
 8.180401325E-01 -1.124290563E-02 2.225613468E-01
 8.298234344E-01 -9.718948975E-03 2.392708535E-01
 8.419843316E-01 -8.191174828E-03 2.529277811E-01
 8.540263176E-01 -6.751567358E-03 2.757491468E-01
 8.656257391E-01 -5.456695799E-03 2.870160896E-01
 8.769224882E-01 -4.286114592E-03 3.043869370E-01
 8.890883029E-01 -3.157726140E-03 3.141974735E-01
 9.004890621E-01 -2.211672254E-03 3.279048985E-01
 9.106585383E-01 -1.481310988E-03 3.324851333E-01
 9.410253465E-01 6.049510557E-05 3.448990453E-01
 9.542428255E-01 4.288217024E-04 3.469802957E-01
 9.688537121E-01 6.441482983E-04 3.520429550E-01
 9.831719697E-01 6.757660594E-04 3.672467746E-01
 9.950631261E-01 5.840498488E-04 4.354873779E-01
 -5.000000000E-01 9.500000000E-01 1.246626014E-03
 -5.000000000E-01 9.000000000E-01 2.107184115E-03
 -5.000000000E-01 8.500000000E-01 3.485408005E-03
 -5.000000000E-01 8.000000000E-01 5.338018840E-03
 -5.000000000E-01 7.500000000E-01 7.974528078E-03
 -5.000000000E-01 7.000000000E-01 1.128331515E-02
 -5.000000000E-01 6.500000000E-01 1.543414383E-02
 -5.000000000E-01 6.000000000E-01 2.034918912E-02
 -5.000000000E-01 5.500000000E-01 2.621662950E-02
 -5.000000000E-01 5.000000000E-01 3.279415751E-02
 -5.000000000E-01 4.500000000E-01 4.035332694E-02
 -5.000000000E-01 4.000000000E-01 4.836794074E-02
 -5.000000000E-01 3.500000000E-01 5.718710822E-02
 -5.000000000E-01 3.000000000E-01 6.597951687E-02
 -5.000000000E-01 2.500000000E-01 7.519461879E-02
 -5.000000000E-01 2.000000000E-01 8.350297146E-02
 -5.000000000E-01 1.500000000E-01 9.157954820E-02
 -5.000000000E-01 1.000000000E-01 9.815820088E-02
 -5.000000000E-01 5.000000000E-02 1.031257001E-01
 -5.000000000E-01 2.752242878E-12 1.063193282E-01
 -5.000000000E-01 -5.000000000E-02 1.072469729E-01
 -5.000000000E-01 -1.000000000E-01 1.063344427E-01
 -5.000000000E-01 -1.500000000E-01 1.034684837E-01
 -5.000000000E-01 -2.000000000E-01 9.910122580E-02
 -5.000000000E-01 -2.500000000E-01 9.348967334E-02
 -5.000000000E-01 -3.000000000E-01 8.717637446E-02
 -5.000000000E-01 -3.500000000E-01 8.041722349E-02
 -5.000000000E-01 -4.000000000E-01 7.349266559E-02
 -5.000000000E-01 -4.500000000E-01 6.675852909E-02
 -5.000000000E-01 -5.000000000E-01 6.026515633E-02
 -5.000000000E-01 -5.500000000E-01 5.420902725E-02
 -5.000000000E-01 -6.000000000E-01 4.866380794E-02
 -5.000000000E-01 -6.500000000E-01 4.355454337E-02
 -5.000000000E-01 -7.000000000E-01 3.889184955E-02
 -5.000000000E-01 -7.500000000E-01 3.460968856E-02
 -5.000000000E-01 -8.000000000E-01 3.064692767E-02
 -5.000000000E-01 -8.500000000E-01 2.678320351E-02
 -5.000000000E-01 -9.000000000E-01 2.271384174E-02
 -5.000000000E-01 -9.500000000E-01 1.681936038E-02
 -4.500000000E-01 -1.000000000E+00 1.529651152E-02
 -4.000000000E-01 -1.000000000E+00 1.973969291E-02
 -3.500000000E-01 -1.000000000E+00 2.160283198E-02
 -3.000000000E-01 -1.000000000E+00 2.225223213E-02
 -2.500000000E-01 -1.000000000E+00 2.208893296E-02
 -2.000000000E-01 -1.000000000E+00 2.104822199E-02
 -1.500000000E-01 -1.000000000E+00 1.922375988E-02
 -1.000000000E-01 -1.000000000E+00 1.672129850E-02
 -5.000000000E-02 -1.000000000E+00 1.360446260E-02
 -9.424683256E-13 -1.000000000E+00 9.978289347E-03
 5.000000000E-02 -1.000000000E+00 5.912159065E-03
 1.000000000E-01 -1.000000000E+00 1.717408065E-03
 1.500000000E-01 -1.000000000E+00 -2.592671505E-03
 2.000000000E-01 -1.000000000E+00 -6.744252589E-03
 2.500000000E-01 -1.000000000E+00 -1.068676236E-02
 3.000000000E-01 -1.000000000E+00 -1.408900415E-02
 3.500000000E-01 -1.000000000E+00 -1.686820547E-02
 4.000000000E-01 -1.000000000E+00 -1.895737167E-02
 4.500000000E-01 -1.000000000E+00 -2.021817277E-02
 5.000000000E-01 -1.000000000E+00 -2.058695332E-02
 5.500000000E-01 -1.000000000E+00 -2.009524501E-02
 6.000000000E-01 -1.000000000E+00 -1.872820656E-02
 6.500000000E-01 -1.000000000E+00 -1.655030222E-02
 7.000000000E-01 -1.000000000E+00 -1.375580165E-02
 7.500000000E-01 -1.000000000E+00 -1.043064784E-02
 8.000000000E-01 -1.000000000E+00 -6.691410768E-03
 8.500000000E-01 -1.000000000E+00 -2.820373910E-03
 9.000000000E-01 -1.000000000E+00 1.141929657E-03
 9.500000000E-01 -1.000000000E+00 5.087830285E-03
 1.000000000E+00 -1.000000000E+00 8.895827671E-03
 1.050000000E+00 -1.000000000E+00 1.237853994E-02
 1.100000000E+00 -1.000000000E+00 1.550945229E-02
 1.150000000E+00 -1.000000000E+00 1.844904394E-02
 1.200000000E+00 -1.000000000E+00 2.085120241E-02
 1.250000000E+00 -1.000000000E+00 2.296264807E-02
 1.300000000E+00 -1.000000000E+00 2.474241865E-02
 1.350000000E+00 -1.000000000E+00 2.606870853E-02
 1.400000000E+00 -1.000000000E+00 2.713892313E-02
 1.450000000E+00 -1.000000000E+00 2.788953273E-02
 1.500000000E+00 -1.000000000E+00 2.838948292E-02
 1.550000000E+00 -1.000000000E+00 2.865351672E-02
 1.600000000E+00 -1.000000000E+00 2.873346106E-02
 1.650000000E+00 -1.000000000E+00 2.865384045E-02
 1.700000000E+00 -1.000000000E+00 2.843467283E-02
 1.750000000E+00 -1.000000000E+00 2.813208126E-02
 1.800000000E+00 -1.000000000E+00 2.773689854E-02
 1.850000000E+00 -1.000000000E+00 2.727024305E-02
 1.900000000E+00 -1.000000000E+00 2.678005285E-02
 1.950000000E+00 -1.000000000E+00 2.624134234E-02
 2.000000000E+00 -1.000000000E+00 2.568997921E-02
 2.050000000E+00 -1.000000000E+00 2.513870816E-02
 2.100000000E+00 -1.000000000E+00 2.457850602E-02
 2.150000000E+00 -1.000000000E+00 2.406115357E-02
 2.200000000E+00 -1.000000000E+00 2.349172400E-02
 2.250000000E+00 -1.000000000E+00 2.298545552E-02
 2.300000000E+00 -1.000000000E+00 2.249449844E-02
 2.350000000E+00 -1.000000000E+00 2.204171764E-02
 2.400000000E+00 -1.000000000E+00 2.167202495E-02
 2.450000000E+00 -1.000000000E+00 2.124927167E-02
 2.500000000E+00 -1.000000000E+00 2.087041482E-02
 2.550000000E+00 -1.000000000E+00 2.057535309E-02
 2.600000000E+00 -1.000000000E+00 2.021545032E-02
 2.650000000E+00 -1.000000000E+00 1.994392322E-02
 2.700000000E+00 -1.000000000E+00 1.964514252E-02
 2.750000000E+00 -1.000000000E+00 1.941622011E-02
 2.800000000E+00 -1.000000000E+00 1.919517091E-02
 2.850000000E+00 -1.000000000E+00 1.902632778E-02
 2.900000000E+00 -1.000000000E+00 1.881754185E-02
 2.950000000E+00 -1.000000000E+00 1.861321428E-02
 3.000000000E+00 -1.000000000E+00 1.838429373E-02
 3.050000000E+00 -1.000000000E+00 1.818161335E-02
 3.100000000E+00 -1.000000000E+00 1.784020762E-02
 3.150000000E+00 -1.000000000E+00 1.754706866E-02
 3.200000000E+00 -1.000000000E+00 1.703025230E-02
 3.250000000E+00 -1.000000000E+00 1.645701008E-02
 3.300000000E+00 -1.000000000E+00 1.567081824E-02
 3.350000000E+00 -1.000000000E+00 1.458107550E-02
 3.400000000E+00 -1.000000000E+00 1.286387728E-02
 3.450000000E+00 -1.000000000E+00 1.009248578E-02
 3.500000000E+00 -9.500000000E-01 6.217106103E-03
 3.500000000E+00 -9.000000000E-01 7.828495186E-03
 3.500000000E+00 -8.500000000E-01 9.134853577E-03
 3.500000000E+00 -8.000000000E-01 1.062921133E-02
 3.500000000E+00 -7.500000000E-01 1.210607082E-02
 3.500000000E+00 -7.000000000E-01 1.357272186E-02
 3.500000000E+00 -6.500000000E-01 1.520740289E-02
 3.500000000E+00 -6.000000000E-01 1.695490314E-02
 3.500000000E+00 -5.500000000E-01 1.888432066E-02
 3.500000000E+00 -5.000000000E-01 2.093838374E-02
 3.500000000E+00 -4.500000000E-01 2.322553231E-02
 3.500000000E+00 -4.000000000E-01 2.558497587E-02
 3.500000000E+00 -3.500000000E-01 2.808260486E-02
 3.500000000E+00 -3.000000000E-01 3.034956972E-02
 3.500000000E+00 -2.500000000E-01 3.220174037E-02
 3.500000000E+00 -2.000000000E-01 3.345379488E-02
 3.500000000E+00 -1.500000000E-01 3.376780524E-02
 3.500000000E+00 -1.000000000E-01 3.346312676E-02
 3.500000000E+00 -5.000000000E-02 3.282305571E-02
 3.500000000E+00 -2.752242878E-12 3.234943967E-02
 3.500000000E+00 5.000000000E-02 3.165338728E-02
 3.500000000E+00 1.000000000E-01 3.051373708E-02
 3.500000000E+00 1.500000000E-01 2.876818277E-02
 3.500000000E+00 2.000000000E-01 2.620031020E-02
 3.500000000E+00 2.500000000E-01 2.323023976E-02
 3.500000000E+00 3.000000000E-01 2.003813464E-02
 3.500000000E+00 3.500000000E-01 1.708286943E-02
 3.500000000E+00 4.000000000E-01 1.421595634E-02
 3.500000000E+00 4.500000000E-01 1.157881684E-02
 3.500000000E+00 5.000000000E-01 9.186421835E-03
 3.500000000E+00 5.500000000E-01 7.132934392E-03
 3.500000000E+00 6.000000000E-01 5.668395621E-03
 3.500000000E+00 6.500000000E-01 4.956329178E-03
 3.500000000E+00 7.000000000E-01 4.682438277E-03
 3.500000000E+00 7.500000000E-01 3.991574860E-03
 3.500000000E+00 8.000000000E-01 1.744302694E-03
 3.500000000E+00 8.500000000E-01 -3.144278155E-03
 3.500000000E+00 9.000000000E-01 -1.011960188E-02
 3.500000000E+00 9.500000000E-01 -1.898320271E-02
 3.450000000E+00 1.000000000E+00 -1.087414216E-02
 3.400000000E+00 1.000000000E+00 -3.739973974E-03
 3.350000000E+00 1.000000000E+00 -3.357577495E-04
 3.300000000E+00 1.000000000E+00 1.180047130E-03
 3.250000000E+00 1.000000000E+00 2.265844074E-03
 3.200000000E+00 1.000000000E+00 2.586866674E-03
 3.150000000E+00 1.000000000E+00 3.077065076E-03
 3.100000000E+00 1.000000000E+00 2.726098353E-03
 3.050000000E+00 1.000000000E+00 2.717838302E-03
 3.000000000E+00 1.000000000E+00 2.303762507E-03
 2.950000000E+00 1.000000000E+00 1.874622540E-03
 2.900000000E+00 1.000000000E+00 1.389427988E-03
 2.850000000E+00 1.000000000E+00 8.252597400E-04
 2.800000000E+00 1.000000000E+00 1.589863912E-04
 2.750000000E+00 1.000000000E+00 -6.015649512E-04
 2.700000000E+00 1.000000000E+00 -1.372526531E-03
 2.650000000E+00 1.000000000E+00 -2.351546878E-03
 2.600000000E+00 1.000000000E+00 -3.164317440E-03
 2.550000000E+00 1.000000000E+00 -4.216844603E-03
 2.500000000E+00 1.000000000E+00 -5.210646518E-03
 2.450000000E+00 1.000000000E+00 -6.242957055E-03
 2.400000000E+00 1.000000000E+00 -7.630045743E-03
 2.350000000E+00 1.000000000E+00 -8.675150765E-03
 2.300000000E+00 1.000000000E+00 -1.016926014E-02
 2.250000000E+00 1.000000000E+00 -1.137540679E-02
 2.200000000E+00 1.000000000E+00 -1.315686250E-02
 2.150000000E+00 1.000000000E+00 -1.475501165E-02
 2.100000000E+00 1.000000000E+00 -1.647596832E-02
 2.050000000E+00 1.000000000E+00 -1.837337022E-02
 2.000000000E+00 1.000000000E+00 -2.032363810E-02
 1.950000000E+00 1.000000000E+00 -2.251249337E-02
 1.900000000E+00 1.000000000E+00 -2.494336431E-02
 1.850000000E+00 1.000000000E+00 -2.746481118E-02
 1.800000000E+00 1.000000000E+00 -3.000093771E-02
 1.750000000E+00 1.000000000E+00 -3.286427051E-02
 1.700000000E+00 1.000000000E+00 -3.587021576E-02
 1.650000000E+00 1.000000000E+00 -3.919689433E-02
 1.600000000E+00 1.000000000E+00 -4.287860238E-02
 1.550000000E+00 1.000000000E+00 -4.682542061E-02
 1.500000000E+00 1.000000000E+00 -5.081523137E-02
 1.450000000E+00 1.000000000E+00 -5.527958389E-02
 1.400000000E+00 1.000000000E+00 -5.986659852E-02
 1.350000000E+00 1.000000000E+00 -6.459707602E-02
 1.300000000E+00 1.000000000E+00 -6.988957717E-02
 1.250000000E+00 1.000000000E+00 -7.495013903E-02
 1.200000000E+00 1.000000000E+00 -8.049447044E-02
 1.150000000E+00 1.000000000E+00 -8.542042902E-02
 1.100000000E+00 1.000000000E+00 -9.117804317E-02
 1.050000000E+00 1.000000000E+00 -9.562600507E-02
 1.000000000E+00 1.000000000E+00 -1.001521987E-01
 9.500000000E-01 1.000000000E+00 -1.050180781E-01
 9.000000000E-01 1.000000000E+00 -1.077288886E-01
 8.500000000E-01 1.000000000E+00 -1.120159577E-01
 8.000000000E-01 1.000000000E+00 -1.130538337E-01
 7.500000000E-01 1.000000000E+00 -1.150930181E-01
 7.000000000E-01 1.000000000E+00 -1.150319993E-01
 6.500000000E-01 1.000000000E+00 -1.138638523E-01
 6.000000000E-01 1.000000000E+00 -1.116039096E-01
 5.500000000E-01 1.000000000E+00 -1.089077541E-01
 5.000000000E-01 1.000000000E+00 -1.038968507E-01
 4.500000000E-01 1.000000000E+00 -9.914006877E-02
 4.000000000E-01 1.000000000E+00 -9.224598671E-02
 3.500000000E-01 1.000000000E+00 -8.558890531E-02
 3.000000000E-01 1.000000000E+00 -7.819978767E-02
 2.500000000E-01 1.000000000E+00 -7.035442393E-02
 2.000000000E-01 1.000000000E+00 -6.197609930E-02
 1.500000000E-01 1.000000000E+00 -5.389842808E-02
 1.000000000E-01 1.000000000E+00 -4.595151297E-02
 5.000000000E-02 1.000000000E+00 -3.826762496E-02
 1.733724275E-12 1.000000000E+00 -3.102792402E-02
 -5.000000000E-02 1.000000000E+00 -2.437350768E-02
 -1.000000000E-01 1.000000000E+00 -1.840653574E-02
 -1.500000000E-01 1.000000000E+00 -1.328718219E-02
 -2.000000000E-01 1.000000000E+00 -8.858644420E-03
 -2.500000000E-01 1.000000000E+00 -5.280916070E-03
 -3.000000000E-01 1.000000000E+00 -2.572035516E-03
 -3.500000000E-01 1.000000000E+00 -6.503788917E-04
 -4.000000000E-01 1.000000000E+00 4.678763796E-04
 -4.500000000E-01 1.000000000E+00 8.375803769E-04
 8.983016186E-01 -6.772387766E-03 3.172590319E-01
 8.214129937E-01 -1.554778223E-02 2.251878082E-01
 9.863779439E-01 -4.435498442E-03 3.690385932E-01
 7.476665386E-01 -2.672738960E-02 1.224448815E-01
 6.773360103E-01 -3.748866910E-02 1.749097236E-02
 6.094132319E-01 -4.877337181E-02 -9.152625500E-02
 5.446645977E-01 -5.819525656E-02 -2.177405769E-01
 4.784892313E-01 -6.573356777E-02 -3.606607465E-01
 4.214355296E-01 -7.110761808E-02 -4.501348802E-01
 3.663391912E-01 -7.227802482E-02 -4.918466518E-01
 3.081973794E-01 -7.294701720E-02 -4.736326538E-01
 2.538982095E-01 -7.020309126E-02 -4.325809695E-01
 1.948618579E-01 -6.374541184E-02 -3.798421409E-01