TITLE     = "Visualization of the solution"
VARIABLES = "x"
"y"
"Pressure_Coefficient"
ZONE T="Zone"
 STRANDID=0, SOLUTIONTIME=0
 Nodes=12106, Elements=23633, ZONETYPE=FEQuadrilateral
 DATAPACKING=POINT
 DT=(DOUBLE DOUBLE DOUBLE )
 1.000316262E+00 5.252293195E-04 2.153472886E-01
 9.874575734E-01 2.792243380E-03 1.375086021E-01
 9.753161073E-01 4.887112416E-03 9.160569486E-02
 9.616473317E-01 7.270372938E-03 4.294387525E-02
 9.480836391E-01 9.577844292E-03 1.132938227E-02
 9.355569482E-01 1.171842217E-02 -1.836315279E-02
 9.247663617E-01 1.358618028E-02 -6.256609947E-02
 9.120486379E-01 1.565992273E-02 -8.376905313E-02
 9.003358483E-01 1.754600182E-02 -1.211337834E-01
 8.872630596E-01 1.946488954E-02 -1.232079706E-01
 8.747469783E-01 2.129733935E-02 -1.432949823E-01
 8.626998067E-01 2.300040238E-02 -1.587069819E-01
 8.500995040E-01 2.472604439E-02 -1.793225656E-01
 8.377753496E-01 2.629022673E-02 -1.752339485E-01
 8.255784512E-01 2.783206105E-02 -1.806546254E-01
 8.122733831E-01 2.951277420E-02 -2.016384519E-01
 7.989083529E-01 3.110450134E-02 -1.984110810E-01
 7.868905067E-01 3.256263211E-02 -2.192981448E-01
 7.739293575E-01 3.404855356E-02 -2.156361320E-01
 7.618131638E-01 3.548447043E-02 -2.400071260E-01
 7.486559749E-01 3.696124628E-02 -2.491770532E-01
 7.345281839E-01 3.850292414E-02 -2.565284697E-01
 7.234798074E-01 3.970189765E-02 -2.703585996E-01
 7.121171951E-01 4.089889675E-02 -2.799016211E-01
 7.002573013E-01 4.212293029E-02 -2.909404716E-01
 6.865961552E-01 4.349761084E-02 -3.073855506E-01
 6.732980609E-01 4.477185011E-02 -3.161783213E-01
 6.630148292E-01 4.573802277E-02 -3.285257762E-01
 6.511543393E-01 4.680430144E-02 -3.370413907E-01
 6.400758624E-01 4.777547345E-02 -3.493406121E-01
 6.281957030E-01 4.877691716E-02 -3.642580458E-01
 6.170414090E-01 4.966022819E-02 -3.750134987E-01
 6.058238149E-01 5.048334971E-02 -3.740693650E-01
 5.934249163E-01 5.138550326E-02 -3.926970905E-01
 5.815498233E-01 5.217914283E-02 -4.033649487E-01
 5.681015253E-01 5.299508572E-02 -4.107314932E-01
 5.554286242E-01 5.369607359E-02 -4.185723638E-01
 5.428639054E-01 5.431855097E-02 -4.234771860E-01
 5.319520831E-01 5.481196567E-02 -4.298187532E-01
 5.199642777E-01 5.529108644E-02 -4.345722825E-01
 5.071610808E-01 5.573163182E-02 -4.411758818E-01
 4.962134063E-01 5.604081973E-02 -4.419870453E-01
 4.829971790E-01 5.633335933E-02 -4.376419405E-01
 4.702774882E-01 5.657251924E-02 -4.446863372E-01
 4.561807215E-01 5.673550814E-02 -4.458357953E-01
 4.421672523E-01 5.680031329E-02 -4.410253090E-01
 4.292109013E-01 5.679889023E-02 -4.424605340E-01
 4.159833491E-01 5.670854077E-02 -4.361938987E-01
 4.037564993E-01 5.657644942E-02 -4.370173802E-01
 3.913160264E-01 5.636624992E-02 -4.319023792E-01
 3.791295290E-01 5.610343814E-02 -4.273766517E-01
 3.680583537E-01 5.582199618E-02 -4.266503994E-01
 3.549911380E-01 5.541136861E-02 -4.205056543E-01
 3.429947197E-01 5.497808754E-02 -4.145879608E-01
 3.307167590E-01 5.448403209E-02 -4.130747895E-01
 3.202211559E-01 5.400861055E-02 -4.062544219E-01
 3.080588877E-01 5.341079459E-02 -4.034090525E-01
 2.949281633E-01 5.268696323E-02 -3.934781471E-01
 2.809750140E-01 5.186011642E-02 -3.907329607E-01
 2.679414153E-01 5.100433528E-02 -3.820892934E-01
 2.557792962E-01 5.015631765E-02 -3.768416597E-01
 2.427785993E-01 4.918227345E-02 -3.722345197E-01
 2.295616120E-01 4.810733721E-02 -3.613114228E-01
 2.171799242E-01 4.704832286E-02 -3.566274350E-01
 2.051917315E-01 4.595581070E-02 -3.499916978E-01
 1.938167214E-01 4.486159608E-02 -3.434098394E-01
 1.812873632E-01 4.358525202E-02 -3.359622751E-01
 1.693376005E-01 4.230089858E-02 -3.304915586E-01
 1.575344205E-01 4.095549136E-02 -3.218387806E-01
 1.455813348E-01 3.952280432E-02 -3.166848236E-01
 1.346462220E-01 3.813388571E-02 -3.082249819E-01
 1.233566850E-01 3.662572801E-02 -3.012214765E-01
 1.119147390E-01 3.501176834E-02 -2.962730788E-01
 1.012570933E-01 3.341560066E-02 -2.894747426E-01
 9.145411104E-02 3.185674921E-02 -2.810906883E-01
 8.036515862E-02 2.998556755E-02 -2.755317587E-01
 6.870597601E-02 2.786105126E-02 -2.689170977E-01
 5.924041569E-02 2.599282376E-02 -2.609374951E-01
 4.989982024E-02 2.400333621E-02 -2.553956636E-01
 4.131790251E-02 2.199209854E-02 -2.484183027E-01
 3.400386497E-02 2.011211216E-02 -2.419917801E-01
 2.780280262E-02 1.834650896E-02 -2.290558094E-01
 2.245644107E-02 1.666660421E-02 -2.233957483E-01
 1.864094287E-02 1.534464024E-02 -2.075712796E-01
 1.512747351E-02 1.400252152E-02 -1.991874400E-01
 1.258234400E-02 1.293112151E-02 -1.769157370E-01
 1.033306587E-02 1.189451665E-02 -1.608614368E-01
 8.707144298E-03 1.107624173E-02 -1.389967262E-01
 7.192250341E-03 1.025392860E-02 -1.260793601E-01
 5.757927429E-03 9.398541413E-03 -6.592960299E-02
 3.867739113E-03 8.111286908E-03 7.261032231E-03
 2.243618481E-03 6.799846888E-03 9.686168133E-02
 8.463752456E-04 5.394408945E-03 3.125661407E-01
 -5.134185194E-04 3.516798373E-03 5.569139196E-01
 -1.207624795E-03 1.975712134E-03 7.803191933E-01
 -1.515517593E-03 7.373775588E-04 9.376950726E-01
 -1.602612319E-03 -7.484260132E-04 1.078320897E+00
 -1.331774867E-03 -2.534729196E-03 1.109058513E+00
 -5.667029181E-04 -4.561492242E-03 1.020285368E+00
 7.849442190E-04 -6.767695770E-03 8.443448396E-01
 2.776487963E-03 -9.099292569E-03 6.754921744E-01
 4.555750173E-03 -1.078178268E-02 5.193534743E-01
 6.719201803E-03 -1.253715064E-02 4.367826260E-01
 8.301654831E-03 -1.367978286E-02 3.346363610E-01
 1.029776689E-02 -1.500127092E-02 2.818399532E-01
 1.265582163E-02 -1.642448269E-02 2.061871659E-01
 1.583986916E-02 -1.816298813E-02 1.429999790E-01
 1.896490529E-02 -1.970900781E-02 7.706198582E-02
 2.298362367E-02 -2.152974904E-02 2.521487917E-02
 2.840904146E-02 -2.373235673E-02 -3.361042633E-02
 3.407185897E-02 -2.580543607E-02 -7.635890885E-02
 4.146734998E-02 -2.824343927E-02 -1.181008181E-01
 4.898373783E-02 -3.046571463E-02 -1.549035994E-01
 5.781738460E-02 -3.284418955E-02 -1.766860519E-01
 6.647218764E-02 -3.497156873E-02 -2.050818695E-01
 7.678986341E-02 -3.728809208E-02 -2.212351177E-01
 8.674952388E-02 -3.935581446E-02 -2.414777521E-01
 9.723494947E-02 -4.136247933E-02 -2.534670678E-01
 1.081060767E-01 -4.330206290E-02 -2.688041702E-01
 1.196251363E-01 -4.521042854E-02 -2.802892284E-01
 1.310751438E-01 -4.698101804E-02 -2.924476063E-01
 1.416742504E-01 -4.852311313E-02 -3.057202613E-01
 1.527164429E-01 -5.003106594E-02 -3.164141243E-01
 1.645859033E-01 -5.155014619E-02 -3.277055341E-01
 1.762160808E-01 -5.294533074E-02 -3.402372019E-01
 1.880630106E-01 -5.426650122E-02 -3.497275825E-01
 1.985100061E-01 -5.536001548E-02 -3.619189276E-01
 2.097247541E-01 -5.645356700E-02 -3.711114589E-01
 2.219879925E-01 -5.756248534E-02 -3.820680255E-01
 2.344791442E-01 -5.859767646E-02 -3.943597151E-01
 2.467149645E-01 -5.951865017E-02 -4.065162848E-01
 2.594704330E-01 -6.036844105E-02 -4.146374248E-01
 2.707717717E-01 -6.104366109E-02 -4.271849814E-01
 2.836026847E-01 -6.169988960E-02 -4.337785658E-01
 2.965972722E-01 -6.226498634E-02 -4.461852088E-01
 3.094686866E-01 -6.269962341E-02 -4.527012729E-01
 3.211799264E-01 -6.299969554E-02 -4.629911706E-01
 3.336238861E-01 -6.319504976E-02 -4.659102678E-01
 3.442105949E-01 -6.326793879E-02 -4.709338808E-01
 3.554668128E-01 -6.324057281E-02 -4.681370000E-01
 3.666236401E-01 -6.311942637E-02 -4.663833176E-01
 3.774625659E-01 -6.292862445E-02 -4.745756392E-01
 3.887942433E-01 -6.259319186E-02 -4.648882039E-01
 4.014354050E-01 -6.209618598E-02 -4.567233180E-01
 4.135068357E-01 -6.149051711E-02 -4.451985752E-01
 4.266931713E-01 -6.070190668E-02 -4.334446912E-01
 4.395026863E-01 -5.978226289E-02 -4.135485115E-01
 4.525673389E-01 -5.871884152E-02 -3.954614048E-01
 4.650551081E-01 -5.756790191E-02 -3.701249234E-01
 4.776712358E-01 -5.629695207E-02 -3.455097299E-01
 4.893546402E-01 -5.503571033E-02 -3.242963875E-01
 5.018144846E-01 -5.359724537E-02 -2.983087133E-01
 5.154436827E-01 -5.191206560E-02 -2.655986583E-01
 5.291737318E-01 -5.013019964E-02 -2.343703047E-01
 5.425393581E-01 -4.833033681E-02 -2.045073699E-01
 5.564821959E-01 -4.641227797E-02 -1.807509315E-01
 5.691473484E-01 -4.460155591E-02 -1.508312620E-01
 5.826127529E-01 -4.265153036E-02 -1.252919150E-01
 5.949836969E-01 -4.084014148E-02 -1.034583385E-01
 6.074691415E-01 -3.899895400E-02 -8.447824921E-02
 6.206225753E-01 -3.700587526E-02 -5.368430339E-02
 6.347069144E-01 -3.489769250E-02 -3.397076847E-02
 6.484218240E-01 -3.285631537E-02 -1.767530272E-02
 6.616803408E-01 -3.083038516E-02 1.162268884E-02
 6.753336191E-01 -2.879166789E-02 2.714786041E-02
 6.878639460E-01 -2.691290528E-02 4.857604601E-02
 7.003268003E-01 -2.506653592E-02 6.622476588E-02
 7.149215937E-01 -2.293632738E-02 8.427124066E-02
 7.279555202E-01 -2.105493471E-02 1.010947714E-01
 7.396482825E-01 -1.939986087E-02 1.123268964E-01
 7.516601086E-01 -1.765449531E-02 1.417683908E-01
 7.644598484E-01 -1.592659391E-02 1.451567997E-01
 7.770060301E-01 -1.419574209E-02 1.711113230E-01
 7.890105247E-01 -1.262871642E-02 1.804493240E-01
 8.012983203E-01 -1.104707923E-02 1.982003207E-01
 8.125215769E-01 -9.652161971E-03 2.121872348E-01
 8.238500953E-01 -8.288364857E-03 2.284266833E-01
 8.361468315E-01 -6.878155284E-03 2.441595675E-01
 8.483822942E-01 -5.572889931E-03 2.565382671E-01
 8.605303764E-01 -4.368316382E-03 2.682616517E-01
 8.723600507E-01 -3.278082702E-03 2.815907909E-01
 8.842009306E-01 -2.282994799E-03 2.952048258E-01
 8.973119855E-01 -1.336685033E-03 3.029338734E-01
 9.073923230E-01 -7.191199111E-04 3.092624085E-01
 9.173855186E-01 -1.978325017E-04 3.140356082E-01
 9.271863103E-01 2.015608916E-04 3.159893960E-01
 9.362782836E-01 5.035397480E-04 3.181810248E-01
 9.492631555E-01 7.911223220E-04 3.176937845E-01
 9.627069235E-01 9.358146926E-04 3.195680158E-01
 9.772217870E-01 9.133060230E-04 3.246201444E-01
 9.899055958E-01 7.442373317E-04 3.429993725E-01
 -5.000000000E-01 -1.000000000E+00 1.031414678E-02
 3.500000000E+00 -1.000000000E+00 5.863953752E-03
 3.500000000E+00 1.000000000E+00 -1.420938354E-02
 -5.000000000E-01 1.000000000E+00 8.170860077E-04
 9.938869178E-01 1.658736350E-03 2.269629018E-01
 9.813868403E-01 3.839677898E-03 1.153842764E-01
 9.684817195E-01 6.078742677E-03 6.458504976E-02
 9.548654854E-01 8.424108615E-03 2.756472134E-02
 9.418202937E-01 1.064813323E-02 -3.025162739E-03
 9.301616549E-01 1.265230123E-02 -4.588850476E-02
 9.184074998E-01 1.462305151E-02 -7.184186742E-02
 9.061922431E-01 1.660296228E-02 -1.088049134E-01
 8.937994540E-01 1.850544568E-02 -1.184459603E-01
 8.810050189E-01 2.038111445E-02 -1.338056354E-01
 8.687233925E-01 2.214887086E-02 -1.514435984E-01
 8.563996553E-01 2.386322338E-02 -1.718077656E-01
 8.439374268E-01 2.550813556E-02 -1.743123463E-01
 8.316769004E-01 2.706114389E-02 -1.762640430E-01
 8.189259171E-01 2.867241763E-02 -1.941898373E-01
 8.055908680E-01 3.030863777E-02 -1.966950976E-01
 7.928994298E-01 3.183356673E-02 -2.123620399E-01
 7.804099321E-01 3.330559283E-02 -2.138392912E-01
 7.678712606E-01 3.476651199E-02 -2.312365737E-01
 7.552345693E-01 3.622285835E-02 -2.448062948E-01
 7.415920794E-01 3.773208521E-02 -2.513179284E-01
 7.290039957E-01 3.910241090E-02 -2.642832040E-01
 7.177985013E-01 4.030039720E-02 -2.748641945E-01
 7.061872482E-01 4.151091352E-02 -2.855857296E-01
 6.934267282E-01 4.281027056E-02 -3.000976225E-01
 6.799471080E-01 4.413473047E-02 -3.102841270E-01
 6.681564450E-01 4.525493644E-02 -3.235465647E-01
 6.570845842E-01 4.627116211E-02 -3.317216031E-01
 6.456151009E-01 4.728988744E-02 -3.435697914E-01
 6.341357827E-01 4.827619530E-02 -3.575427988E-01
 6.226185560E-01 4.921857268E-02 -3.707916585E-01
 6.114326119E-01 5.007178895E-02 -3.720553423E-01
 5.996243656E-01 5.093442649E-02 -3.848250569E-01
 5.874873698E-01 5.178232305E-02 -3.996885821E-01
 5.748256743E-01 5.258711427E-02 -4.065240985E-01
 5.617650747E-01 5.334557965E-02 -4.150337640E-01
 5.491462648E-01 5.400731228E-02 -4.197019461E-01
 5.374079943E-01 5.456525832E-02 -4.276583884E-01
 5.259581804E-01 5.505152605E-02 -4.328830443E-01
 5.135626793E-01 5.551135913E-02 -4.373328354E-01
 5.016872436E-01 5.588622577E-02 -4.432886700E-01
 4.896052927E-01 5.618708953E-02 -4.378971427E-01
 4.766373336E-01 5.645293929E-02 -4.435385616E-01
 4.632291049E-01 5.665401369E-02 -4.457171866E-01
 4.491739869E-01 5.676791072E-02 -4.419817914E-01
 4.356890768E-01 5.679960176E-02 -4.430826701E-01
 4.225971252E-01 5.675371550E-02 -4.377581410E-01
 4.098699242E-01 5.664249510E-02 -4.375557282E-01
 3.975362629E-01 5.647134967E-02 -4.339680831E-01
 3.852227777E-01 5.623484403E-02 -4.283598516E-01
 3.735939413E-01 5.596271716E-02 -4.293045575E-01
 3.615247458E-01 5.561668240E-02 -4.228348225E-01
 3.489929289E-01 5.519472808E-02 -4.171893417E-01
 3.368557394E-01 5.473105982E-02 -4.133488977E-01
 3.254689574E-01 5.424632132E-02 -4.098727368E-01
 3.141400218E-01 5.370970257E-02 -4.062652571E-01
 3.014935255E-01 5.304887891E-02 -3.980779551E-01
 2.879515886E-01 5.227353983E-02 -3.927832577E-01
 2.744582146E-01 5.143222585E-02 -3.852509068E-01
 2.618603557E-01 5.058032647E-02 -3.801053737E-01
 2.492789477E-01 4.966929555E-02 -3.753050948E-01
 2.361701056E-01 4.864480533E-02 -3.656476085E-01
 2.233707681E-01 4.757783003E-02 -3.591798846E-01
 2.111858279E-01 4.650206678E-02 -3.528810275E-01
 1.995042264E-01 4.540870339E-02 -3.478107213E-01
 1.875520423E-01 4.422342405E-02 -3.393489572E-01
 1.753124818E-01 4.294307530E-02 -3.335721979E-01
 1.634360105E-01 4.162819497E-02 -3.259358840E-01
 1.515578777E-01 4.023914784E-02 -3.190826825E-01
 1.401137784E-01 3.882834502E-02 -3.123237118E-01
 1.290014535E-01 3.737980686E-02 -3.050666533E-01
 1.176357120E-01 3.581874818E-02 -2.986238679E-01
 1.065859161E-01 3.421368450E-02 -2.956212333E-01
 8.590963483E-02 3.092115838E-02 -2.812740287E-01
 7.453556731E-02 2.892330941E-02 -2.734303308E-01
 7.163102552E-02 -3.612983041E-02 -2.160062089E-01
 8.176969364E-02 -3.832195327E-02 -2.322109962E-01
 9.199223667E-02 -4.035914689E-02 -2.481994153E-01
 1.026705131E-01 -4.233227111E-02 -2.608863664E-01
 1.138656065E-01 -4.425624572E-02 -2.749964325E-01
 1.253501400E-01 -4.609572329E-02 -2.872732158E-01
 1.363746971E-01 -4.775206558E-02 -2.998625322E-01
 1.471953467E-01 -4.927708954E-02 -3.109149409E-01
 1.586511731E-01 -5.079060607E-02 -3.216505078E-01
 1.704009920E-01 -5.224773847E-02 -3.339869594E-01
 1.821395457E-01 -5.360591598E-02 -3.455413965E-01
 1.932865083E-01 -5.481325835E-02 -3.569167194E-01
 2.041173801E-01 -5.590679124E-02 -3.658409999E-01
 2.158563733E-01 -5.700802617E-02 -3.759574423E-01
 2.282335684E-01 -5.808008090E-02 -3.880450459E-01
 2.405970544E-01 -5.905816332E-02 -4.006461795E-01
 2.530926988E-01 -5.994354561E-02 -4.107222100E-01
 2.651211023E-01 -6.070605107E-02 -4.214418387E-01
 2.771872282E-01 -6.137177534E-02 -4.296179027E-01
 2.900999784E-01 -6.198243797E-02 -4.391326875E-01
 3.030329794E-01 -6.248230487E-02 -4.502778099E-01
 3.153243065E-01 -6.284965947E-02 -4.584465424E-01
 3.274019063E-01 -6.309737265E-02 -4.643600663E-01
 3.389172405E-01 -6.323149428E-02 -4.706040314E-01
 3.498387039E-01 -6.325425580E-02 -4.695371984E-01
 3.610452265E-01 -6.317999959E-02 -4.673651419E-01
 3.720431030E-01 -6.302402541E-02 -4.685933223E-01
 3.831284046E-01 -6.276090816E-02 -4.714746433E-01
 3.951148242E-01 -6.234468892E-02 -4.596573411E-01
 4.074711204E-01 -6.179335155E-02 -4.523320648E-01
 4.201000035E-01 -6.109621190E-02 -4.377770917E-01
 4.330979288E-01 -6.024208479E-02 -4.256082321E-01
 4.460350126E-01 -5.925055221E-02 -4.038532656E-01
 4.588112235E-01 -5.814337172E-02 -3.847030659E-01
 4.713631719E-01 -5.693242699E-02 -3.580702615E-01
 4.835129380E-01 -5.566633120E-02 -3.353739150E-01
 4.955845624E-01 -5.431647785E-02 -3.111631305E-01
 5.086290836E-01 -5.275465548E-02 -2.828015264E-01
 5.223087072E-01 -5.102113262E-02 -2.503977451E-01
 5.358565450E-01 -4.923026823E-02 -2.198115191E-01
 5.495107770E-01 -4.737130739E-02 -1.917706902E-01
 5.628147721E-01 -4.550691694E-02 -1.673797120E-01
 5.758800507E-01 -4.362654313E-02 -1.377161521E-01
 5.887982249E-01 -4.174583592E-02 -1.140121222E-01
 6.012264192E-01 -3.991954774E-02 -9.350796685E-02
 6.140458584E-01 -3.800241463E-02 -7.148779133E-02
 6.276647449E-01 -3.595178388E-02 -4.285842617E-02
 6.415643692E-01 -3.387700394E-02 -2.456287549E-02
 6.550510824E-01 -3.184335027E-02 -5.437390930E-03
 6.685069799E-01 -2.981102653E-02 2.067346533E-02
 6.815987825E-01 -2.785228658E-02 3.725586080E-02
 6.940953732E-01 -2.598972060E-02 5.722963868E-02
 7.076241970E-01 -2.400143165E-02 7.504505245E-02
 7.214385569E-01 -2.199563105E-02 9.333275081E-02
 7.338019013E-01 -2.022739779E-02 1.079351236E-01
 7.456541955E-01 -1.852717809E-02 1.233878161E-01
 7.580599785E-01 -1.679054461E-02 1.466344385E-01
 7.707329392E-01 -1.506116800E-02 1.551239557E-01
 7.830082774E-01 -1.341222925E-02 1.777765817E-01
 7.951544225E-01 -1.183789782E-02 1.884859818E-01
 8.069099486E-01 -1.034962060E-02 2.055852529E-01
 8.181858361E-01 -8.970263414E-03 2.197066990E-01
 8.299984634E-01 -7.583260071E-03 2.353970906E-01
 8.422645628E-01 -6.225522608E-03 2.512070932E-01
 8.544563353E-01 -4.970603157E-03 2.627767280E-01
 8.664452136E-01 -3.823199542E-03 2.747724760E-01
 8.782804906E-01 -2.780538751E-03 2.873667670E-01
 8.907564580E-01 -1.809839916E-03 2.989887736E-01
 9.427707195E-01 6.473310350E-04 3.173127879E-01
 9.559850395E-01 8.634685073E-04 3.178820567E-01
 9.699643552E-01 9.245603578E-04 3.202012558E-01
 9.835636914E-01 8.287716773E-04 3.314034432E-01
 9.951109290E-01 6.347333256E-04 3.978969866E-01
 -5.000000000E-01 9.500000000E-01 1.258423031E-03
 -5.000000000E-01 9.000000000E-01 2.104891638E-03
 -5.000000000E-01 8.500000000E-01 3.287494699E-03
 -5.000000000E-01 8.000000000E-01 4.989768833E-03
 -5.000000000E-01 7.500000000E-01 7.297797851E-03
 -5.000000000E-01 7.000000000E-01 1.019031539E-02
 -5.000000000E-01 6.500000000E-01 1.377420316E-02
 -5.000000000E-01 6.000000000E-01 1.811986319E-02
 -5.000000000E-01 5.500000000E-01 2.319864261E-02
 -5.000000000E-01 5.000000000E-01 2.903160118E-02
 -5.000000000E-01 4.500000000E-01 3.547666857E-02
 -5.000000000E-01 4.000000000E-01 4.265946636E-02
 -5.000000000E-01 3.500000000E-01 5.015863060E-02
 -5.000000000E-01 3.000000000E-01 5.812561219E-02
 -5.000000000E-01 2.500000000E-01 6.601716318E-02
 -5.000000000E-01 2.000000000E-01 7.348077968E-02
 -5.000000000E-01 1.500000000E-01 8.032641968E-02
 -5.000000000E-01 1.000000000E-01 8.616856720E-02
 -5.000000000E-01 5.000000000E-02 9.054510769E-02
 -5.000000000E-01 2.752242878E-12 9.325049250E-02
 -5.000000000E-01 -5.000000000E-02 9.412846644E-02
 -5.000000000E-01 -1.000000000E-01 9.323169545E-02
 -5.000000000E-01 -1.500000000E-01 9.065242801E-02
 -5.000000000E-01 -2.000000000E-01 8.666854567E-02
 -5.000000000E-01 -2.500000000E-01 8.176242016E-02
 -5.000000000E-01 -3.000000000E-01 7.602389948E-02
 -5.000000000E-01 -3.500000000E-01 7.011472454E-02
 -5.000000000E-01 -4.000000000E-01 6.383865921E-02
 -5.000000000E-01 -4.500000000E-01 5.790364864E-02
 -5.000000000E-01 -5.000000000E-01 5.211440592E-02
 -5.000000000E-01 -5.500000000E-01 4.672292823E-02
 -5.000000000E-01 -6.000000000E-01 4.181023365E-02
 -5.000000000E-01 -6.500000000E-01 3.730510449E-02
 -5.000000000E-01 -7.000000000E-01 3.317247743E-02
 -5.000000000E-01 -7.500000000E-01 2.945047483E-02
 -5.000000000E-01 -8.000000000E-01 2.598245198E-02
 -5.000000000E-01 -8.500000000E-01 2.267055844E-02
 -5.000000000E-01 -9.000000000E-01 1.911134808E-02
 -5.000000000E-01 -9.500000000E-01 1.414288573E-02
 -4.500000000E-01 -1.000000000E+00 1.289376217E-02
 -4.000000000E-01 -1.000000000E+00 1.659258544E-02
 -3.500000000E-01 -1.000000000E+00 1.810248034E-02
 -3.000000000E-01 -1.000000000E+00 1.861215252E-02
 -2.500000000E-01 -1.000000000E+00 1.831897167E-02
 -2.000000000E-01 -1.000000000E+00 1.733262129E-02
 -1.500000000E-01 -1.000000000E+00 1.563403915E-02
 -1.000000000E-01 -1.000000000E+00 1.329261731E-02
 -5.000000000E-02 -1.000000000E+00 1.045395262E-02
 -9.424683256E-13 -1.000000000E+00 7.109639460E-03
 5.000000000E-02 -1.000000000E+00 3.493993054E-03
 1.000000000E-01 -1.000000000E+00 -4.644109513E-04
 1.500000000E-01 -1.000000000E+00 -4.382423773E-03
 2.000000000E-01 -1.000000000E+00 -8.129841630E-03
 2.500000000E-01 -1.000000000E+00 -1.164301591E-02
 3.000000000E-01 -1.000000000E+00 -1.465835473E-02
 3.500000000E-01 -1.000000000E+00 -1.719068126E-02
 4.000000000E-01 -1.000000000E+00 -1.897672467E-02
 4.500000000E-01 -1.000000000E+00 -2.001877357E-02
 5.000000000E-01 -1.000000000E+00 -2.023982246E-02
 5.500000000E-01 -1.000000000E+00 -1.968391388E-02
 6.000000000E-01 -1.000000000E+00 -1.834514164E-02
 6.500000000E-01 -1.000000000E+00 -1.631958979E-02
 7.000000000E-01 -1.000000000E+00 -1.367018825E-02
 7.500000000E-01 -1.000000000E+00 -1.061096980E-02
 8.000000000E-01 -1.000000000E+00 -7.228068209E-03
 8.500000000E-01 -1.000000000E+00 -3.583670302E-03
 9.000000000E-01 -1.000000000E+00 1.413014710E-04
 9.500000000E-01 -1.000000000E+00 3.726330113E-03
 1.000000000E+00 -1.000000000E+00 7.209235896E-03
 1.050000000E+00 -1.000000000E+00 1.038276796E-02
 1.100000000E+00 -1.000000000E+00 1.330765434E-02
 1.150000000E+00 -1.000000000E+00 1.596419503E-02
 1.200000000E+00 -1.000000000E+00 1.821537698E-02
 1.250000000E+00 -1.000000000E+00 2.008170763E-02
 1.300000000E+00 -1.000000000E+00 2.162361171E-02
 1.350000000E+00 -1.000000000E+00 2.285493268E-02
 1.400000000E+00 -1.000000000E+00 2.381016471E-02
 1.450000000E+00 -1.000000000E+00 2.449171386E-02
 1.500000000E+00 -1.000000000E+00 2.494414357E-02
 1.550000000E+00 -1.000000000E+00 2.518455650E-02
 1.600000000E+00 -1.000000000E+00 2.526016854E-02
 1.650000000E+00 -1.000000000E+00 2.518523385E-02
 1.700000000E+00 -1.000000000E+00 2.500947185E-02
 1.750000000E+00 -1.000000000E+00 2.472007352E-02
 1.800000000E+00 -1.000000000E+00 2.437707632E-02
 1.850000000E+00 -1.000000000E+00 2.396771513E-02
 1.900000000E+00 -1.000000000E+00 2.351512341E-02
 1.950000000E+00 -1.000000000E+00 2.306327560E-02
 2.000000000E+00 -1.000000000E+00 2.257120966E-02
 2.050000000E+00 -1.000000000E+00 2.207346636E-02
 2.100000000E+00 -1.000000000E+00 2.158849313E-02
 2.150000000E+00 -1.000000000E+00 2.108977905E-02
 2.200000000E+00 -1.000000000E+00 2.063212215E-02
 2.250000000E+00 -1.000000000E+00 2.018273904E-02
 2.300000000E+00 -1.000000000E+00 1.976796179E-02
 2.350000000E+00 -1.000000000E+00 1.935704918E-02
 2.400000000E+00 -1.000000000E+00 1.896652082E-02
 2.450000000E+00 -1.000000000E+00 1.862878891E-02
 2.500000000E+00 -1.000000000E+00 1.827234323E-02
 2.550000000E+00 -1.000000000E+00 1.798854469E-02
 2.600000000E+00 -1.000000000E+00 1.769815703E-02
 2.650000000E+00 -1.000000000E+00 1.744416449E-02
 2.700000000E+00 -1.000000000E+00 1.720779216E-02
 2.750000000E+00 -1.000000000E+00 1.698587591E-02
 2.800000000E+00 -1.000000000E+00 1.679932226E-02
 2.850000000E+00 -1.000000000E+00 1.660120892E-02
 2.900000000E+00 -1.000000000E+00 1.640980322E-02
 2.950000000E+00 -1.000000000E+00 1.622975345E-02
 3.000000000E+00 -1.000000000E+00 1.602440992E-02
 3.050000000E+00 -1.000000000E+00 1.580324447E-02
 3.100000000E+00 -1.000000000E+00 1.552595419E-02
 3.150000000E+00 -1.000000000E+00 1.520245450E-02
 3.200000000E+00 -1.000000000E+00 1.482231468E-02
 3.250000000E+00 -1.000000000E+00 1.426417293E-02
 3.300000000E+00 -1.000000000E+00 1.358165792E-02
 3.350000000E+00 -1.000000000E+00 1.252864925E-02
 3.400000000E+00 -1.000000000E+00 1.102356018E-02
 3.450000000E+00 -1.000000000E+00 8.562973181E-03
 3.500000000E+00 -9.500000000E-01 5.094026763E-03
 3.500000000E+00 -9.000000000E-01 6.469781444E-03
 3.500000000E+00 -8.500000000E-01 7.730049320E-03
 3.500000000E+00 -8.000000000E-01 9.056933576E-03
 3.500000000E+00 -7.500000000E-01 1.026074589E-02
 3.500000000E+00 -7.000000000E-01 1.154531342E-02
 3.500000000E+00 -6.500000000E-01 1.295310186E-02
 3.500000000E+00 -6.000000000E-01 1.449297882E-02
 3.500000000E+00 -5.500000000E-01 1.618349871E-02
 3.500000000E+00 -5.000000000E-01 1.805655665E-02
 3.500000000E+00 -4.500000000E-01 2.001943047E-02
 3.500000000E+00 -4.000000000E-01 2.204711637E-02
 3.500000000E+00 -3.500000000E-01 2.427767514E-02
 3.500000000E+00 -3.000000000E-01 2.649551090E-02
 3.500000000E+00 -2.500000000E-01 2.816230989E-02
 3.500000000E+00 -2.000000000E-01 2.911925681E-02
 3.500000000E+00 -1.500000000E-01 2.946388411E-02
 3.500000000E+00 -1.000000000E-01 2.906461883E-02
 3.500000000E+00 -5.000000000E-02 2.839092022E-02
 3.500000000E+00 -2.752242878E-12 2.786438333E-02
 3.500000000E+00 5.000000000E-02 2.739313541E-02
 3.500000000E+00 1.000000000E-01 2.683310023E-02
 3.500000000E+00 1.500000000E-01 2.553364047E-02
 3.500000000E+00 2.000000000E-01 2.331542454E-02
 3.500000000E+00 2.500000000E-01 2.077892820E-02
 3.500000000E+00 3.000000000E-01 1.796611167E-02
 3.500000000E+00 3.500000000E-01 1.530554853E-02
 3.500000000E+00 4.000000000E-01 1.278151443E-02
 3.500000000E+00 4.500000000E-01 1.047878394E-02
 3.500000000E+00 5.000000000E-01 8.408120224E-03
 3.500000000E+00 5.500000000E-01 6.541586279E-03
 3.500000000E+00 6.000000000E-01 5.225480142E-03
 3.500000000E+00 6.500000000E-01 4.506325608E-03
 3.500000000E+00 7.000000000E-01 4.152066364E-03
 3.500000000E+00 7.500000000E-01 3.714977322E-03
 3.500000000E+00 8.000000000E-01 1.794755051E-03
 3.500000000E+00 8.500000000E-01 -2.001413804E-03
 3.500000000E+00 9.000000000E-01 -6.988053834E-03
 3.500000000E+00 9.500000000E-01 -1.399648374E-02
 3.450000000E+00 1.000000000E+00 -7.701130009E-03
 3.400000000E+00 1.000000000E+00 -2.264752020E-03
 3.350000000E+00 1.000000000E+00 4.044263693E-04
 3.300000000E+00 1.000000000E+00 1.690293056E-03
 3.250000000E+00 1.000000000E+00 2.296221817E-03
 3.200000000E+00 1.000000000E+00 2.727410562E-03
 3.150000000E+00 1.000000000E+00 2.804023700E-03
 3.100000000E+00 1.000000000E+00 2.693155624E-03
 3.050000000E+00 1.000000000E+00 2.566359714E-03
 3.000000000E+00 1.000000000E+00 2.176591485E-03
 2.950000000E+00 1.000000000E+00 1.871739035E-03
 2.900000000E+00 1.000000000E+00 1.420054341E-03
 2.850000000E+00 1.000000000E+00 7.773409261E-04
 2.800000000E+00 1.000000000E+00 2.139370307E-04
 2.750000000E+00 1.000000000E+00 -5.504817318E-04
 2.700000000E+00 1.000000000E+00 -1.156179749E-03
 2.650000000E+00 1.000000000E+00 -1.938898017E-03
 2.600000000E+00 1.000000000E+00 -2.602100138E-03
 2.550000000E+00 1.000000000E+00 -3.588344251E-03
 2.500000000E+00 1.000000000E+00 -4.473481427E-03
 2.450000000E+00 1.000000000E+00 -5.472133000E-03
 2.400000000E+00 1.000000000E+00 -6.559634998E-03
 2.350000000E+00 1.000000000E+00 -7.757230164E-03
 2.300000000E+00 1.000000000E+00 -8.833935221E-03
 2.250000000E+00 1.000000000E+00 -1.005382249E-02
 2.200000000E+00 1.000000000E+00 -1.132804043E-02
 2.150000000E+00 1.000000000E+00 -1.278836276E-02
 2.100000000E+00 1.000000000E+00 -1.439640635E-02
 2.050000000E+00 1.000000000E+00 -1.611607847E-02
 2.000000000E+00 1.000000000E+00 -1.783833570E-02
 1.950000000E+00 1.000000000E+00 -1.992039364E-02
 1.900000000E+00 1.000000000E+00 -2.150744135E-02
 1.850000000E+00 1.000000000E+00 -2.395865886E-02
 1.800000000E+00 1.000000000E+00 -2.610900711E-02
 1.750000000E+00 1.000000000E+00 -2.879674271E-02
 1.700000000E+00 1.000000000E+00 -3.131734126E-02
 1.650000000E+00 1.000000000E+00 -3.434990248E-02
 1.600000000E+00 1.000000000E+00 -3.750250067E-02
 1.550000000E+00 1.000000000E+00 -4.073618885E-02
 1.500000000E+00 1.000000000E+00 -4.403503461E-02
 1.450000000E+00 1.000000000E+00 -4.806761959E-02
 1.400000000E+00 1.000000000E+00 -5.212529141E-02
 1.350000000E+00 1.000000000E+00 -5.608752773E-02
 1.300000000E+00 1.000000000E+00 -6.091835334E-02
 1.250000000E+00 1.000000000E+00 -6.459533819E-02
 1.200000000E+00 1.000000000E+00 -6.959752570E-02
 1.150000000E+00 1.000000000E+00 -7.365357599E-02
 1.100000000E+00 1.000000000E+00 -7.862104178E-02
 1.050000000E+00 1.000000000E+00 -8.286589544E-02
 1.000000000E+00 1.000000000E+00 -8.648160349E-02
 9.500000000E-01 1.000000000E+00 -9.064482898E-02
 9.000000000E-01 1.000000000E+00 -9.348756488E-02
 8.500000000E-01 1.000000000E+00 -9.596877282E-02
 8.000000000E-01 1.000000000E+00 -9.766230524E-02
 7.500000000E-01 1.000000000E+00 -9.899160116E-02
 7.000000000E-01 1.000000000E+00 -9.889305113E-02
 6.500000000E-01 1.000000000E+00 -9.818987662E-02
 6.000000000E-01 1.000000000E+00 -9.605823597E-02
 5.500000000E-01 1.000000000E+00 -9.336629081E-02
 5.000000000E-01 1.000000000E+00 -8.977112009E-02
 4.500000000E-01 1.000000000E+00 -8.507848735E-02
 4.000000000E-01 1.000000000E+00 -7.980119221E-02
 3.500000000E-01 1.000000000E+00 -7.387195724E-02
 3.000000000E-01 1.000000000E+00 -6.725802818E-02
 2.500000000E-01 1.000000000E+00 -6.051010317E-02
 2.000000000E-01 1.000000000E+00 -5.325337183E-02
 1.500000000E-01 1.000000000E+00 -4.635807159E-02
 1.000000000E-01 1.000000000E+00 -3.932926760E-02
 5.000000000E-02 1.000000000E+00 -3.285857645E-02
 1.733724275E-12 1.000000000E+00 -2.636340401E-02
 -5.000000000E-02 1.000000000E+00 -2.077667746E-02
 -1.000000000E-01 1.000000000E+00 -1.567715923E-02
 -1.500000000E-01 1.000000000E+00 -1.119689553E-02
 -2.000000000E-01 1.000000000E+00 -7.432159130E-03
 -2.500000000E-01 1.000000000E+00 -4.350548694E-03
 -3.000000000E-01 1.000000000E+00 -2.022544758E-03
 -3.500000000E-01 1.000000000E+00 -3.303997683E-04
 -4.000000000E-01 1.000000000E+00 6.494014981E-04
 -4.500000000E-01 1.000000000E+00 8.892944595E-04
 1.979510892E+00 -9.526081904E-01 2.251815625E-02
 1.975000000E+00 9.566987298E-01 -1.757374090E-02
 9.341639610E-01 1.758727813E-02 -2.875212806E-02
 9.921089153E-01 7.537174723E-03 1.469784842E-01
 8.785000617E-01 2.595277443E-02 -1.348252121E-01
 8.152257328E-01 3.425273411E-02 -1.933329701E-01
 7.454834575E-01 4.306919127E-02 -2.478233064E-01
 6.772271843E-01 4.923872036E-02 -3.107803731E-01
 6.140216093E-01 5.525742919E-02 -3.689438011E-01
 5.588990451E-01 5.898411075E-02 -4.102508146E-01
 4.984784236E-01 6.064086202E-02 -4.358477430E-01
 4.398929083E-01 6.189043834E-02 -4.356202717E-01
 3.768082486E-01 6.087588728E-02 -4.227802249E-01
 3.172981052E-01 5.903631062E-02 -4.005497645E-01