TITLE     = "Visualization of the solution"
VARIABLES = "x"
"y"
"Pressure_Coefficient"
ZONE T="Zone"
 STRANDID=0, SOLUTIONTIME=0
 Nodes=11784, Elements=22988, ZONETYPE=FEQuadrilateral
 DATAPACKING=POINT
 DT=(DOUBLE DOUBLE DOUBLE )
 1.000300050E+00 5.238890881E-04 2.060268111E-01
 9.891649485E-01 2.475539455E-03 1.588475220E-01
 9.773398638E-01 4.464987200E-03 1.010882554E-01
 9.636943340E-01 6.788288709E-03 5.896676241E-02
 9.511529207E-01 9.011444636E-03 -9.802310485E-03
 9.374223948E-01 1.122223865E-02 -1.978334728E-02
 9.269143939E-01 1.299273502E-02 -6.599952994E-02
 9.139620066E-01 1.503028814E-02 -8.979359032E-02
 9.023161530E-01 1.681872644E-02 -1.122374795E-01
 8.899844289E-01 1.867555454E-02 -1.458841371E-01
 8.771065474E-01 2.047238126E-02 -1.627106747E-01
 8.648231626E-01 2.208445407E-02 -1.699727424E-01
 8.519582152E-01 2.370621078E-02 -1.822794688E-01
 8.397175670E-01 2.515791915E-02 -1.774625561E-01
 8.276283145E-01 2.660802379E-02 -1.971061573E-01
 8.135876656E-01 2.817280404E-02 -1.914275512E-01
 8.004378676E-01 2.966523543E-02 -2.096382166E-01
 7.882058620E-01 3.098651022E-02 -2.129768420E-01
 7.758136392E-01 3.231190145E-02 -2.180290385E-01
 7.633951902E-01 3.365109116E-02 -2.415014914E-01
 7.500013709E-01 3.498613089E-02 -2.381790862E-01
 7.360204458E-01 3.639765084E-02 -2.559491499E-01
 7.249216437E-01 3.746806458E-02 -2.605350756E-01
 7.136289477E-01 3.854875639E-02 -2.720870908E-01
 7.017022967E-01 3.965391219E-02 -2.823545709E-01
 6.872861981E-01 4.093768820E-02 -2.904696945E-01
 6.737605929E-01 4.212196916E-02 -3.082289172E-01
 6.638367176E-01 4.293322191E-02 -3.105814079E-01
 6.518386602E-01 4.389902204E-02 -3.237026421E-01
 6.403558850E-01 4.477691278E-02 -3.319614325E-01
 6.285869479E-01 4.563822225E-02 -3.407672767E-01
 6.175004244E-01 4.641677812E-02 -3.517236015E-01
 6.059808731E-01 4.717734084E-02 -3.623721200E-01
 5.929687023E-01 4.795794189E-02 -3.664742408E-01
 5.809186697E-01 4.863505810E-02 -3.731415765E-01
 5.674971342E-01 4.933043197E-02 -3.816414317E-01
 5.550931692E-01 4.991381988E-02 -3.915775421E-01
 5.430600643E-01 5.040211231E-02 -3.917462522E-01
 5.324656963E-01 5.079960451E-02 -4.005620958E-01
 5.207948685E-01 5.116055906E-02 -3.967182631E-01
 5.078502893E-01 5.152340233E-02 -4.077602034E-01
 4.965972304E-01 5.175086111E-02 -4.008860140E-01
 4.836514890E-01 5.197434872E-02 -4.060876284E-01
 4.705066085E-01 5.211550370E-02 -4.038151449E-01
 4.559719861E-01 5.219102278E-02 -4.015525161E-01
 4.424702525E-01 5.219279602E-02 -4.012886144E-01
 4.293901622E-01 5.211974680E-02 -3.973555776E-01
 4.165706933E-01 5.199041963E-02 -3.956733849E-01
 4.044496119E-01 5.180612579E-02 -3.907714490E-01
 3.924060464E-01 5.157682300E-02 -3.896958710E-01
 3.800133169E-01 5.127198249E-02 -3.820996455E-01
 3.693906069E-01 5.098161474E-02 -3.811211943E-01
 3.567805588E-01 5.057084188E-02 -3.736656028E-01
 3.451413214E-01 5.015585944E-02 -3.724560018E-01
 3.327969313E-01 4.964966699E-02 -3.653530455E-01
 3.221933246E-01 4.918158799E-02 -3.618398632E-01
 3.102754951E-01 4.860342294E-02 -3.554962187E-01
 2.969514430E-01 4.790018499E-02 -3.479648504E-01
 2.830457985E-01 4.711504653E-02 -3.458465455E-01
 2.697295845E-01 4.628265277E-02 -3.350325545E-01
 2.575836480E-01 4.549178854E-02 -3.330783855E-01
 2.447826713E-01 4.459014162E-02 -3.264932652E-01
 2.314914167E-01 4.358713329E-02 -3.173875307E-01
 2.191574723E-01 4.261326045E-02 -3.138693418E-01
 2.073515803E-01 4.162259400E-02 -3.080597120E-01
 1.962205917E-01 4.063827544E-02 -3.009161074E-01
 1.835747063E-01 3.946699947E-02 -2.963422413E-01
 1.715092063E-01 3.828278184E-02 -2.899247745E-01
 1.598320603E-01 3.707571328E-02 -2.835511251E-01
 1.476520747E-01 3.574863821E-02 -2.761157672E-01
 1.368833929E-01 3.452516347E-02 -2.736636197E-01
 1.252853274E-01 3.312448412E-02 -2.666234345E-01
 1.136095524E-01 3.163330257E-02 -2.604467670E-01
 1.028884128E-01 3.018779494E-02 -2.561849051E-01
 9.295479953E-02 2.876926586E-02 -2.502080187E-01
 8.166560531E-02 2.704815194E-02 -2.440457626E-01
 6.975967437E-02 2.509476431E-02 -2.414035130E-01
 6.034924462E-02 2.341606840E-02 -2.320931313E-01
 5.081634223E-02 2.157542482E-02 -2.266670431E-01
 4.225097224E-02 1.976389624E-02 -2.203397211E-01
 3.504848480E-02 1.807920262E-02 -2.136429605E-01
 2.888617665E-02 1.649389043E-02 -2.016556815E-01
 2.352743410E-02 1.496981457E-02 -1.972462467E-01
 1.968346164E-02 1.376184542E-02 -1.780876560E-01
 1.613787375E-02 1.253405865E-02 -1.626279812E-01
 1.359160710E-02 1.157229859E-02 -1.470450776E-01
 1.131483354E-02 1.063399948E-02 -1.301672138E-01
 9.683644399E-03 9.900588542E-03 -1.111011242E-01
 8.173589595E-03 9.169859812E-03 -9.536626299E-02
 6.736010779E-03 8.407844231E-03 -3.792023489E-02
 4.809155129E-03 7.270871196E-03 1.775721596E-02
 3.078415059E-03 6.073818076E-03 8.720498723E-02
 1.536766649E-03 4.769844003E-03 3.074246447E-01
 6.076830687E-06 3.029115731E-03 5.286402521E-01
 -7.901419303E-04 1.655924600E-03 7.621233253E-01
 -1.181252417E-03 5.450055469E-04 9.265209717E-01
 -1.355431392E-03 -7.714502863E-04 1.090611921E+00
 -1.194302342E-03 -2.264405135E-03 1.096209109E+00
 -5.827051355E-04 -3.910950385E-03 9.785448399E-01
 6.050376687E-04 -5.726820324E-03 7.579383776E-01
 2.433877205E-03 -7.637772243E-03 5.581435787E-01
 4.076560028E-03 -8.986379951E-03 3.916251977E-01
 6.019615568E-03 -1.033595204E-02 3.072212044E-01
 7.494138554E-03 -1.124195661E-02 2.222123504E-01
 9.385695681E-03 -1.229413413E-02 1.802408903E-01
 1.163689885E-02 -1.342723425E-02 1.211723153E-01
 1.470967755E-02 -1.481727697E-02 6.943081098E-02
 1.770234667E-02 -1.603856124E-02 1.951368842E-02
 2.147997916E-02 -1.744011045E-02 -1.468891496E-02
 2.684492618E-02 -1.921188086E-02 -4.568003038E-02
 3.254139423E-02 -2.090868913E-02 -7.920958936E-02
 4.015393928E-02 -2.293382958E-02 -1.034906234E-01
 4.780868068E-02 -2.476083301E-02 -1.266733713E-01
 5.678590015E-02 -2.671416476E-02 -1.403255930E-01
 6.558060646E-02 -2.846271545E-02 -1.578727692E-01
 7.578387856E-02 -3.033787198E-02 -1.697444417E-01
 8.586329967E-02 -3.204251081E-02 -1.780262302E-01
 9.647879750E-02 -3.373492137E-02 -1.923203434E-01
 1.071693748E-01 -3.531780839E-02 -1.997373665E-01
 1.190169528E-01 -3.697133809E-02 -2.112935206E-01
 1.303841025E-01 -3.845785186E-02 -2.203213111E-01
 1.413332224E-01 -3.981301561E-02 -2.306184403E-01
 1.521554291E-01 -4.108010978E-02 -2.394172140E-01
 1.639818847E-01 -4.238922149E-02 -2.481976137E-01
 1.757677197E-01 -4.362686351E-02 -2.597643696E-01
 1.879398525E-01 -4.482696205E-02 -2.694640989E-01
 1.986765116E-01 -4.582322016E-02 -2.788989795E-01
 2.099416405E-01 -4.681178555E-02 -2.895207450E-01
 2.225276530E-01 -4.784229025E-02 -2.999970910E-01
 2.358298451E-01 -4.884462431E-02 -3.106148878E-01
 2.485706061E-01 -4.973179102E-02 -3.243066045E-01
 2.616812289E-01 -5.054651573E-02 -3.328460532E-01
 2.732343078E-01 -5.119337514E-02 -3.438405826E-01
 2.865955532E-01 -5.185577646E-02 -3.541330725E-01
 2.999891639E-01 -5.242134631E-02 -3.661913083E-01
 3.130939901E-01 -5.287117511E-02 -3.772133059E-01
 3.249032199E-01 -5.317353457E-02 -3.831935579E-01
 3.371623755E-01 -5.339096487E-02 -3.873888138E-01
 3.482769132E-01 -5.351202935E-02 -3.956873697E-01
 3.596031070E-01 -5.354771763E-02 -4.023554472E-01
 3.706588447E-01 -5.348078907E-02 -4.043632562E-01
 3.812383115E-01 -5.331965536E-02 -4.017202709E-01
 3.925231695E-01 -5.306096748E-02 -4.007034597E-01
 4.049328864E-01 -5.266917497E-02 -4.017487076E-01
 4.170969427E-01 -5.213184655E-02 -3.886874152E-01
 4.301720262E-01 -5.142999068E-02 -3.781075141E-01
 4.427920878E-01 -5.061530322E-02 -3.620658914E-01
 4.554847479E-01 -4.967930168E-02 -3.478687994E-01
 4.677831829E-01 -4.864265770E-02 -3.265335725E-01
 4.801523089E-01 -4.748774692E-02 -3.034447203E-01
 4.915499985E-01 -4.633752629E-02 -2.827667650E-01
 5.035793781E-01 -4.503461346E-02 -2.567047285E-01
 5.170734525E-01 -4.348656535E-02 -2.299504276E-01
 5.306603909E-01 -4.183103144E-02 -1.995115320E-01
 5.442395806E-01 -4.010156542E-02 -1.677422501E-01
 5.576797128E-01 -3.834937513E-02 -1.408852044E-01
 5.700266361E-01 -3.672843426E-02 -1.242340728E-01
 5.829245448E-01 -3.495836258E-02 -9.173981471E-02
 5.945676565E-01 -3.336780518E-02 -7.432665714E-02
 6.062387228E-01 -3.175980225E-02 -5.453843218E-02
 6.194819212E-01 -2.992300130E-02 -3.352742055E-02
 6.332532167E-01 -2.798223682E-02 -5.807578876E-03
 6.467675567E-01 -2.612345107E-02 9.353328714E-03
 6.601997018E-01 -2.426661178E-02 2.981405597E-02
 6.733671427E-01 -2.244599909E-02 5.108662219E-02
 6.855381727E-01 -2.079550922E-02 6.540938532E-02
 6.980113387E-01 -1.910596900E-02 8.562029486E-02
 7.119038701E-01 -1.726348884E-02 1.034292188E-01
 7.247506976E-01 -1.562285889E-02 1.124958581E-01
 7.363585830E-01 -1.413583849E-02 1.294791483E-01
 7.477688789E-01 -1.267467532E-02 1.511017201E-01
 7.601434588E-01 -1.118295547E-02 1.587912873E-01
 7.724938989E-01 -9.715674445E-03 1.750009442E-01
 7.837504745E-01 -8.416891098E-03 1.900533935E-01
 7.962176204E-01 -7.049368229E-03 2.012928630E-01
 8.074696064E-01 -5.867309868E-03 2.126067709E-01
 8.190132976E-01 -4.685266875E-03 2.295891476E-01
 8.316206336E-01 -3.486673348E-03 2.425429810E-01
 8.441606760E-01 -2.405325882E-03 2.522190131E-01
 8.562361002E-01 -1.442743931E-03 2.649298964E-01
 8.692569137E-01 -5.348075065E-04 2.729015753E-01
 8.818236589E-01 2.368973655E-04 2.839826407E-01
 8.958596587E-01 9.200557834E-04 2.883561623E-01
 9.064949155E-01 1.312213251E-03 2.905192344E-01
 9.167227745E-01 1.602137461E-03 2.920486675E-01
 9.261313677E-01 1.783790998E-03 2.914632728E-01
 9.349026084E-01 1.882083947E-03 2.930918147E-01
 9.480181932E-01 1.902000629E-03 2.881813215E-01
 9.614942670E-01 1.775663113E-03 2.849512050E-01
 9.766179919E-01 1.451273100E-03 2.820454126E-01
 9.892013073E-01 1.029769541E-03 2.871248030E-01
 -5.000000000E-01 -1.000000000E+00 9.874233172E-03
 3.500000000E+00 -1.000000000E+00 5.776637634E-03
 3.500000000E+00 1.000000000E+00 -1.329588660E-02
 -5.000000000E-01 1.000000000E+00 -1.121740793E-04
 9.947324991E-01 1.499714272E-03 2.528991640E-01
 9.832524061E-01 3.470263327E-03 1.286746262E-01
 9.705170989E-01 5.626637954E-03 8.012383119E-02
 9.574236274E-01 7.899866672E-03 1.626469243E-02
 9.442876577E-01 1.011684164E-02 -1.138767580E-02
 9.321683943E-01 1.210748684E-02 -5.016564581E-02
 9.204382002E-01 1.401151158E-02 -7.726034276E-02
 9.081390798E-01 1.592450729E-02 -1.002351164E-01
 8.961502910E-01 1.774714049E-02 -1.326095822E-01
 8.835454881E-01 1.957396790E-02 -1.545750333E-01
 8.709648550E-01 2.127841767E-02 -1.658909616E-01
 8.583906889E-01 2.289533243E-02 -1.769692727E-01
 8.458378911E-01 2.443206497E-02 -1.762312741E-01
 8.336729407E-01 2.588297147E-02 -1.916083272E-01
 8.206079900E-01 2.739041392E-02 -1.907016480E-01
 8.070127666E-01 2.891901974E-02 -2.023124046E-01
 7.943218648E-01 3.032587282E-02 -2.100305686E-01
 7.820097506E-01 3.164920583E-02 -2.136781403E-01
 7.696044147E-01 3.298149630E-02 -2.341955281E-01
 7.566982806E-01 3.431861103E-02 -2.366342145E-01
 7.430109084E-01 3.569189087E-02 -2.480178922E-01
 7.304710448E-01 3.693285771E-02 -2.571335877E-01
 7.192752957E-01 3.800841048E-02 -2.669469120E-01
 7.076656222E-01 3.910133429E-02 -2.781980674E-01
 6.944942474E-01 4.029580019E-02 -2.851137013E-01
 6.805233955E-01 4.152982868E-02 -3.016899281E-01
 6.578376889E-01 4.341612197E-02 -3.184804006E-01
 6.460972726E-01 4.433796741E-02 -3.278549521E-01
 6.344714165E-01 4.520756751E-02 -3.357902151E-01
 6.230436862E-01 4.602750018E-02 -3.469088803E-01
 6.117406487E-01 4.679705948E-02 -3.588685583E-01
 5.994747877E-01 4.756764136E-02 -3.633943450E-01
 5.869436860E-01 4.829650000E-02 -3.702449486E-01
 5.742079020E-01 4.898274504E-02 -3.773504777E-01
 5.612951517E-01 4.962212592E-02 -3.878858548E-01
 5.490766168E-01 5.015796609E-02 -3.896790086E-01
 5.377628803E-01 5.060085841E-02 -3.985858050E-01
 5.266302824E-01 5.098008178E-02 -3.972823774E-01
 5.143225789E-01 5.134198070E-02 -4.035318976E-01
 5.022237599E-01 5.163713172E-02 -4.032357613E-01
 4.901243597E-01 5.186260492E-02 -4.047477170E-01
 4.770790488E-01 5.204492621E-02 -4.055917015E-01
 4.632392973E-01 5.215326324E-02 -4.021674560E-01
 4.492211193E-01 5.219190940E-02 -4.017859372E-01
 4.359302074E-01 5.215627141E-02 -3.988780673E-01
 4.229804277E-01 5.205508322E-02 -3.964392513E-01
 4.105101526E-01 5.189827271E-02 -3.926847963E-01
 3.984278291E-01 5.169147439E-02 -3.913138160E-01
 3.862096816E-01 5.142440274E-02 -3.838632420E-01
 3.747019619E-01 5.112679861E-02 -3.836486876E-01
 3.630855829E-01 5.077622831E-02 -3.762100333E-01
 3.509609401E-01 5.036335066E-02 -3.743225494E-01
 3.389691263E-01 4.990276322E-02 -3.674046067E-01
 3.274951279E-01 4.941562749E-02 -3.645286612E-01
 3.162344098E-01 4.889250547E-02 -3.592770838E-01
 3.036134690E-01 4.825180396E-02 -3.515287155E-01
 2.899986207E-01 4.750761576E-02 -3.479038584E-01
 2.763876915E-01 4.669884965E-02 -3.386338544E-01
 2.636566162E-01 4.588722065E-02 -3.352896999E-01
 2.511831596E-01 4.504096508E-02 -3.301939797E-01
 2.381370440E-01 4.408863746E-02 -3.209029262E-01
 2.253244445E-01 4.310019687E-02 -3.158292679E-01
 2.132545263E-01 4.211792722E-02 -3.107180378E-01
 2.017860860E-01 4.113043472E-02 -3.048721037E-01
 1.898976490E-01 4.005263746E-02 -2.988596877E-01
 1.775419563E-01 3.887489066E-02 -2.929858743E-01
 1.656706333E-01 3.767924756E-02 -2.871167550E-01
 1.537420675E-01 3.641217574E-02 -2.785860147E-01
 1.422677338E-01 3.513690084E-02 -2.766059430E-01
 1.310843602E-01 3.382482380E-02 -2.704200723E-01
 1.194474399E-01 3.237889335E-02 -2.629565641E-01
 1.082489826E-01 3.091054875E-02 -2.596300834E-01
 8.731020242E-02 2.790870890E-02 -2.488875511E-01
 7.571263984E-02 2.607145812E-02 -2.428137728E-01
 7.068224251E-02 -2.940029372E-02 -1.648164268E-01
 8.082358912E-02 -3.119019140E-02 -1.762769696E-01
 9.117104858E-02 -3.288871609E-02 -1.845072024E-01
 1.018240862E-01 -3.452636488E-02 -1.972812047E-01
 1.130931638E-01 -3.614457324E-02 -2.046483687E-01
 1.247005276E-01 -3.771459498E-02 -2.172125173E-01
 1.358586624E-01 -3.913543373E-02 -2.258964329E-01
 1.467443258E-01 -4.044656269E-02 -2.354268615E-01
 1.580686569E-01 -4.173466563E-02 -2.433786024E-01
 1.698748022E-01 -4.300804250E-02 -2.538074976E-01
 1.818537861E-01 -4.422691278E-02 -2.646330491E-01
 1.933081821E-01 -4.532509111E-02 -2.753270138E-01
 2.043090761E-01 -4.631750286E-02 -2.835330640E-01
 2.162346467E-01 -4.732703790E-02 -2.940882124E-01
 2.291787490E-01 -4.834345728E-02 -3.049927380E-01
 2.422002256E-01 -4.928820767E-02 -3.169660981E-01
 2.551259175E-01 -5.013915338E-02 -3.291434976E-01
 2.674577683E-01 -5.086994544E-02 -3.386723099E-01
 2.799149305E-01 -5.152457580E-02 -3.473371632E-01
 2.932923585E-01 -5.213856138E-02 -3.598079957E-01
 3.065415770E-01 -5.264626071E-02 -3.717346367E-01
 3.189986050E-01 -5.302235484E-02 -3.820861325E-01
 3.310327977E-01 -5.328224972E-02 -3.849582820E-01
 3.427196443E-01 -5.345149711E-02 -3.919226121E-01
 3.539400101E-01 -5.352987349E-02 -3.983742014E-01
 3.651309758E-01 -5.351425335E-02 -4.043016576E-01
 3.759485781E-01 -5.340022221E-02 -4.044256236E-01
 3.868807405E-01 -5.319031142E-02 -4.003698122E-01
 3.987280279E-01 -5.286507122E-02 -3.997185228E-01
 4.110149145E-01 -5.240051076E-02 -3.976071786E-01
 4.236344844E-01 -5.178091861E-02 -3.820451889E-01
 4.364820570E-01 -5.102264695E-02 -3.713690108E-01
 4.491384178E-01 -5.014730245E-02 -3.547313142E-01
 4.616339654E-01 -4.916097969E-02 -3.388722370E-01
 4.739677459E-01 -4.806520231E-02 -3.156500149E-01
 4.858511537E-01 -4.691263661E-02 -2.938181855E-01
 4.975646883E-01 -4.568606988E-02 -2.700852012E-01
 5.103264153E-01 -4.426058941E-02 -2.429432538E-01
 5.238669217E-01 -4.265879840E-02 -2.156553129E-01
 5.374499857E-01 -4.096629843E-02 -1.846061038E-01
 5.509596467E-01 -3.922547027E-02 -1.540102200E-01
 5.638531744E-01 -3.753890470E-02 -1.311048468E-01
 5.764755905E-01 -3.584339842E-02 -1.102267836E-01
 5.887461007E-01 -3.416308388E-02 -8.179254494E-02
 6.004031897E-01 -3.256380372E-02 -6.431339488E-02
 6.128603220E-01 -3.084140178E-02 -4.398443642E-02
 6.263675690E-01 -2.895261906E-02 -2.088142591E-02
 6.400103867E-01 -2.705284394E-02 3.584147287E-03
 6.534836292E-01 -2.519503143E-02 1.916957373E-02
 6.667834222E-01 -2.335630544E-02 3.980072129E-02
 6.794526577E-01 -2.162075415E-02 5.894640555E-02
 6.917747557E-01 -1.995073911E-02 7.428546228E-02
 7.049576044E-01 -1.818472892E-02 9.403104128E-02
 7.183272839E-01 -1.644317387E-02 1.102089867E-01
 7.305546403E-01 -1.487934869E-02 1.202289268E-01
 7.420637310E-01 -1.340525690E-02 1.384822601E-01
 7.539561689E-01 -1.192881539E-02 1.560857465E-01
 7.663186789E-01 -1.044931496E-02 1.664436614E-01
 7.781221867E-01 -9.066282772E-03 1.822556114E-01
 7.899840474E-01 -7.733129663E-03 1.956891140E-01
 8.018436134E-01 -6.458339049E-03 2.075303643E-01
 8.132414520E-01 -5.276288372E-03 2.193841663E-01
 8.253169656E-01 -4.085970111E-03 2.354829387E-01
 8.378906548E-01 -2.945999615E-03 2.480256173E-01
 8.501983881E-01 -1.924034907E-03 2.579715299E-01
 8.627465069E-01 -9.887757187E-04 2.684576683E-01
 8.755402863E-01 -1.489550705E-04 2.775193431E-01
 8.888416588E-01 5.784765744E-04 2.860132427E-01
 9.011772871E-01 1.116134517E-03 2.924540233E-01
 9.116088450E-01 1.457175356E-03 2.919091345E-01
 9.414604008E-01 1.892042288E-03 2.884397498E-01
 9.547562301E-01 1.838831871E-03 2.861135306E-01
 9.690561295E-01 1.613468106E-03 2.818832583E-01
 9.829096496E-01 1.240521320E-03 2.828910389E-01
 9.947506785E-01 7.768293144E-04 3.271874819E-01
 -5.000000000E-01 9.500000000E-01 -3.566804984E-05
 -5.000000000E-01 9.000000000E-01 3.562649266E-04
 -5.000000000E-01 8.500000000E-01 1.156046544E-03
 -5.000000000E-01 8.000000000E-01 2.476635539E-03
 -5.000000000E-01 7.500000000E-01 4.334200825E-03
 -5.000000000E-01 7.000000000E-01 6.755176342E-03
 -5.000000000E-01 6.500000000E-01 9.901354525E-03
 -5.000000000E-01 6.000000000E-01 1.356999540E-02
 -5.000000000E-01 5.500000000E-01 1.800108269E-02
 -5.000000000E-01 5.000000000E-01 2.301580416E-02
 -5.000000000E-01 4.500000000E-01 2.868764431E-02
 -5.000000000E-01 4.000000000E-01 3.487340266E-02
 -5.000000000E-01 3.500000000E-01 4.151849655E-02
 -5.000000000E-01 3.000000000E-01 4.835237185E-02
 -5.000000000E-01 2.500000000E-01 5.525445807E-02
 -5.000000000E-01 2.000000000E-01 6.195512689E-02
 -5.000000000E-01 1.500000000E-01 6.791293016E-02
 -5.000000000E-01 1.000000000E-01 7.304717331E-02
 -5.000000000E-01 5.000000000E-02 7.696857313E-02
 -5.000000000E-01 2.752242878E-12 7.952033853E-02
 -5.000000000E-01 -5.000000000E-02 8.046532862E-02
 -5.000000000E-01 -1.000000000E-01 7.993983367E-02
 -5.000000000E-01 -1.500000000E-01 7.794252562E-02
 -5.000000000E-01 -2.000000000E-01 7.478789808E-02
 -5.000000000E-01 -2.500000000E-01 7.102085259E-02
 -5.000000000E-01 -3.000000000E-01 6.625041424E-02
 -5.000000000E-01 -3.500000000E-01 6.140992486E-02
 -5.000000000E-01 -4.000000000E-01 5.637934812E-02
 -5.000000000E-01 -4.500000000E-01 5.142235592E-02
 -5.000000000E-01 -5.000000000E-01 4.672339684E-02
 -5.000000000E-01 -5.500000000E-01 4.221692217E-02
 -5.000000000E-01 -6.000000000E-01 3.807154471E-02
 -5.000000000E-01 -6.500000000E-01 3.427126467E-02
 -5.000000000E-01 -7.000000000E-01 3.079144992E-02
 -5.000000000E-01 -7.500000000E-01 2.753456209E-02
 -5.000000000E-01 -8.000000000E-01 2.450462102E-02
 -5.000000000E-01 -8.500000000E-01 2.147948009E-02
 -5.000000000E-01 -9.000000000E-01 1.820869156E-02
 -5.000000000E-01 -9.500000000E-01 1.351565123E-02
 -4.500000000E-01 -1.000000000E+00 1.234068872E-02
 -4.000000000E-01 -1.000000000E+00 1.597102587E-02
 -3.500000000E-01 -1.000000000E+00 1.755915121E-02
 -3.000000000E-01 -1.000000000E+00 1.821233756E-02
 -2.500000000E-01 -1.000000000E+00 1.828968605E-02
 -2.000000000E-01 -1.000000000E+00 1.770127920E-02
 -1.500000000E-01 -1.000000000E+00 1.656770341E-02
 -1.000000000E-01 -1.000000000E+00 1.492942403E-02
 -5.000000000E-02 -1.000000000E+00 1.283502190E-02
 -9.424683256E-13 -1.000000000E+00 1.027398230E-02
 5.000000000E-02 -1.000000000E+00 7.335279340E-03
 1.000000000E-01 -1.000000000E+00 4.436721802E-03
 1.500000000E-01 -1.000000000E+00 1.525103671E-03
 2.000000000E-01 -1.000000000E+00 -1.314146612E-03
 2.500000000E-01 -1.000000000E+00 -3.948187059E-03
 3.000000000E-01 -1.000000000E+00 -6.220882831E-03
 3.500000000E-01 -1.000000000E+00 -7.999638706E-03
 4.000000000E-01 -1.000000000E+00 -9.212892263E-03
 4.500000000E-01 -1.000000000E+00 -9.755185493E-03
 5.000000000E-01 -1.000000000E+00 -9.687828003E-03
 5.500000000E-01 -1.000000000E+00 -9.007202504E-03
 6.000000000E-01 -1.000000000E+00 -7.648886724E-03
 6.500000000E-01 -1.000000000E+00 -5.796121285E-03
 7.000000000E-01 -1.000000000E+00 -3.471872589E-03
 7.500000000E-01 -1.000000000E+00 -7.773015530E-04
 8.000000000E-01 -1.000000000E+00 2.130872949E-03
 8.500000000E-01 -1.000000000E+00 5.145092879E-03
 9.000000000E-01 -1.000000000E+00 8.161367438E-03
 9.500000000E-01 -1.000000000E+00 1.119043382E-02
 1.000000000E+00 -1.000000000E+00 1.398999390E-02
 1.050000000E+00 -1.000000000E+00 1.655560795E-02
 1.100000000E+00 -1.000000000E+00 1.882462024E-02
 1.150000000E+00 -1.000000000E+00 2.077505670E-02
 1.200000000E+00 -1.000000000E+00 2.247153184E-02
 1.250000000E+00 -1.000000000E+00 2.381768894E-02
 1.300000000E+00 -1.000000000E+00 2.488731938E-02
 1.350000000E+00 -1.000000000E+00 2.566167957E-02
 1.400000000E+00 -1.000000000E+00 2.619693261E-02
 1.450000000E+00 -1.000000000E+00 2.650355000E-02
 1.500000000E+00 -1.000000000E+00 2.662130162E-02
 1.550000000E+00 -1.000000000E+00 2.656526515E-02
 1.600000000E+00 -1.000000000E+00 2.637306971E-02
 1.650000000E+00 -1.000000000E+00 2.607483471E-02
 1.700000000E+00 -1.000000000E+00 2.566167091E-02
 1.750000000E+00 -1.000000000E+00 2.520804127E-02
 1.800000000E+00 -1.000000000E+00 2.467452017E-02
 1.850000000E+00 -1.000000000E+00 2.411979782E-02
 1.900000000E+00 -1.000000000E+00 2.353292675E-02
 1.950000000E+00 -1.000000000E+00 2.294601893E-02
 2.000000000E+00 -1.000000000E+00 2.234192082E-02
 2.050000000E+00 -1.000000000E+00 2.175807687E-02
 2.100000000E+00 -1.000000000E+00 2.117343244E-02
 2.150000000E+00 -1.000000000E+00 2.059622272E-02
 2.200000000E+00 -1.000000000E+00 2.008366944E-02
 2.250000000E+00 -1.000000000E+00 1.954150774E-02
 2.300000000E+00 -1.000000000E+00 1.906166716E-02
 2.350000000E+00 -1.000000000E+00 1.857300958E-02
 2.400000000E+00 -1.000000000E+00 1.811407006E-02
 2.450000000E+00 -1.000000000E+00 1.774079791E-02
 2.500000000E+00 -1.000000000E+00 1.731828401E-02
 2.550000000E+00 -1.000000000E+00 1.697030029E-02
 2.600000000E+00 -1.000000000E+00 1.664776529E-02
 2.650000000E+00 -1.000000000E+00 1.634867005E-02
 2.700000000E+00 -1.000000000E+00 1.606611207E-02
 2.750000000E+00 -1.000000000E+00 1.580026640E-02
 2.800000000E+00 -1.000000000E+00 1.555442125E-02
 2.850000000E+00 -1.000000000E+00 1.532659630E-02
 2.900000000E+00 -1.000000000E+00 1.512674471E-02
 2.950000000E+00 -1.000000000E+00 1.491177742E-02
 3.000000000E+00 -1.000000000E+00 1.470464820E-02
 3.050000000E+00 -1.000000000E+00 1.446329778E-02
 3.100000000E+00 -1.000000000E+00 1.420512467E-02
 3.150000000E+00 -1.000000000E+00 1.389898306E-02
 3.200000000E+00 -1.000000000E+00 1.351954351E-02
 3.250000000E+00 -1.000000000E+00 1.303550670E-02
 3.300000000E+00 -1.000000000E+00 1.239257032E-02
 3.350000000E+00 -1.000000000E+00 1.153291457E-02
 3.400000000E+00 -1.000000000E+00 1.023086802E-02
 3.450000000E+00 -1.000000000E+00 8.130856144E-03
 3.500000000E+00 -9.500000000E-01 5.109720093E-03
 3.500000000E+00 -9.000000000E-01 6.264584511E-03
 3.500000000E+00 -8.500000000E-01 7.392647988E-03
 3.500000000E+00 -8.000000000E-01 8.478346198E-03
 3.500000000E+00 -7.500000000E-01 9.555826307E-03
 3.500000000E+00 -7.000000000E-01 1.071035864E-02
 3.500000000E+00 -6.500000000E-01 1.191906199E-02
 3.500000000E+00 -6.000000000E-01 1.324917771E-02
 3.500000000E+00 -5.500000000E-01 1.464496660E-02
 3.500000000E+00 -5.000000000E-01 1.614827865E-02
 3.500000000E+00 -4.500000000E-01 1.781195366E-02
 3.500000000E+00 -4.000000000E-01 1.955228241E-02
 3.500000000E+00 -3.500000000E-01 2.132842898E-02
 3.500000000E+00 -3.000000000E-01 2.306699644E-02
 3.500000000E+00 -2.500000000E-01 2.438261312E-02
 3.500000000E+00 -2.000000000E-01 2.493234680E-02
 3.500000000E+00 -1.500000000E-01 2.470265837E-02
 3.500000000E+00 -1.000000000E-01 2.392481568E-02
 3.500000000E+00 -5.000000000E-02 2.309832486E-02
 3.500000000E+00 -2.752242878E-12 2.264866158E-02
 3.500000000E+00 5.000000000E-02 2.247530916E-02
 3.500000000E+00 1.000000000E-01 2.218069084E-02
 3.500000000E+00 1.500000000E-01 2.128352028E-02
 3.500000000E+00 2.000000000E-01 1.960272916E-02
 3.500000000E+00 2.500000000E-01 1.735852822E-02
 3.500000000E+00 3.000000000E-01 1.488343650E-02
 3.500000000E+00 3.500000000E-01 1.264976650E-02
 3.500000000E+00 4.000000000E-01 1.034854999E-02
 3.500000000E+00 4.500000000E-01 8.398818103E-03
 3.500000000E+00 5.000000000E-01 6.576659724E-03
 3.500000000E+00 5.500000000E-01 4.985317013E-03
 3.500000000E+00 6.000000000E-01 3.839977140E-03
 3.500000000E+00 6.500000000E-01 3.264442564E-03
 3.500000000E+00 7.000000000E-01 3.067680005E-03
 3.500000000E+00 7.500000000E-01 2.550921940E-03
 3.500000000E+00 8.000000000E-01 9.087345145E-04
 3.500000000E+00 8.500000000E-01 -2.168752640E-03
 3.500000000E+00 9.000000000E-01 -6.655449288E-03
 3.500000000E+00 9.500000000E-01 -1.297193105E-02
 3.450000000E+00 1.000000000E+00 -7.557976918E-03
 3.400000000E+00 1.000000000E+00 -2.766167783E-03
 3.350000000E+00 1.000000000E+00 -4.459513908E-04
 3.300000000E+00 1.000000000E+00 7.294206312E-04
 3.250000000E+00 1.000000000E+00 1.040034709E-03
 3.200000000E+00 1.000000000E+00 1.641076562E-03
 3.150000000E+00 1.000000000E+00 1.428945216E-03
 3.100000000E+00 1.000000000E+00 1.408744073E-03
 3.050000000E+00 1.000000000E+00 1.144610987E-03
 3.000000000E+00 1.000000000E+00 8.379349852E-04
 2.950000000E+00 1.000000000E+00 4.718449567E-04
 2.900000000E+00 1.000000000E+00 -1.589401819E-05
 2.850000000E+00 1.000000000E+00 -5.173102904E-04
 2.800000000E+00 1.000000000E+00 -1.089010246E-03
 2.750000000E+00 1.000000000E+00 -1.751766620E-03
 2.700000000E+00 1.000000000E+00 -2.398317708E-03
 2.650000000E+00 1.000000000E+00 -3.053595817E-03
 2.600000000E+00 1.000000000E+00 -3.890471879E-03
 2.550000000E+00 1.000000000E+00 -4.685381142E-03
 2.500000000E+00 1.000000000E+00 -5.620875550E-03
 2.450000000E+00 1.000000000E+00 -6.688420250E-03
 2.400000000E+00 1.000000000E+00 -7.597173235E-03
 2.350000000E+00 1.000000000E+00 -8.677199539E-03
 2.300000000E+00 1.000000000E+00 -9.783498743E-03
 2.250000000E+00 1.000000000E+00 -1.102075527E-02
 2.200000000E+00 1.000000000E+00 -1.221196260E-02
 2.150000000E+00 1.000000000E+00 -1.376258117E-02
 2.100000000E+00 1.000000000E+00 -1.503240528E-02
 2.050000000E+00 1.000000000E+00 -1.680009022E-02
 2.000000000E+00 1.000000000E+00 -1.852813774E-02
 1.950000000E+00 1.000000000E+00 -2.027875123E-02
 1.900000000E+00 1.000000000E+00 -2.212087829E-02
 1.850000000E+00 1.000000000E+00 -2.409562110E-02
 1.800000000E+00 1.000000000E+00 -2.629423348E-02
 1.750000000E+00 1.000000000E+00 -2.881346440E-02
 1.700000000E+00 1.000000000E+00 -3.126508272E-02
 1.650000000E+00 1.000000000E+00 -3.415174087E-02
 1.600000000E+00 1.000000000E+00 -3.698536747E-02
 1.550000000E+00 1.000000000E+00 -4.052302334E-02
 1.500000000E+00 1.000000000E+00 -4.338859518E-02
 1.450000000E+00 1.000000000E+00 -4.713938659E-02
 1.400000000E+00 1.000000000E+00 -5.064166576E-02
 1.350000000E+00 1.000000000E+00 -5.485960372E-02
 1.300000000E+00 1.000000000E+00 -5.830409223E-02
 1.250000000E+00 1.000000000E+00 -6.267532234E-02
 1.200000000E+00 1.000000000E+00 -6.698963166E-02
 1.150000000E+00 1.000000000E+00 -7.101545961E-02
 1.100000000E+00 1.000000000E+00 -7.521057950E-02
 1.050000000E+00 1.000000000E+00 -7.862601538E-02
 1.000000000E+00 1.000000000E+00 -8.237602546E-02
 9.500000000E-01 1.000000000E+00 -8.575907414E-02
 9.000000000E-01 1.000000000E+00 -8.852907980E-02
 8.500000000E-01 1.000000000E+00 -9.044504597E-02
 8.000000000E-01 1.000000000E+00 -9.253058080E-02
 7.500000000E-01 1.000000000E+00 -9.246233257E-02
 7.000000000E-01 1.000000000E+00 -9.318489571E-02
 6.500000000E-01 1.000000000E+00 -9.220832561E-02
 6.000000000E-01 1.000000000E+00 -8.962718384E-02
 5.500000000E-01 1.000000000E+00 -8.739095141E-02
 5.000000000E-01 1.000000000E+00 -8.400392544E-02
 4.500000000E-01 1.000000000E+00 -7.954612459E-02
 4.000000000E-01 1.000000000E+00 -7.491019634E-02
 3.500000000E-01 1.000000000E+00 -6.933324994E-02
 3.000000000E-01 1.000000000E+00 -6.319277132E-02
 2.500000000E-01 1.000000000E+00 -5.696736340E-02
 2.000000000E-01 1.000000000E+00 -5.064877575E-02
 1.500000000E-01 1.000000000E+00 -4.418520264E-02
 1.000000000E-01 1.000000000E+00 -3.785813848E-02
 5.000000000E-02 1.000000000E+00 -3.174734606E-02
 1.733724275E-12 1.000000000E+00 -2.601927920E-02
 -5.000000000E-02 1.000000000E+00 -2.081683850E-02
 -1.000000000E-01 1.000000000E+00 -1.621366360E-02
 -1.500000000E-01 1.000000000E+00 -1.203801751E-02
 -2.000000000E-01 1.000000000E+00 -8.544127224E-03
 -2.500000000E-01 1.000000000E+00 -5.684379962E-03
 -3.000000000E-01 1.000000000E+00 -3.485982265E-03
 -3.500000000E-01 1.000000000E+00 -1.843294015E-03
 -4.000000000E-01 1.000000000E+00 -8.224389669E-04
 -4.500000000E-01 1.000000000E+00 -2.742357354E-04
 9.857742828E-01 -4.324262798E-03 2.799471816E-01
 8.987708299E-01 -4.331809179E-03 2.829029433E-01
 8.167439545E-01 -1.050896970E-02 2.201322652E-01
 7.398438592E-01 -1.871135078E-02 1.318535645E-01
 6.718005370E-01 -2.838501343E-02 4.555105753E-02
 6.042445800E-01 -3.745230027E-02 -5.804013780E-02
 5.415604425E-01 -4.606589466E-02 -1.723473312E-01
 4.775406480E-01 -5.292393392E-02 -3.008126020E-01
 4.206832975E-01 -5.717161805E-02 -3.751241677E-01
 3.625966351E-01 -5.789581439E-02 -3.937012260E-01
 3.027595775E-01 -5.854507238E-02 -3.587651230E-01
 2.382765610E-01 -5.448568011E-02 -3.065501728E-01
 1.784028853E-01 -4.894288665E-02 -2.558100671E-01