TITLE     = "Visualization of the solution"
VARIABLES = "x"
"y"
"Pressure_Coefficient"
ZONE T="Zone"
 STRANDID=0, SOLUTIONTIME=0
 Nodes=11838, Elements=23095, ZONETYPE=FEQuadrilateral
 DATAPACKING=POINT
 DT=(DOUBLE DOUBLE DOUBLE )
 9.999222755E-01 5.128252087E-04 2.579486470E-01
 9.873035550E-01 3.081970848E-03 2.149306772E-01
 9.748499393E-01 5.707211792E-03 1.312161353E-01
 9.582954049E-01 9.118335322E-03 7.319773724E-02
 9.434360266E-01 1.215760503E-02 3.707765118E-02
 9.295487404E-01 1.505522244E-02 -1.662443127E-02
 9.177722931E-01 1.739356294E-02 -2.897283010E-02
 9.064725041E-01 1.969800331E-02 -6.699691707E-02
 8.949302435E-01 2.199518494E-02 -9.001780432E-02
 8.834897280E-01 2.428667434E-02 -1.371155190E-01
 8.710215092E-01 2.659290843E-02 -1.411053585E-01
 8.585391641E-01 2.890430018E-02 -1.631571271E-01
 8.463091254E-01 3.112430312E-02 -1.813580805E-01
 8.355594277E-01 3.306567296E-02 -2.087781325E-01
 8.239220977E-01 3.508120775E-02 -2.203600491E-01
 8.113496304E-01 3.723141178E-02 -2.423538304E-01
 7.985819578E-01 3.933683783E-02 -2.552769326E-01
 7.860972285E-01 4.135796800E-02 -2.663736806E-01
 7.741652131E-01 4.329714552E-02 -2.964865214E-01
 7.627387643E-01 4.507478699E-02 -3.101017789E-01
 7.497274876E-01 4.704222828E-02 -3.242831517E-01
 7.361512780E-01 4.904622957E-02 -3.430345226E-01
 7.255236506E-01 5.057539418E-02 -3.598214881E-01
 7.144206762E-01 5.211699754E-02 -3.682823772E-01
 7.027857304E-01 5.371137708E-02 -3.870090744E-01
 6.895649433E-01 5.545825511E-02 -4.044937916E-01
 6.768645644E-01 5.708118156E-02 -4.235513015E-01
 6.665245295E-01 5.835673958E-02 -4.399737044E-01
 6.547973752E-01 5.973846838E-02 -4.517597984E-01
 6.430852413E-01 6.107453257E-02 -4.750535737E-01
 6.311554909E-01 6.232769042E-02 -4.777176057E-01
 6.194772124E-01 6.351660192E-02 -4.941257445E-01
 6.088767648E-01 6.453091651E-02 -4.992275164E-01
 5.969099998E-01 6.564603001E-02 -5.260539280E-01
 5.853147507E-01 6.660509855E-02 -5.250014986E-01
 5.719807148E-01 6.764890254E-02 -5.374538407E-01
 5.594350696E-01 6.854537129E-02 -5.471674020E-01
 5.471474528E-01 6.934516132E-02 -5.610673935E-01
 5.361340046E-01 6.996189803E-02 -5.531897121E-01
 5.245596170E-01 7.058685273E-02 -5.724808451E-01
 5.121790171E-01 7.111294568E-02 -5.588381553E-01
 5.012306571E-01 7.156430930E-02 -5.730043206E-01
 4.879579842E-01 7.198207080E-02 -5.668545624E-01
 4.746010005E-01 7.233569026E-02 -5.710324509E-01
 4.607754350E-01 7.259632647E-02 -5.715320778E-01
 4.473979771E-01 7.274474204E-02 -5.663057433E-01
 4.347400367E-01 7.281022519E-02 -5.587817749E-01
 4.222708046E-01 7.283763587E-02 -5.687666096E-01
 4.097279012E-01 7.275650650E-02 -5.630386283E-01
 3.972462118E-01 7.260033488E-02 -5.572426526E-01
 3.850744367E-01 7.238587737E-02 -5.541642499E-01
 3.733655214E-01 7.211839408E-02 -5.523829836E-01
 3.600632250E-01 7.172705978E-02 -5.461918873E-01
 3.471767902E-01 7.127603889E-02 -5.420669452E-01
 3.337836564E-01 7.072531432E-02 -5.390981426E-01
 3.227478266E-01 7.020818442E-02 -5.340503388E-01
 3.099849522E-01 6.953835487E-02 -5.296752507E-01
 2.968452871E-01 6.876283139E-02 -5.238577165E-01
 2.828432918E-01 6.783987582E-02 -5.165792250E-01
 2.708223164E-01 6.698124111E-02 -5.164199324E-01
 2.587512136E-01 6.601995230E-02 -5.046284191E-01
 2.463469952E-01 6.496496499E-02 -4.986269072E-01
 2.339775562E-01 6.383343041E-02 -4.946096014E-01
 2.217696756E-01 6.262524426E-02 -4.888162782E-01
 2.096493989E-01 6.132695824E-02 -4.792809309E-01
 1.977293640E-01 5.995812267E-02 -4.668987165E-01
 1.853603423E-01 5.845757201E-02 -4.641107151E-01
 1.735278070E-01 5.690119416E-02 -4.507201500E-01
 1.620210409E-01 5.530118942E-02 -4.413475807E-01
 1.502835304E-01 5.356395617E-02 -4.349435607E-01
 1.396142989E-01 5.186647549E-02 -4.192239522E-01
 1.280498952E-01 4.991452023E-02 -4.048138847E-01
 1.168643385E-01 4.791400582E-02 -3.974680986E-01
 1.063367948E-01 4.588239640E-02 -3.766403216E-01
 9.663940966E-02 4.390205815E-02 -3.618097496E-01
 8.591556549E-02 4.156752303E-02 -3.459286511E-01
 7.454635203E-02 3.888065368E-02 -3.188382073E-01
 6.476711482E-02 3.637830913E-02 -2.964708240E-01
 5.497879535E-02 3.366044909E-02 -2.705122436E-01
 4.630093649E-02 3.104755655E-02 -2.347673663E-01
 3.874701634E-02 2.855321765E-02 -2.001280839E-01
 3.207765892E-02 2.616344579E-02 -1.641330379E-01
 2.632514760E-02 2.390605770E-02 -1.336435195E-01
 2.207389101E-02 2.209466882E-02 -8.921127442E-02
 1.798883826E-02 2.019758150E-02 -4.981120354E-02
 1.474073809E-02 1.856132038E-02 -6.124682539E-04
 1.175825577E-02 1.691405848E-02 4.202460352E-02
 9.586053900E-03 1.560503989E-02 9.343818111E-02
 7.660849951E-03 1.434676070E-02 1.314375389E-01
 5.932551809E-03 1.311065070E-02 2.121489615E-01
 3.713315586E-03 1.130628772E-02 3.189659379E-01
 1.817657962E-03 9.462545626E-03 4.179236306E-01
 2.569775388E-04 7.550525945E-03 6.589871760E-01
 -1.237107324E-03 4.842506256E-03 9.067057645E-01
 -1.798389712E-03 2.850771183E-03 1.051872065E+00
 -1.922444324E-03 1.258849632E-03 1.109922971E+00
 -1.737873419E-03 -4.305787734E-04 1.089280413E+00
 -1.250834088E-03 -2.102833008E-03 9.959361049E-01
 -2.401946549E-04 -4.150225781E-03 8.771654864E-01
 1.215896104E-03 -6.208671723E-03 6.849307564E-01
 3.213124815E-03 -8.356673643E-03 5.280206114E-01
 5.012087524E-03 -9.951402433E-03 3.950764008E-01
 7.052349392E-03 -1.152761839E-02 3.144302912E-01
 8.732213639E-03 -1.269016881E-02 2.308650170E-01
 1.083627716E-02 -1.401784178E-02 1.826680134E-01
 1.322166249E-02 -1.539453957E-02 1.227460464E-01
 1.647886448E-02 -1.709302329E-02 6.582495621E-02
 1.938700862E-02 -1.847806945E-02 1.075532687E-02
 2.321149968E-02 -2.014192380E-02 -2.550570716E-02
 2.855985798E-02 -2.224541642E-02 -6.576212904E-02
 3.434661031E-02 -2.429483645E-02 -1.107417456E-01
 4.124654084E-02 -2.649007179E-02 -1.341530689E-01
 4.876722768E-02 -2.867091261E-02 -1.622908531E-01
 5.769639835E-02 -3.101268224E-02 -1.833510518E-01
 6.634104252E-02 -3.307780623E-02 -2.038459931E-01
 7.638505101E-02 -3.529323637E-02 -2.173592052E-01
 8.636066318E-02 -3.731977195E-02 -2.306847529E-01
 9.669160843E-02 -3.926634043E-02 -2.416047617E-01
 1.078348607E-01 -4.122836515E-02 -2.544754904E-01
 1.191609651E-01 -4.308751598E-02 -2.661579451E-01
 1.308834851E-01 -4.488163814E-02 -2.755717853E-01
 1.414202005E-01 -4.640825093E-02 -2.905432937E-01
 1.526236832E-01 -4.792353883E-02 -2.979001535E-01
 1.648180783E-01 -4.947738722E-02 -3.094231480E-01
 1.764630675E-01 -5.086761713E-02 -3.205165815E-01
 1.882816851E-01 -5.218856409E-02 -3.316980348E-01
 1.989594996E-01 -5.330806598E-02 -3.432814280E-01
 2.101584375E-01 -5.439947918E-02 -3.513216696E-01
 2.224163562E-01 -5.551267043E-02 -3.627230701E-01
 2.348910421E-01 -5.655230954E-02 -3.746148390E-01
 2.469500750E-01 -5.746318400E-02 -3.850101404E-01
 2.591058910E-01 -5.828692392E-02 -3.932448439E-01
 2.702561915E-01 -5.897454917E-02 -4.080816078E-01
 2.827569544E-01 -5.963271484E-02 -4.139940771E-01
 2.949003279E-01 -6.017829478E-02 -4.256112590E-01
 3.078249693E-01 -6.063341349E-02 -4.290481886E-01
 3.197492361E-01 -6.095520779E-02 -4.358437145E-01
 3.326650858E-01 -6.119991094E-02 -4.451101344E-01
 3.436323404E-01 -6.129897013E-02 -4.507815487E-01
 3.551931977E-01 -6.128544360E-02 -4.474907088E-01
 3.661752343E-01 -6.118615717E-02 -4.517780107E-01
 3.770520091E-01 -6.096962094E-02 -4.433709236E-01
 3.889352977E-01 -6.063526869E-02 -4.401228357E-01
 4.024786949E-01 -6.010531262E-02 -4.296543011E-01
 4.150098562E-01 -5.947763473E-02 -4.190221633E-01
 4.277373254E-01 -5.869946629E-02 -4.008611683E-01
 4.404683113E-01 -5.781041086E-02 -3.888399836E-01
 4.527328908E-01 -5.681776255E-02 -3.688847765E-01
 4.647117257E-01 -5.571869761E-02 -3.407869854E-01
 4.769855738E-01 -5.451871827E-02 -3.231817994E-01
 4.887596369E-01 -5.325007811E-02 -2.927500232E-01
 5.015454888E-01 -5.179996789E-02 -2.668587785E-01
 5.155014396E-01 -5.014054477E-02 -2.435326520E-01
 5.287907124E-01 -4.844135791E-02 -2.081810783E-01
 5.418317318E-01 -4.672590271E-02 -1.814834580E-01
 5.544922948E-01 -4.500884190E-02 -1.532689967E-01
 5.681470037E-01 -4.314508289E-02 -1.346039917E-01
 5.810263753E-01 -4.131408036E-02 -1.045729237E-01
 5.935076475E-01 -3.952013329E-02 -8.113716896E-02
 6.064249873E-01 -3.765817359E-02 -6.158234438E-02
 6.206933260E-01 -3.556070477E-02 -3.331516179E-02
 6.348601580E-01 -3.347234428E-02 -7.451040466E-03
 6.496570110E-01 -3.132653236E-02 9.135896975E-03
 6.625099778E-01 -2.944785543E-02 2.877396202E-02
 6.756578684E-01 -2.750899643E-02 5.288080605E-02
 6.879318357E-01 -2.572773024E-02 6.966271716E-02
 7.002221346E-01 -2.396426350E-02 8.638643279E-02
 7.149530053E-01 -2.188153937E-02 1.030224872E-01
 7.280711532E-01 -2.004590258E-02 1.186143758E-01
 7.397414446E-01 -1.839801669E-02 1.416099772E-01
 7.533947825E-01 -1.654377766E-02 1.559232406E-01
 7.659376264E-01 -1.488558296E-02 1.689828388E-01
 7.792092562E-01 -1.312995050E-02 1.919383710E-01
 7.913854718E-01 -1.161155477E-02 2.003771969E-01
 8.043496013E-01 -1.000319049E-02 2.199498320E-01
 8.154121041E-01 -8.692631498E-03 2.316529362E-01
 8.265292048E-01 -7.385205012E-03 2.540369836E-01
 8.396549821E-01 -5.993225612E-03 2.588053980E-01
 8.516991138E-01 -4.729307722E-03 2.816378983E-01
 8.639818430E-01 -3.574755276E-03 2.904549914E-01
 8.749104142E-01 -2.614114899E-03 3.056316338E-01
 8.863044977E-01 -1.724143745E-03 3.151423288E-01
 8.988363147E-01 -8.690485847E-04 3.245261868E-01
 9.088619351E-01 -2.937894315E-04 3.319662014E-01
 9.192911983E-01 2.003132977E-04 3.361919353E-01
 9.288039207E-01 5.566572072E-04 3.385114756E-01
 9.373921156E-01 8.080495172E-04 3.437490577E-01
 9.491050243E-01 1.023118035E-03 3.432442558E-01
 9.616500735E-01 1.118815155E-03 3.465907784E-01
 9.761501551E-01 1.050303457E-03 3.541717535E-01
 9.885370731E-01 8.290358237E-04 3.736014257E-01
 -5.000000000E-01 -1.000000000E+00 1.464684827E-02
 3.500000000E+00 -1.000000000E+00 8.836840697E-03
 3.500000000E+00 1.000000000E+00 -2.599904649E-02
 -5.000000000E-01 1.000000000E+00 -8.860039755E-04
 9.936129153E-01 1.797398028E-03 2.997578597E-01
 9.810767472E-01 4.394591320E-03 1.612120732E-01
 9.665726721E-01 7.412773557E-03 9.889258554E-02
 9.508657157E-01 1.063797018E-02 5.562341734E-02
 9.364923835E-01 1.360641373E-02 5.119024654E-03
 9.236605167E-01 1.622439269E-02 -1.915678038E-02
 9.121223986E-01 1.854578312E-02 -5.016447706E-02
 9.007013738E-01 2.084659413E-02 -7.703089952E-02
 8.892099857E-01 2.314092964E-02 -1.210572073E-01
 8.772556186E-01 2.543979138E-02 -1.347885402E-01
 8.647803366E-01 2.774860431E-02 -1.519026402E-01
 8.524241447E-01 3.001430165E-02 -1.711727576E-01
 8.409342766E-01 3.209498804E-02 -1.980479480E-01
 8.297407627E-01 3.407344036E-02 -2.134683874E-01
 8.176358640E-01 3.615630977E-02 -2.328762300E-01
 8.049657941E-01 3.828412481E-02 -2.481873280E-01
 7.923395932E-01 4.034740292E-02 -2.583832185E-01
 7.801312208E-01 4.232755676E-02 -2.841292015E-01
 7.684519887E-01 4.418596625E-02 -3.035786241E-01
 7.562331259E-01 4.605850764E-02 -3.166450745E-01
 7.429393828E-01 4.804422893E-02 -3.329042917E-01
 7.308374643E-01 4.981081188E-02 -3.527898584E-01
 7.199721634E-01 5.134619586E-02 -3.624978754E-01
 7.086032033E-01 5.291418731E-02 -3.788979063E-01
 6.961753368E-01 5.458481610E-02 -3.956181013E-01
 6.832147539E-01 5.626971833E-02 -4.133402920E-01
 6.716945469E-01 5.771896057E-02 -4.331656500E-01
 6.606609523E-01 5.904760398E-02 -4.446844168E-01
 6.489413083E-01 6.040650047E-02 -4.665115272E-01
 6.371203661E-01 6.170111150E-02 -4.742728608E-01
 6.253163517E-01 6.292214617E-02 -4.862696579E-01
 6.141769886E-01 6.402375922E-02 -4.949503791E-01
 6.028933823E-01 6.508847326E-02 -5.164171448E-01
 5.911123753E-01 6.612556428E-02 -5.243690639E-01
 5.786477327E-01 6.712700054E-02 -5.311972112E-01
 5.657078922E-01 6.809713691E-02 -5.423574171E-01
 5.532912612E-01 6.894526631E-02 -5.555538454E-01
 5.416407287E-01 6.965352967E-02 -5.531848224E-01
 5.303468108E-01 7.027437538E-02 -5.685597776E-01
 5.183693171E-01 7.084989920E-02 -5.604389041E-01
 5.067048371E-01 7.133862749E-02 -5.712438942E-01
 4.945943207E-01 7.177319005E-02 -5.686966722E-01
 4.812794924E-01 7.215888053E-02 -5.702491046E-01
 4.676882178E-01 7.246600837E-02 -5.719755822E-01
 4.540867060E-01 7.267053425E-02 -5.680080851E-01
 4.410690069E-01 7.277748361E-02 -5.598968910E-01
 4.285054207E-01 7.282393053E-02 -5.664942563E-01
 4.159993529E-01 7.279707119E-02 -5.659318281E-01
 4.034870565E-01 7.267842069E-02 -5.590382207E-01
 3.911603242E-01 7.249310613E-02 -5.551477810E-01
 3.792199790E-01 7.225213572E-02 -5.552271725E-01
 3.667143732E-01 7.192272693E-02 -5.485213571E-01
 3.536200076E-01 7.150154933E-02 -5.447303913E-01
 3.404802233E-01 7.100067660E-02 -5.389413763E-01
 3.282657415E-01 7.046674937E-02 -5.375964197E-01
 3.163663894E-01 6.987326965E-02 -5.324038295E-01
 3.034151196E-01 6.915059313E-02 -5.278563242E-01
 2.898442894E-01 6.830135360E-02 -5.182450970E-01
 2.768328041E-01 6.741055846E-02 -5.180820156E-01
 2.647867650E-01 6.650059670E-02 -5.097764912E-01
 2.525491044E-01 6.549245864E-02 -5.012949625E-01
 2.401622757E-01 6.439919770E-02 -4.971800621E-01
 2.278736159E-01 6.322933733E-02 -4.923106930E-01
 2.157095373E-01 6.197610125E-02 -4.840090330E-01
 2.036893815E-01 6.064254045E-02 -4.724952480E-01
 1.915448532E-01 5.920784734E-02 -4.670818180E-01
 1.794440746E-01 5.767938308E-02 -4.561317960E-01
 1.677744240E-01 5.610119179E-02 -4.465937660E-01
 1.561522856E-01 5.443257280E-02 -4.387297859E-01
 1.449489146E-01 5.271521583E-02 -4.280993168E-01
 1.338320971E-01 5.089049786E-02 -4.113109566E-01
 1.224571168E-01 4.891426302E-02 -4.024060183E-01
 1.116005667E-01 4.689820111E-02 -3.877868235E-01
 9.127748758E-02 4.273479059E-02 -3.578980904E-01
 8.023095876E-02 4.022408836E-02 -3.394457811E-01
 5.987295508E-02 3.501937911E-02 -2.885948571E-01
 7.136304677E-02 -3.418552130E-02 -2.113342407E-01
 8.137285709E-02 -3.630650416E-02 -2.262073183E-01
 9.152613580E-02 -3.829305619E-02 -2.366467590E-01
 1.022632346E-01 -4.024735279E-02 -2.475040437E-01
 1.134979129E-01 -4.215794057E-02 -2.611531359E-01
 1.250222251E-01 -4.398457706E-02 -2.717152683E-01
 1.361518428E-01 -4.564494453E-02 -2.836836420E-01
 1.470219418E-01 -4.716589488E-02 -2.944874047E-01
 1.587208807E-01 -4.870046303E-02 -3.027118789E-01
 1.706405729E-01 -5.017250217E-02 -3.156533069E-01
 1.823723763E-01 -5.152809061E-02 -3.259722458E-01
 1.936205924E-01 -5.274831504E-02 -3.381782406E-01
 2.045589685E-01 -5.385377258E-02 -3.475192899E-01
 2.162873968E-01 -5.495607480E-02 -3.558599910E-01
 2.286536992E-01 -5.603248999E-02 -3.687271406E-01
 2.409205586E-01 -5.700774677E-02 -3.801669996E-01
 2.530279830E-01 -5.787505396E-02 -3.893173252E-01
 2.646810412E-01 -5.863073654E-02 -4.001007109E-01
 2.765065730E-01 -5.930363201E-02 -4.105733513E-01
 2.888286412E-01 -5.990550481E-02 -4.194617947E-01
 3.013626486E-01 -6.040585414E-02 -4.273661722E-01
 3.137871027E-01 -6.079431064E-02 -4.329938209E-01
 3.262071609E-01 -6.107755937E-02 -4.388239532E-01
 3.381487131E-01 -6.124944054E-02 -4.506212815E-01
 3.494127691E-01 -6.129220687E-02 -4.496182361E-01
 3.606842160E-01 -6.123580039E-02 -4.489675076E-01
 3.716136217E-01 -6.107788906E-02 -4.490524860E-01
 3.829936534E-01 -6.080244482E-02 -4.401466027E-01
 3.957069963E-01 -6.037029065E-02 -4.341155605E-01
 4.087442756E-01 -5.979147367E-02 -4.254731198E-01
 4.213735908E-01 -5.908855051E-02 -4.107687374E-01
 4.341028184E-01 -5.825493857E-02 -3.938852934E-01
 4.466006011E-01 -5.731408671E-02 -3.808793849E-01
 4.587223083E-01 -5.626823008E-02 -3.576590812E-01
 4.708486497E-01 -5.511870794E-02 -3.307135084E-01
 4.828726053E-01 -5.388439819E-02 -3.108960717E-01
 4.951525629E-01 -5.252502300E-02 -2.790007720E-01
 5.085234642E-01 -5.097025633E-02 -2.539351925E-01
 5.221460760E-01 -4.929095134E-02 -2.288597701E-01
 5.353112221E-01 -4.758363031E-02 -1.945379687E-01
 5.481620133E-01 -4.586737230E-02 -1.679618657E-01
 5.613196492E-01 -4.407696240E-02 -1.423952097E-01
 5.745866895E-01 -4.222958162E-02 -1.216186363E-01
 5.872670114E-01 -4.041710682E-02 -9.297167372E-02
 5.999663174E-01 -3.858915344E-02 -7.029190365E-02
 6.135591567E-01 -3.660943918E-02 -4.872040303E-02
 6.277767420E-01 -3.451652452E-02 -2.080496439E-02
 6.422585845E-01 -3.239943832E-02 2.251026601E-03
 6.560834944E-01 -3.038719390E-02 1.875256590E-02
 6.690839231E-01 -2.847842593E-02 3.955957922E-02
 6.817948520E-01 -2.661836334E-02 6.179449998E-02
 6.940769851E-01 -2.484599687E-02 7.790276002E-02
 7.075875700E-01 -2.292290144E-02 9.482639495E-02
 7.215120792E-01 -2.096372098E-02 1.116179456E-01
 7.339062989E-01 -1.922195964E-02 1.287655230E-01
 7.465681136E-01 -1.747089718E-02 1.494208672E-01
 7.596662045E-01 -1.571468031E-02 1.633945650E-01
 7.725734413E-01 -1.400776673E-02 1.784417352E-01
 7.852973640E-01 -1.237075264E-02 1.983778989E-01
 7.978675365E-01 -1.080737263E-02 2.087049847E-01
 8.098808527E-01 -9.347910993E-03 2.269635236E-01
 8.209706545E-01 -8.038918255E-03 2.401788900E-01
 8.330920935E-01 -6.689215312E-03 2.576179088E-01
 8.456770480E-01 -5.361266667E-03 2.678870093E-01
 8.578404784E-01 -4.152031499E-03 2.871390776E-01
 8.694461286E-01 -3.094435087E-03 2.979745436E-01
 8.806074560E-01 -2.169129322E-03 3.100377502E-01
 8.925704062E-01 -1.296596165E-03 3.194271879E-01
 9.140765667E-01 -4.673806689E-05 3.346542444E-01
 9.432485700E-01 9.155837761E-04 3.429486237E-01
 9.553775489E-01 1.070966595E-03 3.436831611E-01
 9.689001143E-01 1.084559306E-03 3.473201310E-01
 9.823436141E-01 9.396696405E-04 3.608209704E-01
 9.942296743E-01 6.709305162E-04 4.398657639E-01
 -5.000000000E-01 9.500000000E-01 -1.071804705E-03
 -5.000000000E-01 9.000000000E-01 -7.901265680E-04
 -5.000000000E-01 8.500000000E-01 7.649295413E-05
 -5.000000000E-01 8.000000000E-01 1.827653839E-03
 -5.000000000E-01 7.500000000E-01 4.333621956E-03
 -5.000000000E-01 7.000000000E-01 7.642706409E-03
 -5.000000000E-01 6.500000000E-01 1.195011800E-02
 -5.000000000E-01 6.000000000E-01 1.707595566E-02
 -5.000000000E-01 5.500000000E-01 2.318098681E-02
 -5.000000000E-01 5.000000000E-01 3.032743694E-02
 -5.000000000E-01 4.500000000E-01 3.802201238E-02
 -5.000000000E-01 4.000000000E-01 4.676696789E-02
 -5.000000000E-01 3.500000000E-01 5.621186335E-02
 -5.000000000E-01 3.000000000E-01 6.544938605E-02
 -5.000000000E-01 2.500000000E-01 7.525764765E-02
 -5.000000000E-01 2.000000000E-01 8.436221067E-02
 -5.000000000E-01 1.500000000E-01 9.264122540E-02
 -5.000000000E-01 1.000000000E-01 9.967014685E-02
 -5.000000000E-01 5.000000000E-02 1.050877660E-01
 -5.000000000E-01 2.752242878E-12 1.086280461E-01
 -5.000000000E-01 -5.000000000E-02 1.098443888E-01
 -5.000000000E-01 -1.000000000E-01 1.092259493E-01
 -5.000000000E-01 -1.500000000E-01 1.067894568E-01
 -5.000000000E-01 -2.000000000E-01 1.027261974E-01
 -5.000000000E-01 -2.500000000E-01 9.751843125E-02
 -5.000000000E-01 -3.000000000E-01 9.154452402E-02
 -5.000000000E-01 -3.500000000E-01 8.510699838E-02
 -5.000000000E-01 -4.000000000E-01 7.857423810E-02
 -5.000000000E-01 -4.500000000E-01 7.206903197E-02
 -5.000000000E-01 -5.000000000E-01 6.588899690E-02
 -5.000000000E-01 -5.500000000E-01 5.995239695E-02
 -5.000000000E-01 -6.000000000E-01 5.450730728E-02
 -5.000000000E-01 -6.500000000E-01 4.944261959E-02
 -5.000000000E-01 -7.000000000E-01 4.469756839E-02
 -5.000000000E-01 -7.500000000E-01 4.028329057E-02
 -5.000000000E-01 -8.000000000E-01 3.603474634E-02
 -5.000000000E-01 -8.500000000E-01 3.180804315E-02
 -5.000000000E-01 -9.000000000E-01 2.704854717E-02
 -5.000000000E-01 -9.500000000E-01 2.010817273E-02
 -4.500000000E-01 -1.000000000E+00 1.843734072E-02
 -4.000000000E-01 -1.000000000E+00 2.382718195E-02
 -3.500000000E-01 -1.000000000E+00 2.636577000E-02
 -3.000000000E-01 -1.000000000E+00 2.770735310E-02
 -2.500000000E-01 -1.000000000E+00 2.814687281E-02
 -2.000000000E-01 -1.000000000E+00 2.768339547E-02
 -1.500000000E-01 -1.000000000E+00 2.655539675E-02
 -1.000000000E-01 -1.000000000E+00 2.467142620E-02
 -5.000000000E-02 -1.000000000E+00 2.222447220E-02
 -9.424683256E-13 -1.000000000E+00 1.936228574E-02
 5.000000000E-02 -1.000000000E+00 1.605045650E-02
 1.000000000E-01 -1.000000000E+00 1.259513007E-02
 1.500000000E-01 -1.000000000E+00 9.059358698E-03
 2.000000000E-01 -1.000000000E+00 5.623076324E-03
 2.500000000E-01 -1.000000000E+00 2.448886446E-03
 3.000000000E-01 -1.000000000E+00 -3.132430298E-04
 3.500000000E-01 -1.000000000E+00 -2.500073366E-03
 4.000000000E-01 -1.000000000E+00 -3.982887318E-03
 4.500000000E-01 -1.000000000E+00 -4.760973717E-03
 5.000000000E-01 -1.000000000E+00 -4.746454668E-03
 5.500000000E-01 -1.000000000E+00 -3.970529406E-03
 6.000000000E-01 -1.000000000E+00 -2.471832009E-03
 6.500000000E-01 -1.000000000E+00 -3.778551579E-04
 7.000000000E-01 -1.000000000E+00 2.295939087E-03
 7.500000000E-01 -1.000000000E+00 5.358443515E-03
 8.000000000E-01 -1.000000000E+00 8.723995440E-03
 8.500000000E-01 -1.000000000E+00 1.229138094E-02
 9.000000000E-01 -1.000000000E+00 1.578969372E-02
 9.500000000E-01 -1.000000000E+00 1.919615726E-02
 1.000000000E+00 -1.000000000E+00 2.244913953E-02
 1.050000000E+00 -1.000000000E+00 2.543101405E-02
 1.100000000E+00 -1.000000000E+00 2.806040404E-02
 1.150000000E+00 -1.000000000E+00 3.032439214E-02
 1.200000000E+00 -1.000000000E+00 3.224690825E-02
 1.250000000E+00 -1.000000000E+00 3.379155991E-02
 1.300000000E+00 -1.000000000E+00 3.497355860E-02
 1.350000000E+00 -1.000000000E+00 3.581473330E-02
 1.400000000E+00 -1.000000000E+00 3.636239604E-02
 1.450000000E+00 -1.000000000E+00 3.662004531E-02
 1.500000000E+00 -1.000000000E+00 3.666126967E-02
 1.550000000E+00 -1.000000000E+00 3.648555798E-02
 1.600000000E+00 -1.000000000E+00 3.615116280E-02
 1.650000000E+00 -1.000000000E+00 3.567014808E-02
 1.700000000E+00 -1.000000000E+00 3.509042375E-02
 1.750000000E+00 -1.000000000E+00 3.441264211E-02
 1.800000000E+00 -1.000000000E+00 3.368847887E-02
 1.850000000E+00 -1.000000000E+00 3.289930805E-02
 1.900000000E+00 -1.000000000E+00 3.210169945E-02
 1.950000000E+00 -1.000000000E+00 3.128457761E-02
 2.000000000E+00 -1.000000000E+00 3.046559974E-02
 2.050000000E+00 -1.000000000E+00 2.963973055E-02
 2.100000000E+00 -1.000000000E+00 2.886664642E-02
 2.150000000E+00 -1.000000000E+00 2.807111299E-02
 2.200000000E+00 -1.000000000E+00 2.735789117E-02
 2.250000000E+00 -1.000000000E+00 2.664394839E-02
 2.300000000E+00 -1.000000000E+00 2.596616990E-02
 2.350000000E+00 -1.000000000E+00 2.532160717E-02
 2.400000000E+00 -1.000000000E+00 2.474202059E-02
 2.450000000E+00 -1.000000000E+00 2.416780329E-02
 2.500000000E+00 -1.000000000E+00 2.367638405E-02
 2.550000000E+00 -1.000000000E+00 2.319123772E-02
 2.600000000E+00 -1.000000000E+00 2.276665517E-02
 2.650000000E+00 -1.000000000E+00 2.238500684E-02
 2.700000000E+00 -1.000000000E+00 2.198217742E-02
 2.750000000E+00 -1.000000000E+00 2.166905036E-02
 2.800000000E+00 -1.000000000E+00 2.134309016E-02
 2.850000000E+00 -1.000000000E+00 2.107029713E-02
 2.900000000E+00 -1.000000000E+00 2.082997306E-02
 2.950000000E+00 -1.000000000E+00 2.056858047E-02
 3.000000000E+00 -1.000000000E+00 2.029627575E-02
 3.050000000E+00 -1.000000000E+00 2.002028192E-02
 3.100000000E+00 -1.000000000E+00 1.968986093E-02
 3.150000000E+00 -1.000000000E+00 1.933706318E-02
 3.200000000E+00 -1.000000000E+00 1.887084836E-02
 3.250000000E+00 -1.000000000E+00 1.829350411E-02
 3.300000000E+00 -1.000000000E+00 1.750518982E-02
 3.350000000E+00 -1.000000000E+00 1.640922305E-02
 3.400000000E+00 -1.000000000E+00 1.470550487E-02
 3.450000000E+00 -1.000000000E+00 1.193008950E-02
 3.500000000E+00 -9.500000000E-01 8.039215378E-03
 3.500000000E+00 -9.000000000E-01 9.668961478E-03
 3.500000000E+00 -8.500000000E-01 1.102844363E-02
 3.500000000E+00 -8.000000000E-01 1.256725101E-02
 3.500000000E+00 -7.500000000E-01 1.419659264E-02
 3.500000000E+00 -7.000000000E-01 1.577255250E-02
 3.500000000E+00 -6.500000000E-01 1.741957672E-02
 3.500000000E+00 -6.000000000E-01 1.924180994E-02
 3.500000000E+00 -5.500000000E-01 2.110738854E-02
 3.500000000E+00 -5.000000000E-01 2.313401783E-02
 3.500000000E+00 -4.500000000E-01 2.534621855E-02
 3.500000000E+00 -4.000000000E-01 2.762084969E-02
 3.500000000E+00 -3.500000000E-01 3.003980535E-02
 3.500000000E+00 -3.000000000E-01 3.220190108E-02
 3.500000000E+00 -2.500000000E-01 3.383801222E-02
 3.500000000E+00 -2.000000000E-01 3.451394788E-02
 3.500000000E+00 -1.500000000E-01 3.422744228E-02
 3.500000000E+00 -1.000000000E-01 3.319899756E-02
 3.500000000E+00 -5.000000000E-02 3.207434524E-02
 3.500000000E+00 -2.752242878E-12 3.141265542E-02
 3.500000000E+00 5.000000000E-02 3.103145340E-02
 3.500000000E+00 1.000000000E-01 3.020072689E-02
 3.500000000E+00 1.500000000E-01 2.851886074E-02
 3.500000000E+00 2.000000000E-01 2.587071325E-02
 3.500000000E+00 2.500000000E-01 2.263843303E-02
 3.500000000E+00 3.000000000E-01 1.923865708E-02
 3.500000000E+00 3.500000000E-01 1.602971092E-02
 3.500000000E+00 4.000000000E-01 1.305580482E-02
 3.500000000E+00 4.500000000E-01 1.029415988E-02
 3.500000000E+00 5.000000000E-01 7.810112933E-03
 3.500000000E+00 5.500000000E-01 5.778602308E-03
 3.500000000E+00 6.000000000E-01 4.426727638E-03
 3.500000000E+00 6.500000000E-01 3.990667165E-03
 3.500000000E+00 7.000000000E-01 3.914626925E-03
 3.500000000E+00 7.500000000E-01 3.081094064E-03
 3.500000000E+00 8.000000000E-01 2.755808267E-05
 3.500000000E+00 8.500000000E-01 -6.331171062E-03
 3.500000000E+00 9.000000000E-01 -1.514879435E-02
 3.500000000E+00 9.500000000E-01 -2.593073935E-02
 3.450000000E+00 1.000000000E+00 -1.591184006E-02
 3.400000000E+00 1.000000000E+00 -7.189579178E-03
 3.350000000E+00 1.000000000E+00 -3.032397073E-03
 3.300000000E+00 1.000000000E+00 -1.088396728E-03
 3.250000000E+00 1.000000000E+00 7.140983711E-05
 3.200000000E+00 1.000000000E+00 6.487432556E-04
 3.150000000E+00 1.000000000E+00 9.574212001E-04
 3.100000000E+00 1.000000000E+00 9.502522479E-04
 3.050000000E+00 1.000000000E+00 7.379203663E-04
 3.000000000E+00 1.000000000E+00 3.895426343E-04
 2.950000000E+00 1.000000000E+00 -4.368996118E-05
 2.900000000E+00 1.000000000E+00 -7.827943286E-04
 2.850000000E+00 1.000000000E+00 -1.004709171E-03
 2.800000000E+00 1.000000000E+00 -2.347045247E-03
 2.750000000E+00 1.000000000E+00 -2.426423009E-03
 2.700000000E+00 1.000000000E+00 -3.877338467E-03
 2.650000000E+00 1.000000000E+00 -4.472318637E-03
 2.600000000E+00 1.000000000E+00 -5.782701508E-03
 2.550000000E+00 1.000000000E+00 -6.679343356E-03
 2.500000000E+00 1.000000000E+00 -8.096507820E-03
 2.450000000E+00 1.000000000E+00 -9.286290421E-03
 2.400000000E+00 1.000000000E+00 -1.056200695E-02
 2.350000000E+00 1.000000000E+00 -1.233075302E-02
 2.300000000E+00 1.000000000E+00 -1.340580469E-02
 2.250000000E+00 1.000000000E+00 -1.541365415E-02
 2.200000000E+00 1.000000000E+00 -1.667229887E-02
 2.150000000E+00 1.000000000E+00 -1.899249841E-02
 2.100000000E+00 1.000000000E+00 -2.089033808E-02
 2.050000000E+00 1.000000000E+00 -2.311150513E-02
 2.000000000E+00 1.000000000E+00 -2.543773196E-02
 1.950000000E+00 1.000000000E+00 -2.761429697E-02
 1.900000000E+00 1.000000000E+00 -3.059626804E-02
 1.850000000E+00 1.000000000E+00 -3.335557216E-02
 1.800000000E+00 1.000000000E+00 -3.639613268E-02
 1.750000000E+00 1.000000000E+00 -3.963352327E-02
 1.700000000E+00 1.000000000E+00 -4.320022957E-02
 1.650000000E+00 1.000000000E+00 -4.689833024E-02
 1.600000000E+00 1.000000000E+00 -5.120941279E-02
 1.550000000E+00 1.000000000E+00 -5.537612792E-02
 1.500000000E+00 1.000000000E+00 -5.998045424E-02
 1.450000000E+00 1.000000000E+00 -6.508118540E-02
 1.400000000E+00 1.000000000E+00 -7.001504158E-02
 1.350000000E+00 1.000000000E+00 -7.597183990E-02
 1.300000000E+00 1.000000000E+00 -8.139475417E-02
 1.250000000E+00 1.000000000E+00 -8.735562695E-02
 1.200000000E+00 1.000000000E+00 -9.369335365E-02
 1.150000000E+00 1.000000000E+00 -9.923284749E-02
 1.100000000E+00 1.000000000E+00 -1.052016028E-01
 1.050000000E+00 1.000000000E+00 -1.111541039E-01
 1.000000000E+00 1.000000000E+00 -1.157493259E-01
 9.500000000E-01 1.000000000E+00 -1.216397770E-01
 9.000000000E-01 1.000000000E+00 -1.258666863E-01
 8.500000000E-01 1.000000000E+00 -1.296301073E-01
 8.000000000E-01 1.000000000E+00 -1.313561336E-01
 7.500000000E-01 1.000000000E+00 -1.333636036E-01
 7.000000000E-01 1.000000000E+00 -1.324230628E-01
 6.500000000E-01 1.000000000E+00 -1.321567931E-01
 6.000000000E-01 1.000000000E+00 -1.297881079E-01
 5.500000000E-01 1.000000000E+00 -1.261945853E-01
 5.000000000E-01 1.000000000E+00 -1.214307999E-01
 4.500000000E-01 1.000000000E+00 -1.148793698E-01
 4.000000000E-01 1.000000000E+00 -1.083267132E-01
 3.500000000E-01 1.000000000E+00 -1.006918813E-01
 3.000000000E-01 1.000000000E+00 -9.166262217E-02
 2.500000000E-01 1.000000000E+00 -8.331139574E-02
 2.000000000E-01 1.000000000E+00 -7.385194156E-02
 1.500000000E-01 1.000000000E+00 -6.481683663E-02
 1.000000000E-01 1.000000000E+00 -5.577898336E-02
 5.000000000E-02 1.000000000E+00 -4.699412718E-02
 1.733724275E-12 1.000000000E+00 -3.896879273E-02
 -5.000000000E-02 1.000000000E+00 -3.146760263E-02
 -1.000000000E-01 1.000000000E+00 -2.481783044E-02
 -1.500000000E-01 1.000000000E+00 -1.887500175E-02
 -2.000000000E-01 1.000000000E+00 -1.378242885E-02
 -2.500000000E-01 1.000000000E+00 -9.676929380E-03
 -3.000000000E-01 1.000000000E+00 -6.422945470E-03
 -3.500000000E-01 1.000000000E+00 -4.008005438E-03
 -4.000000000E-01 1.000000000E+00 -2.400479596E-03
 -4.500000000E-01 1.000000000E+00 -1.315692411E-03
 1.973499490E+00 -9.572846756E-01 3.054251098E-02
 1.975235061E+00 9.570873080E-01 -2.572757602E-02
 9.168234455E-01 -4.664880397E-03 3.282214179E-01
 8.369514156E-01 -1.179036398E-02 2.537539377E-01
 7.637251060E-01 -2.087206789E-02 1.642969249E-01
 6.917296857E-01 -3.042220855E-02 7.269925624E-02
 9.847433626E-01 -4.932865496E-03 3.612327124E-01
 6.249594430E-01 -4.082234978E-02 -2.740353844E-02
 5.512728937E-01 -5.074852903E-02 -1.593809777E-01
 4.925983050E-01 -5.816809175E-02 -2.794254881E-01
 4.313298215E-01 -6.373905430E-02 -3.870621156E-01
 3.746165460E-01 -6.574710408E-02 -4.350204670E-01