TITLE     = "Visualization of the solution"
VARIABLES = "x"
"y"
"Pressure_Coefficient"
ZONE T="Zone"
 STRANDID=0, SOLUTIONTIME=0
 Nodes=11958, Elements=23334, ZONETYPE=FEQuadrilateral
 DATAPACKING=POINT
 DT=(DOUBLE DOUBLE DOUBLE )
 9.998257160E-01 5.275991862E-04 2.232208995E-01
 9.862897396E-01 2.882273169E-03 1.327116619E-01
 9.740176797E-01 4.984322470E-03 8.270535828E-02
 9.599765539E-01 7.363220211E-03 3.538989000E-02
 9.464417100E-01 9.577574208E-03 1.720671463E-02
 9.346757531E-01 1.160182152E-02 -3.485546993E-02
 9.236768484E-01 1.338355616E-02 -5.874223819E-02
 9.108983278E-01 1.538843755E-02 -7.720586140E-02
 8.992310166E-01 1.721523888E-02 -1.121539380E-01
 8.864291310E-01 1.908399351E-02 -1.284436535E-01
 8.736090660E-01 2.087097056E-02 -1.402669991E-01
 8.613458276E-01 2.252086252E-02 -1.498336459E-01
 8.488724232E-01 2.415492386E-02 -1.611904953E-01
 8.368368745E-01 2.568407357E-02 -1.696703159E-01
 8.248209953E-01 2.718074620E-02 -1.790158374E-01
 8.119007945E-01 2.875945717E-02 -1.940801716E-01
 7.987285852E-01 3.028664552E-02 -1.926625622E-01
 7.869006991E-01 3.167022020E-02 -2.026552521E-01
 7.745010257E-01 3.311726451E-02 -2.229679632E-01
 7.619920969E-01 3.450014815E-02 -2.242209416E-01
 7.491376996E-01 3.592704982E-02 -2.388606902E-01
 7.354679108E-01 3.740034625E-02 -2.513387059E-01
 7.243929505E-01 3.856385127E-02 -2.583939640E-01
 7.129812837E-01 3.975648433E-02 -2.727056215E-01
 7.011681795E-01 4.095987231E-02 -2.880382080E-01
 6.873267293E-01 4.230029508E-02 -2.968655468E-01
 6.742984056E-01 4.352948070E-02 -3.118405054E-01
 6.636226177E-01 4.449031875E-02 -3.174740698E-01
 6.516346931E-01 4.554996267E-02 -3.323917356E-01
 6.407560706E-01 4.646444693E-02 -3.413999084E-01
 6.287885308E-01 4.742809385E-02 -3.517630716E-01
 6.175582409E-01 4.829141870E-02 -3.624957798E-01
 6.064376831E-01 4.910124838E-02 -3.713813785E-01
 5.941768289E-01 4.994379729E-02 -3.819854515E-01
 5.821713805E-01 5.071359500E-02 -3.929569038E-01
 5.685509443E-01 5.150107294E-02 -3.984651949E-01
 5.557763577E-01 5.218736455E-02 -4.121312947E-01
 5.430344939E-01 5.277423561E-02 -4.154958334E-01
 5.317612886E-01 5.323303118E-02 -4.139836486E-01
 5.198412538E-01 5.368881300E-02 -4.278098793E-01
 5.068335533E-01 5.407075584E-02 -4.230666417E-01
 4.960863590E-01 5.435542762E-02 -4.291734254E-01
 4.831507802E-01 5.461458117E-02 -4.292296602E-01
 4.705040753E-01 5.480032042E-02 -4.295963478E-01
 4.564677477E-01 5.492427945E-02 -4.308060303E-01
 4.425781965E-01 5.495250225E-02 -4.267688274E-01
 4.294610620E-01 5.491151288E-02 -4.252510636E-01
 4.161833823E-01 5.479246378E-02 -4.201828038E-01
 4.040126204E-01 5.463560298E-02 -4.216816276E-01
 3.912219405E-01 5.438838899E-02 -4.157812224E-01
 3.789549470E-01 5.409209430E-02 -4.104898865E-01
 3.679497540E-01 5.378369987E-02 -4.084183093E-01
 3.551760614E-01 5.335312709E-02 -3.994973276E-01
 3.433988094E-01 5.291786790E-02 -3.980422196E-01
 3.314214945E-01 5.241260305E-02 -3.921802767E-01
 3.212735653E-01 5.194964260E-02 -3.891627665E-01
 3.096551895E-01 5.136406422E-02 -3.830245004E-01
 2.967731059E-01 5.065220594E-02 -3.736210161E-01
 2.831846476E-01 4.985360056E-02 -3.722392621E-01
 2.701453269E-01 4.900210723E-02 -3.622006033E-01
 2.582195699E-01 4.817995429E-02 -3.567547431E-01
 2.455164343E-01 4.724577069E-02 -3.510526302E-01
 2.323133647E-01 4.620582610E-02 -3.431677904E-01
 2.199174166E-01 4.517289624E-02 -3.373453983E-01
 2.080161273E-01 4.412469640E-02 -3.318870903E-01
 1.965045482E-01 4.305450618E-02 -3.260679506E-01
 1.838563234E-01 4.180746898E-02 -3.176955252E-01
 1.718745530E-01 4.056568071E-02 -3.116661544E-01
 1.595764458E-01 3.922009468E-02 -3.030446085E-01
 1.474416107E-01 3.783198446E-02 -3.007620211E-01
 1.363022178E-01 3.647727147E-02 -2.932100341E-01
 1.250046939E-01 3.503219038E-02 -2.869120664E-01
 1.134536788E-01 3.347047418E-02 -2.798632946E-01
 1.027176529E-01 3.194415197E-02 -2.766441732E-01
 9.263679385E-02 3.042581864E-02 -2.711742200E-01
 8.151206374E-02 2.864127234E-02 -2.653791694E-01
 6.996560097E-02 2.665057965E-02 -2.618022165E-01
 6.055584922E-02 2.490260452E-02 -2.572739989E-01
 5.130532011E-02 2.304234914E-02 -2.519035809E-01
 4.255186766E-02 2.112303860E-02 -2.497292872E-01
 3.515304625E-02 1.933590136E-02 -2.471576141E-01
 2.879404649E-02 1.764685661E-02 -2.398635176E-01
 2.331697941E-02 1.603503339E-02 -2.426661844E-01
 1.936177723E-02 1.475321595E-02 -2.317667151E-01
 1.570840925E-02 1.344319060E-02 -2.277753833E-01
 1.307320967E-02 1.240501087E-02 -2.170424794E-01
 1.081106067E-02 1.143174618E-02 -2.091437825E-01
 9.162724949E-03 1.065441407E-02 -2.013034130E-01
 7.610073779E-03 9.864388965E-03 -1.842388439E-01
 6.114946678E-03 9.026522748E-03 -1.295741287E-01
 4.145015962E-03 7.780937944E-03 -7.113351392E-02
 2.468561288E-03 6.515031215E-03 5.068194323E-04
 1.009245054E-03 5.162687507E-03 2.051203032E-01
 -4.091045412E-04 3.366903868E-03 4.621134963E-01
 -1.176354592E-03 1.893170993E-03 6.711015890E-01
 -1.547830296E-03 6.957235746E-04 8.664981791E-01
 -1.718960004E-03 -8.172499947E-04 1.028336815E+00
 -1.510054921E-03 -2.726426348E-03 1.099459381E+00
 -7.661627606E-04 -4.840821959E-03 1.047971992E+00
 6.162334466E-04 -7.158913650E-03 8.864647902E-01
 2.681203187E-03 -9.625312872E-03 7.124971034E-01
 4.577312153E-03 -1.143716369E-02 5.647140685E-01
 6.810085382E-03 -1.327223890E-02 4.633230968E-01
 8.427824825E-03 -1.445425581E-02 3.678855546E-01
 1.045811735E-02 -1.582233608E-02 3.055401662E-01
 1.287837327E-02 -1.730757765E-02 2.348291535E-01
 1.610035449E-02 -1.910531335E-02 1.651835724E-01
 1.934189908E-02 -2.074901387E-02 9.504102534E-02
 2.339852415E-02 -2.263141051E-02 3.893182320E-02
 2.889692038E-02 -2.492072992E-02 -1.515075939E-02
 3.457049280E-02 -2.705966122E-02 -7.031003885E-02
 4.183147103E-02 -2.952876501E-02 -1.114679803E-01
 4.946253449E-02 -3.186575696E-02 -1.510437224E-01
 5.823823437E-02 -3.431561962E-02 -1.804112195E-01
 6.704835594E-02 -3.655523062E-02 -2.115746386E-01
 7.754389197E-02 -3.899083659E-02 -2.296690301E-01
 8.760319650E-02 -4.114401713E-02 -2.517485283E-01
 9.848229587E-02 -4.328874499E-02 -2.664547141E-01
 1.096224114E-01 -4.532673955E-02 -2.816479477E-01
 1.216074303E-01 -4.736887291E-02 -2.980411695E-01
 1.330847293E-01 -4.918051884E-02 -3.103867158E-01
 1.437712014E-01 -5.075900257E-02 -3.212854070E-01
 1.548798978E-01 -5.230110884E-02 -3.326114636E-01
 1.666998565E-01 -5.384760350E-02 -3.468850025E-01
 1.783659607E-01 -5.526573211E-02 -3.577348277E-01
 1.901611537E-01 -5.660229549E-02 -3.680527125E-01
 2.007095814E-01 -5.772586912E-02 -3.815854718E-01
 2.120656967E-01 -5.884261429E-02 -3.886415838E-01
 2.244477868E-01 -5.998336524E-02 -4.042472184E-01
 2.367736697E-01 -6.100953370E-02 -4.142779802E-01
 2.487408370E-01 -6.191345677E-02 -4.255559116E-01
 2.612410486E-01 -6.275372207E-02 -4.333365320E-01
 2.726558745E-01 -6.344889104E-02 -4.492896895E-01
 2.853667736E-01 -6.410463899E-02 -4.572067248E-01
 2.978242636E-01 -6.463591754E-02 -4.648968484E-01
 3.106445372E-01 -6.507320702E-02 -4.739307512E-01
 3.222601414E-01 -6.535799056E-02 -4.780846665E-01
 3.345657885E-01 -6.556973606E-02 -4.896316729E-01
 3.449348211E-01 -6.562718004E-02 -4.850855811E-01
 3.561862409E-01 -6.562361121E-02 -4.949813632E-01
 3.673098087E-01 -6.549915671E-02 -4.923541032E-01
 3.778960705E-01 -6.527908146E-02 -4.874640869E-01
 3.894792199E-01 -6.494832784E-02 -4.878756111E-01
 4.015791714E-01 -6.446015835E-02 -4.759173742E-01
 4.135114551E-01 -6.385564059E-02 -4.639205207E-01
 4.266636670E-01 -6.307746470E-02 -4.583378683E-01
 4.389858246E-01 -6.216882914E-02 -4.307811882E-01
 4.522215128E-01 -6.108635664E-02 -4.135167050E-01
 4.647216797E-01 -5.993489549E-02 -3.909159027E-01
 4.772459567E-01 -5.867089704E-02 -3.684805044E-01
 4.891133010E-01 -5.735131726E-02 -3.359832029E-01
 5.011722445E-01 -5.596015602E-02 -3.177007822E-01
 5.144393444E-01 -5.431824178E-02 -2.872240224E-01
 5.277854800E-01 -5.257877707E-02 -2.583670560E-01
 5.406245589E-01 -5.080766231E-02 -2.200171861E-01
 5.546597838E-01 -4.886990786E-02 -2.009496743E-01
 5.671510100E-01 -4.707121104E-02 -1.721669491E-01
 5.804832578E-01 -4.510587454E-02 -1.425359297E-01
 5.932434201E-01 -4.323038459E-02 -1.267021776E-01
 6.056140661E-01 -4.135392234E-02 -9.891069554E-02
 6.183806062E-01 -3.940235078E-02 -7.516121719E-02
 6.324226856E-01 -3.725947067E-02 -5.465854274E-02
 6.455097795E-01 -3.522720188E-02 -2.744614777E-02
 6.591666937E-01 -3.313013911E-02 -7.535665444E-03
 6.729772091E-01 -3.103318624E-02 7.497708598E-03
 6.855220795E-01 -2.910207957E-02 2.916723884E-02
 6.980537772E-01 -2.716910094E-02 5.218296572E-02
 7.126351595E-01 -2.495488524E-02 7.390714078E-02
 7.258560061E-01 -2.302050032E-02 8.092797461E-02
 7.372954488E-01 -2.130940370E-02 1.035025552E-01
 7.494126558E-01 -1.950611174E-02 1.266393305E-01
 7.626137137E-01 -1.764851622E-02 1.326896821E-01
 7.753949761E-01 -1.582840458E-02 1.547706887E-01
 7.874080539E-01 -1.415091939E-02 1.727088677E-01
 7.997965217E-01 -1.247472595E-02 1.883350899E-01
 8.110542893E-01 -1.100444328E-02 2.007168899E-01
 8.221440911E-01 -9.569207206E-03 2.226219337E-01
 8.341680169E-01 -8.089141920E-03 2.394733450E-01
 8.466647863E-01 -6.684013642E-03 2.460469546E-01
 8.585484028E-01 -5.381896626E-03 2.651011475E-01
 8.701263666E-01 -4.199994728E-03 2.819132513E-01
 8.823288679E-01 -3.105880460E-03 2.888182614E-01
 8.954293132E-01 -2.046703594E-03 3.006670283E-01
 9.055739045E-01 -1.340629067E-03 3.080782557E-01
 9.157574773E-01 -7.219663239E-04 3.151169310E-01
 9.258392453E-01 -2.278426255E-04 3.161063248E-01
 9.354524612E-01 1.565087296E-04 3.210371879E-01
 9.486365318E-01 5.267932429E-04 3.197808561E-01
 9.630611539E-01 7.490058779E-04 3.202708786E-01
 9.774752855E-01 7.938271156E-04 3.268211084E-01
 9.896944165E-01 6.902738824E-04 3.492405726E-01
 -5.000000000E-01 -1.000000000E+00 9.495311028E-03
 3.500000000E+00 -1.000000000E+00 5.142384455E-03
 3.500000000E+00 1.000000000E+00 -1.231070150E-02
 -5.000000000E-01 1.000000000E+00 1.586133053E-03
 9.930577278E-01 1.704936178E-03 2.243269649E-01
 9.801537097E-01 3.933297819E-03 1.075944073E-01
 9.669971168E-01 6.173771340E-03 5.639836449E-02
 9.532091320E-01 8.470397210E-03 2.985044197E-02
 9.405587316E-01 1.058969786E-02 -1.426825035E-02
 9.291763008E-01 1.249268884E-02 -4.745859727E-02
 9.172875881E-01 1.438599685E-02 -6.580274767E-02
 9.050646722E-01 1.630183822E-02 -9.925784155E-02
 8.928300738E-01 1.814961620E-02 -1.206204539E-01
 8.800190985E-01 1.997748204E-02 -1.335470930E-01
 8.674774468E-01 2.169591654E-02 -1.444247826E-01
 8.551091254E-01 2.333789319E-02 -1.556471738E-01
 8.428546488E-01 2.491949871E-02 -1.648605438E-01
 8.308289349E-01 2.643240988E-02 -1.741744267E-01
 8.183608949E-01 2.797010168E-02 -1.887500326E-01
 8.053146899E-01 2.952305134E-02 -1.906995537E-01
 7.928146422E-01 3.097843286E-02 -1.969346287E-01
 7.807008624E-01 3.239374235E-02 -2.155757312E-01
 7.682465613E-01 3.380870633E-02 -2.212796824E-01
 7.555648983E-01 3.521359898E-02 -2.325302211E-01
 7.423028052E-01 3.666369803E-02 -2.450004879E-01
 7.299304307E-01 3.798209876E-02 -2.538456070E-01
 7.186871171E-01 3.916016780E-02 -2.660167916E-01
 7.070747316E-01 4.035817832E-02 -2.823188591E-01
 6.942474544E-01 4.163008370E-02 -2.916107830E-01
 6.808125675E-01 4.291488789E-02 -3.045955198E-01
 6.689605117E-01 4.400989972E-02 -3.137716393E-01
 6.576286554E-01 4.502014071E-02 -3.254929616E-01
 6.461953819E-01 4.600720480E-02 -3.372526747E-01
 6.347723007E-01 4.694627039E-02 -3.463374645E-01
 6.231733859E-01 4.785975628E-02 -3.572971582E-01
 6.119979620E-01 4.869633354E-02 -3.672580101E-01
 6.003072560E-01 4.952252284E-02 -3.766388990E-01
 5.881741047E-01 5.032869615E-02 -3.893352944E-01
 5.753611624E-01 5.110733397E-02 -3.944943791E-01
 5.621636510E-01 5.184421875E-02 -4.072614078E-01
 5.494054258E-01 5.248080008E-02 -4.130552744E-01
 5.373978913E-01 5.300363339E-02 -4.128515624E-01
 5.258012712E-01 5.346092209E-02 -4.247050003E-01
 5.133374035E-01 5.387978442E-02 -4.224806166E-01
 5.014599562E-01 5.421309173E-02 -4.288038229E-01
 4.896185696E-01 5.448500440E-02 -4.288287352E-01
 4.768274277E-01 5.470745079E-02 -4.302185035E-01
 4.634859115E-01 5.486229993E-02 -4.308842899E-01
 4.495229721E-01 5.493839085E-02 -4.279113187E-01
 4.360196292E-01 5.493200757E-02 -4.264012095E-01
 4.228222221E-01 5.485198833E-02 -4.213479763E-01
 4.100980014E-01 5.471403338E-02 -4.224980658E-01
 3.976172805E-01 5.451199599E-02 -4.181811915E-01
 3.850884438E-01 5.424024165E-02 -4.118272709E-01
 3.734523505E-01 5.393789709E-02 -4.115959657E-01
 3.615629077E-01 5.356841348E-02 -4.025420733E-01
 3.492874354E-01 5.313549750E-02 -3.996374127E-01
 3.374101520E-01 5.266523547E-02 -3.936755108E-01
 3.263475299E-01 5.218112282E-02 -3.919179652E-01
 3.154643774E-01 5.165685341E-02 -3.869016389E-01
 3.032141477E-01 5.100813508E-02 -3.777125244E-01
 2.899788767E-01 5.025290325E-02 -3.740798658E-01
 2.766649872E-01 4.942785390E-02 -3.658270262E-01
 2.641824484E-01 4.859103076E-02 -3.600844776E-01
 2.518680021E-01 4.771286249E-02 -3.546292975E-01
 2.389148995E-01 4.672579840E-02 -3.465347180E-01
 2.261153907E-01 4.568936117E-02 -3.400256096E-01
 2.139667720E-01 4.464879632E-02 -3.344829486E-01
 2.022603378E-01 4.358960129E-02 -3.300116415E-01
 1.901804358E-01 4.243098758E-02 -3.213586689E-01
 1.778654382E-01 4.118657485E-02 -3.152293867E-01
 1.657254994E-01 3.989288770E-02 -3.068534532E-01
 1.535090283E-01 3.852603957E-02 -3.021905326E-01
 1.418719143E-01 3.715462796E-02 -2.968896491E-01
 1.306534559E-01 3.575473092E-02 -2.906098593E-01
 1.192291863E-01 3.425133228E-02 -2.826449156E-01
 1.080856659E-01 3.270731308E-02 -2.782288444E-01
 9.767722338E-02 3.118498530E-02 -2.755309417E-01
 8.707442880E-02 2.953354549E-02 -2.694431572E-01
 7.573883235E-02 2.764592599E-02 -2.630499099E-01
 7.229612395E-02 -3.777303360E-02 -2.237193681E-01
 8.257354423E-02 -4.006742686E-02 -2.424294071E-01
 9.304274619E-02 -4.221638106E-02 -2.586893831E-01
 1.040523537E-01 -4.430774227E-02 -2.750046271E-01
 1.156149209E-01 -4.634780623E-02 -2.890506985E-01
 1.273460798E-01 -4.827469587E-02 -3.058116155E-01
 1.384279653E-01 -4.996976070E-02 -3.177684282E-01
 1.493255496E-01 -5.153005570E-02 -3.269353505E-01
 1.607898772E-01 -5.307435617E-02 -3.387658023E-01
 1.725329086E-01 -5.455666780E-02 -3.533247495E-01
 1.842635572E-01 -5.593401380E-02 -3.632671518E-01
 1.954353675E-01 -5.716408230E-02 -3.752481942E-01
 2.063876390E-01 -5.828424171E-02 -3.851244341E-01
 2.182567418E-01 -5.941298977E-02 -3.942513602E-01
 2.306107283E-01 -6.049644947E-02 -4.100912982E-01
 2.427572533E-01 -6.146149524E-02 -4.200689829E-01
 2.549909428E-01 -6.233358942E-02 -4.293625459E-01
 2.669484615E-01 -6.310130656E-02 -4.408042513E-01
 2.790113240E-01 -6.377676502E-02 -4.525761322E-01
 2.915955186E-01 -6.437027827E-02 -4.613299647E-01
 3.042344004E-01 -6.485456228E-02 -4.689442201E-01
 3.164523393E-01 -6.521559879E-02 -4.777669118E-01
 3.284129649E-01 -6.546386331E-02 -4.818801737E-01
 3.397503048E-01 -6.559845805E-02 -4.925338943E-01
 3.505605310E-01 -6.562539563E-02 -4.868845114E-01
 3.617480248E-01 -6.556138396E-02 -4.951165868E-01
 3.726029396E-01 -6.538911909E-02 -4.910390324E-01
 3.836876452E-01 -6.511370465E-02 -4.850194868E-01
 3.955291957E-01 -6.470424309E-02 -4.830028210E-01
 4.075453132E-01 -6.415789947E-02 -4.706803838E-01
 4.200875610E-01 -6.346655264E-02 -4.582270505E-01
 4.328247458E-01 -6.262314692E-02 -4.491732574E-01
 4.456036687E-01 -6.162759289E-02 -4.203425787E-01
 4.584715962E-01 -6.051062606E-02 -4.038136198E-01
 4.709838182E-01 -5.930289626E-02 -3.798427284E-01
 4.831796288E-01 -5.801110715E-02 -3.549898006E-01
 4.951427728E-01 -5.665573664E-02 -3.255578775E-01
 5.078057945E-01 -5.513919890E-02 -3.029940967E-01
 5.211124122E-01 -5.344850942E-02 -2.732313698E-01
 5.342050195E-01 -5.169321969E-02 -2.423008356E-01
 5.476421714E-01 -4.983878508E-02 -2.081126856E-01
 5.609053969E-01 -4.797055945E-02 -1.886457925E-01
 5.738171339E-01 -4.608854279E-02 -1.582899722E-01
 5.868633389E-01 -4.416812956E-02 -1.331248690E-01
 5.994287431E-01 -4.229215346E-02 -1.142382922E-01
 6.119973361E-01 -4.037813656E-02 -8.734751378E-02
 6.254016459E-01 -3.833091073E-02 -6.417895748E-02
 6.389662325E-01 -3.624333628E-02 -4.254435250E-02
 6.523382366E-01 -3.417867050E-02 -1.711752417E-02
 6.660719514E-01 -3.208166268E-02 1.361335839E-03
 6.792496443E-01 -3.006763291E-02 1.736367843E-02
 6.917879283E-01 -2.813559026E-02 3.972330377E-02
 7.053444684E-01 -2.606199309E-02 6.237965848E-02
 7.192455828E-01 -2.398769278E-02 8.090922673E-02
 7.315757275E-01 -2.216495201E-02 9.037497568E-02
 7.433540523E-01 -2.040775772E-02 1.132040930E-01
 7.560131848E-01 -1.857731398E-02 1.320552634E-01
 7.690043449E-01 -1.673846040E-02 1.414783905E-01
 7.814015150E-01 -1.498966198E-02 1.631462233E-01
 7.936022878E-01 -1.331282267E-02 1.805089133E-01
 8.054254055E-01 -1.173958462E-02 1.957320443E-01
 8.165991902E-01 -1.028682524E-02 2.097157555E-01
 8.281560540E-01 -8.829174563E-03 2.293879088E-01
 8.404164016E-01 -7.386577781E-03 2.443971207E-01
 8.526065946E-01 -6.032955134E-03 2.539580812E-01
 8.643373847E-01 -4.790945677E-03 2.725234740E-01
 8.762276173E-01 -3.652937594E-03 2.861237830E-01
 8.888790905E-01 -2.576292027E-03 2.938953927E-01
 9.005016088E-01 -1.693666331E-03 3.075349180E-01
 9.106656909E-01 -1.031297696E-03 3.111344074E-01
 9.420444965E-01 3.416509862E-04 3.191334798E-01
 9.558488429E-01 6.378995604E-04 3.191370076E-01
 9.702682197E-01 7.714164967E-04 3.223788247E-01
 9.835848510E-01 7.420504990E-04 3.341726599E-01
 9.947600663E-01 6.089365343E-04 3.885062046E-01
 -5.000000000E-01 9.500000000E-01 2.281334156E-03
 -5.000000000E-01 9.000000000E-01 3.455958049E-03
 -5.000000000E-01 8.500000000E-01 4.815590261E-03
 -5.000000000E-01 8.000000000E-01 6.627891427E-03
 -5.000000000E-01 7.500000000E-01 8.969375866E-03
 -5.000000000E-01 7.000000000E-01 1.193450635E-02
 -5.000000000E-01 6.500000000E-01 1.554768813E-02
 -5.000000000E-01 6.000000000E-01 1.985119984E-02
 -5.000000000E-01 5.500000000E-01 2.493402970E-02
 -5.000000000E-01 5.000000000E-01 3.060694449E-02
 -5.000000000E-01 4.500000000E-01 3.703003004E-02
 -5.000000000E-01 4.000000000E-01 4.402353725E-02
 -5.000000000E-01 3.500000000E-01 5.150831361E-02
 -5.000000000E-01 3.000000000E-01 5.915794046E-02
 -5.000000000E-01 2.500000000E-01 6.688570796E-02
 -5.000000000E-01 2.000000000E-01 7.436166198E-02
 -5.000000000E-01 1.500000000E-01 8.099484909E-02
 -5.000000000E-01 1.000000000E-01 8.659309923E-02
 -5.000000000E-01 5.000000000E-02 9.083750797E-02
 -5.000000000E-01 2.752242878E-12 9.332564987E-02
 -5.000000000E-01 -5.000000000E-02 9.413677770E-02
 -5.000000000E-01 -1.000000000E-01 9.302101700E-02
 -5.000000000E-01 -1.500000000E-01 9.032653041E-02
 -5.000000000E-01 -2.000000000E-01 8.616982625E-02
 -5.000000000E-01 -2.500000000E-01 8.093742631E-02
 -5.000000000E-01 -3.000000000E-01 7.509049890E-02
 -5.000000000E-01 -3.500000000E-01 6.888088910E-02
 -5.000000000E-01 -4.000000000E-01 6.256980468E-02
 -5.000000000E-01 -4.500000000E-01 5.642848242E-02
 -5.000000000E-01 -5.000000000E-01 5.054742038E-02
 -5.000000000E-01 -5.500000000E-01 4.506761208E-02
 -5.000000000E-01 -6.000000000E-01 4.002214443E-02
 -5.000000000E-01 -6.500000000E-01 3.552015711E-02
 -5.000000000E-01 -7.000000000E-01 3.137186950E-02
 -5.000000000E-01 -7.500000000E-01 2.768472311E-02
 -5.000000000E-01 -8.000000000E-01 2.430991326E-02
 -5.000000000E-01 -8.500000000E-01 2.108026191E-02
 -5.000000000E-01 -9.000000000E-01 1.773389828E-02
 -5.000000000E-01 -9.500000000E-01 1.309057764E-02
 -4.500000000E-01 -1.000000000E+00 1.185823512E-02
 -4.000000000E-01 -1.000000000E+00 1.515910859E-02
 -3.500000000E-01 -1.000000000E+00 1.655029105E-02
 -3.000000000E-01 -1.000000000E+00 1.688119308E-02
 -2.500000000E-01 -1.000000000E+00 1.638630040E-02
 -2.000000000E-01 -1.000000000E+00 1.516376407E-02
 -1.500000000E-01 -1.000000000E+00 1.322130033E-02
 -1.000000000E-01 -1.000000000E+00 1.064293677E-02
 -5.000000000E-02 -1.000000000E+00 7.547047150E-03
 -9.424683256E-13 -1.000000000E+00 3.924858902E-03
 5.000000000E-02 -1.000000000E+00 -1.316507608E-05
 1.000000000E-01 -1.000000000E+00 -4.225234624E-03
 1.500000000E-01 -1.000000000E+00 -8.346065394E-03
 2.000000000E-01 -1.000000000E+00 -1.246736626E-02
 2.500000000E-01 -1.000000000E+00 -1.627806706E-02
 3.000000000E-01 -1.000000000E+00 -1.958452745E-02
 3.500000000E-01 -1.000000000E+00 -2.228081636E-02
 4.000000000E-01 -1.000000000E+00 -2.435151384E-02
 4.500000000E-01 -1.000000000E+00 -2.554751682E-02
 5.000000000E-01 -1.000000000E+00 -2.597656725E-02
 5.500000000E-01 -1.000000000E+00 -2.548446874E-02
 6.000000000E-01 -1.000000000E+00 -2.422477061E-02
 6.500000000E-01 -1.000000000E+00 -2.227187493E-02
 7.000000000E-01 -1.000000000E+00 -1.957413510E-02
 7.500000000E-01 -1.000000000E+00 -1.638028381E-02
 8.000000000E-01 -1.000000000E+00 -1.287446127E-02
 8.500000000E-01 -1.000000000E+00 -9.244592033E-03
 9.000000000E-01 -1.000000000E+00 -5.319450297E-03
 9.500000000E-01 -1.000000000E+00 -1.564821067E-03
 1.000000000E+00 -1.000000000E+00 2.130988676E-03
 1.050000000E+00 -1.000000000E+00 5.615867208E-03
 1.100000000E+00 -1.000000000E+00 8.697012542E-03
 1.150000000E+00 -1.000000000E+00 1.164488943E-02
 1.200000000E+00 -1.000000000E+00 1.388160738E-02
 1.250000000E+00 -1.000000000E+00 1.605870898E-02
 1.300000000E+00 -1.000000000E+00 1.788902405E-02
 1.350000000E+00 -1.000000000E+00 1.931358184E-02
 1.400000000E+00 -1.000000000E+00 2.043772266E-02
 1.450000000E+00 -1.000000000E+00 2.130277592E-02
 1.500000000E+00 -1.000000000E+00 2.192406871E-02
 1.550000000E+00 -1.000000000E+00 2.235067984E-02
 1.600000000E+00 -1.000000000E+00 2.257735853E-02
 1.650000000E+00 -1.000000000E+00 2.268424208E-02
 1.700000000E+00 -1.000000000E+00 2.262628034E-02
 1.750000000E+00 -1.000000000E+00 2.247257633E-02
 1.800000000E+00 -1.000000000E+00 2.226292049E-02
 1.850000000E+00 -1.000000000E+00 2.197204651E-02
 1.900000000E+00 -1.000000000E+00 2.164087378E-02
 1.950000000E+00 -1.000000000E+00 2.129034781E-02
 2.000000000E+00 -1.000000000E+00 2.089115471E-02
 2.050000000E+00 -1.000000000E+00 2.049591841E-02
 2.100000000E+00 -1.000000000E+00 2.010659700E-02
 2.150000000E+00 -1.000000000E+00 1.969842440E-02
 2.200000000E+00 -1.000000000E+00 1.932837030E-02
 2.250000000E+00 -1.000000000E+00 1.895987195E-02
 2.300000000E+00 -1.000000000E+00 1.857844515E-02
 2.350000000E+00 -1.000000000E+00 1.824518324E-02
 2.400000000E+00 -1.000000000E+00 1.795034564E-02
 2.450000000E+00 -1.000000000E+00 1.766018900E-02
 2.500000000E+00 -1.000000000E+00 1.738481368E-02
 2.550000000E+00 -1.000000000E+00 1.711888259E-02
 2.600000000E+00 -1.000000000E+00 1.686129350E-02
 2.650000000E+00 -1.000000000E+00 1.665866475E-02
 2.700000000E+00 -1.000000000E+00 1.648498106E-02
 2.750000000E+00 -1.000000000E+00 1.627710732E-02
 2.800000000E+00 -1.000000000E+00 1.611706763E-02
 2.850000000E+00 -1.000000000E+00 1.598257998E-02
 2.900000000E+00 -1.000000000E+00 1.572969004E-02
 2.950000000E+00 -1.000000000E+00 1.564991039E-02
 3.000000000E+00 -1.000000000E+00 1.541219981E-02
 3.050000000E+00 -1.000000000E+00 1.521674343E-02
 3.100000000E+00 -1.000000000E+00 1.499510862E-02
 3.150000000E+00 -1.000000000E+00 1.464094802E-02
 3.200000000E+00 -1.000000000E+00 1.426219212E-02
 3.250000000E+00 -1.000000000E+00 1.371230359E-02
 3.300000000E+00 -1.000000000E+00 1.301602637E-02
 3.350000000E+00 -1.000000000E+00 1.198526699E-02
 3.400000000E+00 -1.000000000E+00 1.047871298E-02
 3.450000000E+00 -1.000000000E+00 7.908083009E-03
 3.500000000E+00 -9.500000000E-01 4.406496028E-03
 3.500000000E+00 -9.000000000E-01 5.791598079E-03
 3.500000000E+00 -8.500000000E-01 6.978508880E-03
 3.500000000E+00 -8.000000000E-01 8.370237899E-03
 3.500000000E+00 -7.500000000E-01 9.591948570E-03
 3.500000000E+00 -7.000000000E-01 1.087277390E-02
 3.500000000E+00 -6.500000000E-01 1.228734353E-02
 3.500000000E+00 -6.000000000E-01 1.383561093E-02
 3.500000000E+00 -5.500000000E-01 1.553590063E-02
 3.500000000E+00 -5.000000000E-01 1.743008236E-02
 3.500000000E+00 -4.500000000E-01 1.937202458E-02
 3.500000000E+00 -4.000000000E-01 2.156463040E-02
 3.500000000E+00 -3.500000000E-01 2.380452626E-02
 3.500000000E+00 -3.000000000E-01 2.589438942E-02
 3.500000000E+00 -2.500000000E-01 2.772548319E-02
 3.500000000E+00 -2.000000000E-01 2.887780051E-02
 3.500000000E+00 -1.500000000E-01 2.947334276E-02
 3.500000000E+00 -1.000000000E-01 2.937148378E-02
 3.500000000E+00 -5.000000000E-02 2.872836246E-02
 3.500000000E+00 -2.752242878E-12 2.832393416E-02
 3.500000000E+00 5.000000000E-02 2.786335012E-02
 3.500000000E+00 1.000000000E-01 2.712955482E-02
 3.500000000E+00 1.500000000E-01 2.572787289E-02
 3.500000000E+00 2.000000000E-01 2.367100051E-02
 3.500000000E+00 2.500000000E-01 2.112842971E-02
 3.500000000E+00 3.000000000E-01 1.847196473E-02
 3.500000000E+00 3.500000000E-01 1.586536340E-02
 3.500000000E+00 4.000000000E-01 1.342990785E-02
 3.500000000E+00 4.500000000E-01 1.115974392E-02
 3.500000000E+00 5.000000000E-01 9.052386090E-03
 3.500000000E+00 5.500000000E-01 7.187799860E-03
 3.500000000E+00 6.000000000E-01 5.876217565E-03
 3.500000000E+00 6.500000000E-01 5.064097059E-03
 3.500000000E+00 7.000000000E-01 4.601553002E-03
 3.500000000E+00 7.500000000E-01 3.976941745E-03
 3.500000000E+00 8.000000000E-01 2.200137689E-03
 3.500000000E+00 8.500000000E-01 -1.083783325E-03
 3.500000000E+00 9.000000000E-01 -5.670809582E-03
 3.500000000E+00 9.500000000E-01 -1.213827948E-02
 3.450000000E+00 1.000000000E+00 -6.257658277E-03
 3.400000000E+00 1.000000000E+00 -1.143664393E-03
 3.350000000E+00 1.000000000E+00 1.393233717E-03
 3.300000000E+00 1.000000000E+00 2.414529455E-03
 3.250000000E+00 1.000000000E+00 3.120459725E-03
 3.200000000E+00 1.000000000E+00 3.364015554E-03
 3.150000000E+00 1.000000000E+00 3.481138844E-03
 3.100000000E+00 1.000000000E+00 3.432929257E-03
 3.050000000E+00 1.000000000E+00 3.290127011E-03
 3.000000000E+00 1.000000000E+00 3.012597452E-03
 2.950000000E+00 1.000000000E+00 2.684483625E-03
 2.900000000E+00 1.000000000E+00 2.124947334E-03
 2.850000000E+00 1.000000000E+00 1.606357133E-03
 2.800000000E+00 1.000000000E+00 1.017333364E-03
 2.750000000E+00 1.000000000E+00 3.487187278E-04
 2.700000000E+00 1.000000000E+00 -2.311113727E-04
 2.650000000E+00 1.000000000E+00 -9.967565161E-04
 2.600000000E+00 1.000000000E+00 -1.762019756E-03
 2.550000000E+00 1.000000000E+00 -2.569732318E-03
 2.500000000E+00 1.000000000E+00 -3.432286950E-03
 2.450000000E+00 1.000000000E+00 -4.419734346E-03
 2.400000000E+00 1.000000000E+00 -5.409718582E-03
 2.350000000E+00 1.000000000E+00 -6.488690066E-03
 2.300000000E+00 1.000000000E+00 -7.569531446E-03
 2.250000000E+00 1.000000000E+00 -8.710458686E-03
 2.200000000E+00 1.000000000E+00 -1.002575947E-02
 2.150000000E+00 1.000000000E+00 -1.142510778E-02
 2.100000000E+00 1.000000000E+00 -1.279041931E-02
 2.050000000E+00 1.000000000E+00 -1.440346550E-02
 2.000000000E+00 1.000000000E+00 -1.602505261E-02
 1.950000000E+00 1.000000000E+00 -1.776282177E-02
 1.900000000E+00 1.000000000E+00 -1.973044410E-02
 1.850000000E+00 1.000000000E+00 -2.178487043E-02
 1.800000000E+00 1.000000000E+00 -2.401947670E-02
 1.750000000E+00 1.000000000E+00 -2.639881614E-02
 1.700000000E+00 1.000000000E+00 -2.897259829E-02
 1.650000000E+00 1.000000000E+00 -3.169730077E-02
 1.600000000E+00 1.000000000E+00 -3.467783712E-02
 1.550000000E+00 1.000000000E+00 -3.785179779E-02
 1.500000000E+00 1.000000000E+00 -4.123783551E-02
 1.450000000E+00 1.000000000E+00 -4.480433289E-02
 1.400000000E+00 1.000000000E+00 -4.872095757E-02
 1.350000000E+00 1.000000000E+00 -5.257051974E-02
 1.300000000E+00 1.000000000E+00 -5.679979042E-02
 1.250000000E+00 1.000000000E+00 -6.102052059E-02
 1.200000000E+00 1.000000000E+00 -6.542319273E-02
 1.150000000E+00 1.000000000E+00 -6.983242915E-02
 1.100000000E+00 1.000000000E+00 -7.379391656E-02
 1.050000000E+00 1.000000000E+00 -7.795799522E-02
 1.000000000E+00 1.000000000E+00 -8.205493821E-02
 9.500000000E-01 1.000000000E+00 -8.545854253E-02
 9.000000000E-01 1.000000000E+00 -8.857595531E-02
 8.500000000E-01 1.000000000E+00 -9.085426939E-02
 8.000000000E-01 1.000000000E+00 -9.265574188E-02
 7.500000000E-01 1.000000000E+00 -9.365121145E-02
 7.000000000E-01 1.000000000E+00 -9.349946810E-02
 6.500000000E-01 1.000000000E+00 -9.273021130E-02
 6.000000000E-01 1.000000000E+00 -9.115374657E-02
 5.500000000E-01 1.000000000E+00 -8.789413065E-02
 5.000000000E-01 1.000000000E+00 -8.485714450E-02
 4.500000000E-01 1.000000000E+00 -7.963824862E-02
 4.000000000E-01 1.000000000E+00 -7.514878066E-02
 3.500000000E-01 1.000000000E+00 -6.909231548E-02
 3.000000000E-01 1.000000000E+00 -6.299937089E-02
 2.500000000E-01 1.000000000E+00 -5.634747000E-02
 2.000000000E-01 1.000000000E+00 -4.931450903E-02
 1.500000000E-01 1.000000000E+00 -4.275398764E-02
 1.000000000E-01 1.000000000E+00 -3.601418270E-02
 5.000000000E-02 1.000000000E+00 -2.975299412E-02
 1.733724275E-12 1.000000000E+00 -2.373547752E-02
 -5.000000000E-02 1.000000000E+00 -1.813251750E-02
 -1.000000000E-01 1.000000000E+00 -1.317302592E-02
 -1.500000000E-01 1.000000000E+00 -8.859387628E-03
 -2.000000000E-01 1.000000000E+00 -5.207521555E-03
 -2.500000000E-01 1.000000000E+00 -2.412677261E-03
 -3.000000000E-01 1.000000000E+00 -3.172006435E-04
 -3.500000000E-01 1.000000000E+00 1.211538128E-03
 -4.000000000E-01 1.000000000E+00 1.929103226E-03
 -4.500000000E-01 1.000000000E+00 1.859351174E-03
 8.731364218E-01 -9.033778872E-03 2.756027398E-01
 7.970706240E-01 -1.905925021E-02 1.803895240E-01
 7.283885030E-01 -2.736191014E-02 8.584326097E-02
 6.635256225E-01 -3.827895756E-02 -3.825792987E-03
 9.668627721E-01 -5.630773349E-03 3.125382360E-01
 5.971492739E-01 -4.796205194E-02 -1.169922377E-01
 5.317621649E-01 -5.769548263E-02 -2.438200513E-01
 4.682853508E-01 -6.451696626E-02 -3.762864849E-01
 4.107901480E-01 -6.917360041E-02 -4.551658341E-01
 3.529895907E-01 -7.045592260E-02 -4.798217003E-01
 3.008426291E-01 -7.021891889E-02 -4.563866675E-01