TITLE     = "Visualization of the solution"
VARIABLES = "x"
"y"
"Pressure_Coefficient"
ZONE T="Zone"
 STRANDID=0, SOLUTIONTIME=0
 Nodes=12035, Elements=23489, ZONETYPE=FEQuadrilateral
 DATAPACKING=POINT
 DT=(DOUBLE DOUBLE DOUBLE )
 1.000118136E+00 5.046302686E-04 2.481990246E-01
 9.857912064E-01 3.258239245E-03 1.709755675E-01
 9.727350473E-01 5.822941661E-03 1.080335021E-01
 9.562107325E-01 9.011644870E-03 6.208252936E-02
 9.411567450E-01 1.189460792E-02 3.189586556E-02
 9.280440807E-01 1.446400490E-02 -6.921894987E-03
 9.163671136E-01 1.673062146E-02 -4.406709260E-02
 9.041315317E-01 1.900691912E-02 -5.351990605E-02
 8.923548460E-01 2.125794813E-02 -9.137402105E-02
 8.801599145E-01 2.351339906E-02 -1.202802214E-01
 8.677533269E-01 2.570568770E-02 -1.263126088E-01
 8.555066586E-01 2.790551260E-02 -1.569562527E-01
 8.432657123E-01 3.003484942E-02 -1.825394832E-01
 8.315922022E-01 3.197184950E-02 -1.865918936E-01
 8.199232817E-01 3.391094878E-02 -2.063404044E-01
 8.073887825E-01 3.593454883E-02 -2.193009222E-01
 7.947158217E-01 3.795770556E-02 -2.336753927E-01
 7.829995155E-01 3.982738778E-02 -2.634070319E-01
 7.706642151E-01 4.168623313E-02 -2.633024700E-01
 7.596038580E-01 4.339333251E-02 -2.975271995E-01
 7.468175292E-01 4.523427784E-02 -2.996860062E-01
 7.334907651E-01 4.714798182E-02 -3.197493754E-01
 7.229750752E-01 4.862000048E-02 -3.357120743E-01
 7.121397257E-01 5.009191111E-02 -3.435553240E-01
 7.007998824E-01 5.162736773E-02 -3.697737093E-01
 6.878259778E-01 5.328558758E-02 -3.770407691E-01
 6.756431460E-01 5.482710525E-02 -4.009949904E-01
 6.652865410E-01 5.607886612E-02 -4.168635441E-01
 6.539810896E-01 5.737387761E-02 -4.207348479E-01
 6.430489421E-01 5.861134827E-02 -4.397109621E-01
 6.314173341E-01 5.986766890E-02 -4.584374656E-01
 6.201031804E-01 6.100843102E-02 -4.670344616E-01
 6.098074913E-01 6.199840084E-02 -4.717404393E-01
 5.980493426E-01 6.310743839E-02 -4.978525685E-01
 5.865104795E-01 6.408879161E-02 -5.034446125E-01
 5.731092095E-01 6.514415145E-02 -5.102976711E-01
 5.604922771E-01 6.606895477E-02 -5.231206054E-01
 5.479505658E-01 6.689403951E-02 -5.265375362E-01
 5.369762182E-01 6.757460535E-02 -5.408401497E-01
 5.250829458E-01 6.821853667E-02 -5.461855699E-01
 5.122573972E-01 6.881235540E-02 -5.456525960E-01
 5.012050867E-01 6.926448643E-02 -5.473791040E-01
 4.879668653E-01 6.972260773E-02 -5.470488001E-01
 4.748232663E-01 7.010915875E-02 -5.524487066E-01
 4.609529972E-01 7.042149454E-02 -5.572378647E-01
 4.471487105E-01 7.062022388E-02 -5.563517151E-01
 4.341309369E-01 7.071140409E-02 -5.502471372E-01
 4.212313592E-01 7.073450089E-02 -5.492189377E-01
 4.087262452E-01 7.068328559E-02 -5.474705270E-01
 3.958854079E-01 7.055519521E-02 -5.462152938E-01
 3.838725388E-01 7.036220282E-02 -5.421254980E-01
 3.721518219E-01 7.011704892E-02 -5.413833340E-01
 3.586002588E-01 6.973889470E-02 -5.351688425E-01
 3.458376527E-01 6.930895895E-02 -5.291821069E-01
 3.328670263E-01 6.880912185E-02 -5.293266303E-01
 3.223012686E-01 6.834574044E-02 -5.302071801E-01
 3.095212579E-01 6.768444926E-02 -5.185585897E-01
 2.967453003E-01 6.696281582E-02 -5.151603329E-01
 2.829361856E-01 6.609092653E-02 -5.122110550E-01
 2.704056203E-01 6.520894170E-02 -5.064348834E-01
 2.583478689E-01 6.427875161E-02 -4.988803945E-01
 2.458089143E-01 6.322780997E-02 -4.905693225E-01
 2.332093269E-01 6.209158152E-02 -4.833164492E-01
 2.208854854E-01 6.090407819E-02 -4.817219444E-01
 2.088322639E-01 5.963579565E-02 -4.709433688E-01
 1.970800161E-01 5.831795186E-02 -4.614765547E-01
 1.846859306E-01 5.683794618E-02 -4.557648398E-01
 1.729429811E-01 5.533223972E-02 -4.457526301E-01
 1.614478379E-01 5.376351625E-02 -4.366569020E-01
 1.498779505E-01 5.208010226E-02 -4.256978009E-01
 1.390843540E-01 5.041670799E-02 -4.180613864E-01
 1.278981119E-01 4.857025295E-02 -4.028301035E-01
 1.168662831E-01 4.664573446E-02 -3.955281769E-01
 1.063518599E-01 4.467775300E-02 -3.778823571E-01
 9.657926857E-02 4.272982851E-02 -3.636858242E-01
 8.595473319E-02 4.047719017E-02 -3.498771163E-01
 7.453788072E-02 3.785913065E-02 -3.315570308E-01
 6.463774294E-02 3.539955616E-02 -3.076404834E-01
 5.488825589E-02 3.277435154E-02 -2.816523554E-01
 4.589516297E-02 3.013435192E-02 -2.585019939E-01
 3.817305714E-02 2.765352279E-02 -2.292810000E-01
 3.133997321E-02 2.524412610E-02 -1.925669802E-01
 2.554777451E-02 2.301035821E-02 -1.728754367E-01
 2.132991143E-02 2.122963965E-02 -1.322321877E-01
 1.717402600E-02 1.931551844E-02 -9.615841873E-02
 1.404656470E-02 1.773792133E-02 -4.956201400E-02
 1.127549075E-02 1.620713994E-02 -1.272206895E-02
 9.218588471E-03 1.497337501E-02 3.114858354E-02
 7.382760290E-03 1.376658678E-02 6.439520750E-02
 5.721597467E-03 1.257045008E-02 1.453134339E-01
 3.571933834E-03 1.080952585E-02 2.476120153E-01
 1.773202792E-03 9.044998325E-03 3.378570204E-01
 2.759325434E-04 7.200180553E-03 6.025839096E-01
 -1.167876297E-03 4.595048260E-03 8.390670005E-01
 -1.758049359E-03 2.635197481E-03 9.958611622E-01
 -1.929761260E-03 1.052878564E-03 1.089159503E+00
 -1.808647066E-03 -7.761442102E-04 1.116523283E+00
 -1.308543957E-03 -2.761281095E-03 1.071351127E+00
 -2.349274291E-04 -5.128315184E-03 9.425282517E-01
 1.394257415E-03 -7.571626920E-03 7.666738613E-01
 3.626078600E-03 -1.011602581E-02 6.038385860E-01
 5.599992815E-03 -1.197549514E-02 4.665717028E-01
 7.898782380E-03 -1.386596262E-02 3.813345272E-01
 9.654189460E-03 -1.516533457E-02 2.930574912E-01
 1.185048930E-02 -1.665540598E-02 2.415549242E-01
 1.433574874E-02 -1.820115931E-02 1.719384543E-01
 1.772655174E-02 -2.012255788E-02 1.086743409E-01
 2.090352215E-02 -2.177214064E-02 3.872321149E-02
 2.504923381E-02 -2.373100258E-02 -5.196792266E-03
 3.053855151E-02 -2.608689107E-02 -5.829094560E-02
 3.642911091E-02 -2.836400457E-02 -1.097065083E-01
 4.352708161E-02 -3.085879050E-02 -1.479606762E-01
 5.118393525E-02 -3.328334913E-02 -1.861992486E-01
 6.016775966E-02 -3.586079180E-02 -2.102349748E-01
 6.899666041E-02 -3.817930818E-02 -2.402123706E-01
 7.943185419E-02 -4.068507254E-02 -2.589122210E-01
 8.924033493E-02 -4.284894466E-02 -2.752209490E-01
 9.968376160E-02 -4.498559609E-02 -2.924588969E-01
 1.107977033E-01 -4.708932713E-02 -3.060000267E-01
 1.221651956E-01 -4.908927903E-02 -3.186851412E-01
 1.338614374E-01 -5.100728944E-02 -3.329164711E-01
 1.441316456E-01 -5.257894099E-02 -3.446879883E-01
 1.554641724E-01 -5.420730636E-02 -3.564284903E-01
 1.672507226E-01 -5.578748882E-02 -3.674547041E-01
 1.787852794E-01 -5.722957850E-02 -3.796745673E-01
 1.903928965E-01 -5.857509375E-02 -3.885019236E-01
 2.009198070E-01 -5.972309038E-02 -4.033359788E-01
 2.120126933E-01 -6.083678454E-02 -4.116214522E-01
 2.240875065E-01 -6.194819510E-02 -4.195588893E-01
 2.364348173E-01 -6.299649179E-02 -4.347967865E-01
 2.483287007E-01 -6.389425695E-02 -4.431037734E-01
 2.604035437E-01 -6.470427662E-02 -4.511094168E-01
 2.712146938E-01 -6.535556912E-02 -4.654933548E-01
 2.834305465E-01 -6.596998870E-02 -4.678508783E-01
 2.954342961E-01 -6.648343801E-02 -4.795127103E-01
 3.082556427E-01 -6.690050662E-02 -4.828842828E-01
 3.196676373E-01 -6.717253476E-02 -4.903975530E-01
 3.323957920E-01 -6.735584140E-02 -4.946354458E-01
 3.429270089E-01 -6.739760190E-02 -4.947481956E-01
 3.544860184E-01 -6.734684110E-02 -4.950275149E-01
 3.654411435E-01 -6.719613075E-02 -4.954661372E-01
 3.761214018E-01 -6.694321334E-02 -4.906204274E-01
 3.877383173E-01 -6.655387580E-02 -4.820558614E-01
 4.007751644E-01 -6.597019732E-02 -4.657289053E-01
 4.131826162E-01 -6.530836970E-02 -4.599964578E-01
 4.257941246E-01 -6.447657198E-02 -4.374657191E-01
 4.383313060E-01 -6.354174763E-02 -4.233810437E-01
 4.508817792E-01 -6.246129051E-02 -3.957953949E-01
 4.630977511E-01 -6.131689250E-02 -3.759765820E-01
 4.754724801E-01 -6.006459147E-02 -3.578258532E-01
 4.873371422E-01 -5.872853473E-02 -3.223990543E-01
 5.001203418E-01 -5.723104998E-02 -2.979781787E-01
 5.139204860E-01 -5.552653596E-02 -2.704763045E-01
 5.274122357E-01 -5.376120284E-02 -2.381529829E-01
 5.402537584E-01 -5.202834308E-02 -2.118350810E-01
 5.537598133E-01 -5.017071217E-02 -1.915244540E-01
 5.670737028E-01 -4.825072736E-02 -1.595506482E-01
 5.804155469E-01 -4.629116133E-02 -1.338556067E-01
 5.928822756E-01 -4.442512244E-02 -1.079802821E-01
 6.057093740E-01 -4.249087721E-02 -8.461613177E-02
 6.197482347E-01 -4.035024345E-02 -5.733113848E-02
 6.341609359E-01 -3.817803785E-02 -4.050427654E-02
 6.485595107E-01 -3.597796708E-02 -1.789866952E-02
 6.616452336E-01 -3.396061808E-02 3.952228456E-03
 6.751572490E-01 -3.186640143E-02 2.825895627E-02
 6.876384020E-01 -2.996326424E-02 4.311134732E-02
 6.998481750E-01 -2.810010128E-02 6.144522387E-02
 7.148129344E-01 -2.582716383E-02 8.194292761E-02
 7.280340791E-01 -2.384576201E-02 9.651445888E-02
 7.392715812E-01 -2.212468348E-02 1.235070200E-01
 7.525318861E-01 -2.017552778E-02 1.359641915E-01
 7.650932074E-01 -1.835403033E-02 1.527892148E-01
 7.783190012E-01 -1.645636745E-02 1.726078200E-01
 7.906345129E-01 -1.474376395E-02 1.866026127E-01
 8.034796119E-01 -1.298907492E-02 2.034431201E-01
 8.145413399E-01 -1.150727645E-02 2.204543971E-01
 8.257488012E-01 -1.003080606E-02 2.424402411E-01
 8.386665583E-01 -8.468223736E-03 2.485145335E-01
 8.510434628E-01 -6.990572438E-03 2.695344690E-01
 8.631751537E-01 -5.618800875E-03 2.872775438E-01
 8.742263317E-01 -4.457413685E-03 3.031437720E-01
 8.855410218E-01 -3.374378197E-03 3.158745910E-01
 8.985363245E-01 -2.286997624E-03 3.251189939E-01
 9.088959098E-01 -1.525847241E-03 3.339377031E-01
 9.191924930E-01 -8.554417873E-04 3.436187110E-01
 9.289340377E-01 -3.371933126E-04 3.476292333E-01
 9.382256866E-01 5.863654951E-05 3.531126442E-01
 9.500334859E-01 4.400727048E-04 3.561759771E-01
 9.632644057E-01 6.919285515E-04 3.597500513E-01
 9.773026109E-01 7.739856956E-04 3.713601320E-01
 9.896301031E-01 6.866463809E-04 3.953383751E-01
 -5.000000000E-01 -1.000000000E+00 1.350207643E-02
 3.500000000E+00 -1.000000000E+00 7.925278341E-03
 3.500000000E+00 1.000000000E+00 -2.298684088E-02
 -5.000000000E-01 1.000000000E+00 2.324721335E-04
 9.929546714E-01 1.881434757E-03 2.401066839E-01
 9.792631269E-01 4.540590453E-03 1.343837333E-01
 9.644728899E-01 7.417293265E-03 8.369944305E-02
 9.486837387E-01 1.045312639E-02 4.745852146E-02
 9.346004128E-01 1.317930641E-02 9.820811384E-03
 9.222055972E-01 1.559731318E-02 -2.930904054E-02
 9.102493227E-01 1.786877029E-02 -4.456019812E-02
 8.982431889E-01 2.013243362E-02 -7.564859055E-02
 8.862573802E-01 2.238567360E-02 -1.084040722E-01
 8.739566207E-01 2.460954338E-02 -1.191087847E-01
 8.616299927E-01 2.680560015E-02 -1.436604556E-01
 8.493861854E-01 2.897018101E-02 -1.723550820E-01
 8.374289572E-01 3.100334946E-02 -1.816059607E-01
 8.257577419E-01 3.294139914E-02 -1.979136415E-01
 8.136560321E-01 3.492274880E-02 -2.119624329E-01
 8.010523021E-01 3.694612719E-02 -2.250789640E-01
 7.888576686E-01 3.889254667E-02 -2.531269676E-01
 7.768318653E-01 4.075681046E-02 -2.585367935E-01
 7.651340365E-01 4.253978282E-02 -2.861897677E-01
 7.532106936E-01 4.431380518E-02 -2.953743872E-01
 7.401541471E-01 4.619112983E-02 -3.095352358E-01
 7.282329202E-01 4.788399115E-02 -3.284388134E-01
 7.175574005E-01 4.935595579E-02 -3.375085954E-01
 7.064698040E-01 5.085963942E-02 -3.601313862E-01
 6.943129301E-01 5.245647766E-02 -3.707089570E-01
 6.817345619E-01 5.405634642E-02 -3.899302933E-01
 6.704648435E-01 5.545298569E-02 -4.108986645E-01
 6.596338153E-01 5.672637187E-02 -4.159560836E-01
 6.485150158E-01 5.799261294E-02 -4.313928208E-01
 6.372331381E-01 5.923950858E-02 -4.506888901E-01
 6.257602572E-01 6.043804996E-02 -4.617440140E-01
 6.149553359E-01 6.150341593E-02 -4.673570089E-01
 6.039284170E-01 6.255291961E-02 -4.877740384E-01
 5.922799110E-01 6.359811500E-02 -5.016132927E-01
 5.798098445E-01 6.461647153E-02 -5.054925240E-01
 5.668007433E-01 6.560655311E-02 -5.179416934E-01
 5.542214215E-01 6.648149714E-02 -5.221865431E-01
 5.424633920E-01 6.723432243E-02 -5.361643066E-01
 5.310295820E-01 6.789657101E-02 -5.451166142E-01
 5.186701715E-01 6.851544604E-02 -5.438684722E-01
 5.067312419E-01 6.903842092E-02 -5.482453686E-01
 4.945859760E-01 6.949354708E-02 -5.462515914E-01
 4.813950658E-01 6.991588324E-02 -5.508454614E-01
 4.678881317E-01 7.026532665E-02 -5.560302353E-01
 4.540508538E-01 7.052085921E-02 -5.568270243E-01
 4.406398237E-01 7.066581398E-02 -5.521629785E-01
 4.276811481E-01 7.072295249E-02 -5.494628116E-01
 4.149788022E-01 7.070889324E-02 -5.486460680E-01
 4.023058265E-01 7.061924040E-02 -5.465590957E-01
 3.898789734E-01 7.045869902E-02 -5.432892821E-01
 3.780121803E-01 7.023962587E-02 -5.441151871E-01
 3.653760403E-01 6.992797181E-02 -5.376327571E-01
 3.522189558E-01 6.952392682E-02 -5.316466693E-01
 3.393523395E-01 6.905904040E-02 -5.275762750E-01
 3.275841475E-01 6.857743114E-02 -5.334678934E-01
 3.159112632E-01 6.801509485E-02 -5.228493199E-01
 3.031332791E-01 6.732363254E-02 -5.180297987E-01
 2.898407429E-01 6.652687117E-02 -5.134365416E-01
 2.766709030E-01 6.564993411E-02 -5.089016392E-01
 2.643767446E-01 6.474384665E-02 -5.031403051E-01
 2.520783916E-01 6.375328079E-02 -4.944698945E-01
 2.395091206E-01 6.265969574E-02 -4.863680862E-01
 2.270474061E-01 6.149782985E-02 -4.838333338E-01
 2.148588747E-01 6.026993692E-02 -4.756359930E-01
 2.029561400E-01 5.897687376E-02 -4.666337485E-01
 1.908829734E-01 5.757794902E-02 -4.588049428E-01
 1.788144559E-01 5.608509295E-02 -4.504407219E-01
 1.671954095E-01 5.454787798E-02 -4.419236728E-01
 1.556628942E-01 5.292180926E-02 -4.301817278E-01
 1.444811523E-01 5.124840513E-02 -4.234894437E-01
 1.334912330E-01 4.949348047E-02 -4.099798775E-01
 1.223821975E-01 4.760799371E-02 -3.997481631E-01
 1.116090715E-01 4.566174373E-02 -3.903405344E-01
 9.126700088E-02 4.160350934E-02 -3.608833994E-01
 8.024630696E-02 3.916816041E-02 -3.389984549E-01
 6.958781183E-02 3.662934341E-02 -3.241723701E-01
 7.421425730E-02 -3.943219036E-02 -2.546075623E-01
 9.446204826E-02 -4.391727038E-02 -2.878593576E-01
 1.052407324E-01 -4.603746161E-02 -2.992010713E-01
 1.164814495E-01 -4.808930308E-02 -3.127463760E-01
 1.280133165E-01 -5.004828423E-02 -3.259843422E-01
 1.389965415E-01 -5.179311521E-02 -3.412371940E-01
 1.497979090E-01 -5.339312367E-02 -3.490543667E-01
 1.613574475E-01 -5.499739759E-02 -3.617577532E-01
 1.730180010E-01 -5.650853366E-02 -3.740531379E-01
 1.845890880E-01 -5.790233612E-02 -3.845770585E-01
 1.956563517E-01 -5.914909206E-02 -3.957182846E-01
 2.064662501E-01 -6.027993746E-02 -4.075386298E-01
 2.180500999E-01 -6.139248982E-02 -4.155723477E-01
 2.302611619E-01 -6.247234344E-02 -4.260503298E-01
 2.423817590E-01 -6.344537437E-02 -4.401637607E-01
 2.543661222E-01 -6.429926679E-02 -4.472747137E-01
 2.658091187E-01 -6.502992287E-02 -4.580593252E-01
 2.773226202E-01 -6.566277891E-02 -4.664462566E-01
 2.894324213E-01 -6.622671336E-02 -4.725741273E-01
 3.018449694E-01 -6.669197232E-02 -4.815660926E-01
 3.139616400E-01 -6.703652069E-02 -4.876816904E-01
 3.260317147E-01 -6.726418808E-02 -4.911728550E-01
 3.376614004E-01 -6.737672165E-02 -4.982813327E-01
 3.487065136E-01 -6.737222150E-02 -4.933333724E-01
 3.599635810E-01 -6.727148592E-02 -4.959140324E-01
 3.707812726E-01 -6.706967205E-02 -4.937638014E-01
 3.819298595E-01 -6.674854457E-02 -4.858433597E-01
 3.942567408E-01 -6.626203656E-02 -4.738603452E-01
 4.069788903E-01 -6.563928351E-02 -4.623158251E-01
 4.194883704E-01 -6.489247084E-02 -4.505909580E-01
 4.320627153E-01 -6.400915980E-02 -4.297083174E-01
 4.446065426E-01 -6.300151907E-02 -4.117521820E-01
 4.569897652E-01 -6.188909151E-02 -3.852793258E-01
 4.692851156E-01 -6.069074199E-02 -3.660598919E-01
 4.814048111E-01 -5.939656310E-02 -3.440769367E-01
 4.937287420E-01 -5.797979236E-02 -3.087934912E-01
 5.070204139E-01 -5.637879297E-02 -2.839325645E-01
 5.206663609E-01 -5.464386940E-02 -2.560315272E-01
 5.338329971E-01 -5.289477296E-02 -2.248710141E-01
 5.470067859E-01 -5.109952763E-02 -2.003066888E-01
 5.604167581E-01 -4.921071976E-02 -1.772499966E-01
 5.737446249E-01 -4.727094434E-02 -1.466618467E-01
 5.866489112E-01 -4.535814188E-02 -1.213985338E-01
 5.992958248E-01 -4.345799983E-02 -9.630684011E-02
 6.127288043E-01 -4.142056033E-02 -7.179348981E-02
 6.269545853E-01 -3.926414065E-02 -4.710426344E-02
 6.413602233E-01 -3.707800247E-02 -2.968284115E-02
 6.551023722E-01 -3.496929258E-02 -7.458545746E-03
 6.684012413E-01 -3.291350976E-02 1.532159162E-02
 6.813978255E-01 -3.091483284E-02 3.699305389E-02
 6.937432885E-01 -2.903168276E-02 5.207014623E-02
 7.073305547E-01 -2.696363255E-02 7.117773135E-02
 7.214235067E-01 -2.483646292E-02 9.045157630E-02
 7.336528301E-01 -2.298522275E-02 1.069906166E-01
 7.459017336E-01 -2.115010563E-02 1.304310408E-01
 7.588125467E-01 -1.926477905E-02 1.446611994E-01
 7.717061043E-01 -1.740519889E-02 1.617239765E-01
 7.844767570E-01 -1.560006570E-02 1.804374971E-01
 7.970570624E-01 -1.386641944E-02 1.947135216E-01
 8.090104759E-01 -1.224817568E-02 2.118379190E-01
 8.201450706E-01 -1.076904126E-02 2.295485346E-01
 8.322076797E-01 -9.249514900E-03 2.468526017E-01
 8.448550105E-01 -7.729398087E-03 2.575882202E-01
 8.571093082E-01 -6.304686656E-03 2.779118923E-01
 8.687007427E-01 -5.038107280E-03 2.953393897E-01
 8.798836768E-01 -3.915895941E-03 3.087441509E-01
 8.920386732E-01 -2.830687910E-03 3.205266471E-01
 9.037161171E-01 -1.906422433E-03 3.311843058E-01
 9.140442014E-01 -1.190644514E-03 3.389899407E-01
 9.441295862E-01 2.493546272E-04 3.528648830E-01
 9.566489458E-01 5.660006282E-04 3.565130959E-01
 9.702835083E-01 7.329571235E-04 3.619574105E-01
 9.834663570E-01 7.303160382E-04 3.782691084E-01
 9.948741198E-01 5.956383247E-04 4.544812968E-01
 -5.000000000E-01 9.500000000E-01 4.937204824E-04
 -5.000000000E-01 9.000000000E-01 1.213006533E-03
 -5.000000000E-01 8.500000000E-01 2.421197115E-03
 -5.000000000E-01 8.000000000E-01 4.372876582E-03
 -5.000000000E-01 7.500000000E-01 7.223671576E-03
 -5.000000000E-01 7.000000000E-01 1.047110202E-02
 -5.000000000E-01 6.500000000E-01 1.504236564E-02
 -5.000000000E-01 6.000000000E-01 2.025406448E-02
 -5.000000000E-01 5.500000000E-01 2.650162581E-02
 -5.000000000E-01 5.000000000E-01 3.364301489E-02
 -5.000000000E-01 4.500000000E-01 4.162587055E-02
 -5.000000000E-01 4.000000000E-01 5.029400847E-02
 -5.000000000E-01 3.500000000E-01 5.979784719E-02
 -5.000000000E-01 3.000000000E-01 6.924473490E-02
 -5.000000000E-01 2.500000000E-01 7.914368968E-02
 -5.000000000E-01 2.000000000E-01 8.815662769E-02
 -5.000000000E-01 1.500000000E-01 9.659935050E-02
 -5.000000000E-01 1.000000000E-01 1.036642694E-01
 -5.000000000E-01 5.000000000E-02 1.089387803E-01
 -5.000000000E-01 2.752242878E-12 1.122324086E-01
 -5.000000000E-01 -5.000000000E-02 1.133491000E-01
 -5.000000000E-01 -1.000000000E-01 1.122737915E-01
 -5.000000000E-01 -1.500000000E-01 1.095135004E-01
 -5.000000000E-01 -2.000000000E-01 1.047906519E-01
 -5.000000000E-01 -2.500000000E-01 9.899105437E-02
 -5.000000000E-01 -3.000000000E-01 9.252353436E-02
 -5.000000000E-01 -3.500000000E-01 8.542439431E-02
 -5.000000000E-01 -4.000000000E-01 7.832728855E-02
 -5.000000000E-01 -4.500000000E-01 7.135566607E-02
 -5.000000000E-01 -5.000000000E-01 6.459625969E-02
 -5.000000000E-01 -5.500000000E-01 5.837631656E-02
 -5.000000000E-01 -6.000000000E-01 5.250579523E-02
 -5.000000000E-01 -6.500000000E-01 4.718802482E-02
 -5.000000000E-01 -7.000000000E-01 4.231684628E-02
 -5.000000000E-01 -7.500000000E-01 3.776983729E-02
 -5.000000000E-01 -8.000000000E-01 3.357902942E-02
 -5.000000000E-01 -8.500000000E-01 2.941438625E-02
 -5.000000000E-01 -9.000000000E-01 2.499329886E-02
 -5.000000000E-01 -9.500000000E-01 1.852255149E-02
 -4.500000000E-01 -1.000000000E+00 1.685389101E-02
 -4.000000000E-01 -1.000000000E+00 2.181406157E-02
 -3.500000000E-01 -1.000000000E+00 2.394916392E-02
 -3.000000000E-01 -1.000000000E+00 2.483101243E-02
 -2.500000000E-01 -1.000000000E+00 2.482904145E-02
 -2.000000000E-01 -1.000000000E+00 2.390407174E-02
 -1.500000000E-01 -1.000000000E+00 2.222307081E-02
 -1.000000000E-01 -1.000000000E+00 1.982803308E-02
 -5.000000000E-02 -1.000000000E+00 1.670571502E-02
 -9.424683256E-13 -1.000000000E+00 1.325982947E-02
 5.000000000E-02 -1.000000000E+00 9.282349225E-03
 1.000000000E-01 -1.000000000E+00 5.361352880E-03
 1.500000000E-01 -1.000000000E+00 8.490213473E-04
 2.000000000E-01 -1.000000000E+00 -3.184223075E-03
 2.500000000E-01 -1.000000000E+00 -7.029970903E-03
 3.000000000E-01 -1.000000000E+00 -1.029488706E-02
 3.500000000E-01 -1.000000000E+00 -1.302452683E-02
 4.000000000E-01 -1.000000000E+00 -1.497943305E-02
 4.500000000E-01 -1.000000000E+00 -1.612703275E-02
 5.000000000E-01 -1.000000000E+00 -1.635461580E-02
 5.500000000E-01 -1.000000000E+00 -1.582963904E-02
 6.000000000E-01 -1.000000000E+00 -1.428749669E-02
 6.500000000E-01 -1.000000000E+00 -1.206945504E-02
 7.000000000E-01 -1.000000000E+00 -9.207872068E-03
 7.500000000E-01 -1.000000000E+00 -5.894531473E-03
 8.000000000E-01 -1.000000000E+00 -2.216330631E-03
 8.500000000E-01 -1.000000000E+00 1.595396168E-03
 9.000000000E-01 -1.000000000E+00 5.598323330E-03
 9.500000000E-01 -1.000000000E+00 9.448661055E-03
 1.000000000E+00 -1.000000000E+00 1.313739317E-02
 1.050000000E+00 -1.000000000E+00 1.656541905E-02
 1.100000000E+00 -1.000000000E+00 1.968904534E-02
 1.150000000E+00 -1.000000000E+00 2.247697050E-02
 1.200000000E+00 -1.000000000E+00 2.482625617E-02
 1.250000000E+00 -1.000000000E+00 2.682167353E-02
 1.300000000E+00 -1.000000000E+00 2.845953288E-02
 1.350000000E+00 -1.000000000E+00 2.971243656E-02
 1.400000000E+00 -1.000000000E+00 3.065430882E-02
 1.450000000E+00 -1.000000000E+00 3.128171118E-02
 1.500000000E+00 -1.000000000E+00 3.164680925E-02
 1.550000000E+00 -1.000000000E+00 3.180734011E-02
 1.600000000E+00 -1.000000000E+00 3.177565887E-02
 1.650000000E+00 -1.000000000E+00 3.159583816E-02
 1.700000000E+00 -1.000000000E+00 3.124793374E-02
 1.750000000E+00 -1.000000000E+00 3.085543226E-02
 1.800000000E+00 -1.000000000E+00 3.032838160E-02
 1.850000000E+00 -1.000000000E+00 2.982920062E-02
 1.900000000E+00 -1.000000000E+00 2.918136059E-02
 1.950000000E+00 -1.000000000E+00 2.859052161E-02
 2.000000000E+00 -1.000000000E+00 2.791227782E-02
 2.050000000E+00 -1.000000000E+00 2.728845230E-02
 2.100000000E+00 -1.000000000E+00 2.668231845E-02
 2.150000000E+00 -1.000000000E+00 2.604243055E-02
 2.200000000E+00 -1.000000000E+00 2.545664423E-02
 2.250000000E+00 -1.000000000E+00 2.492857156E-02
 2.300000000E+00 -1.000000000E+00 2.432959616E-02
 2.350000000E+00 -1.000000000E+00 2.385087878E-02
 2.400000000E+00 -1.000000000E+00 2.334581501E-02
 2.450000000E+00 -1.000000000E+00 2.287650862E-02
 2.500000000E+00 -1.000000000E+00 2.249286700E-02
 2.550000000E+00 -1.000000000E+00 2.209625587E-02
 2.600000000E+00 -1.000000000E+00 2.174389042E-02
 2.650000000E+00 -1.000000000E+00 2.142833069E-02
 2.700000000E+00 -1.000000000E+00 2.114593040E-02
 2.750000000E+00 -1.000000000E+00 2.086260846E-02
 2.800000000E+00 -1.000000000E+00 2.063649580E-02
 2.850000000E+00 -1.000000000E+00 2.039051255E-02
 2.900000000E+00 -1.000000000E+00 2.018889286E-02
 2.950000000E+00 -1.000000000E+00 1.996060671E-02
 3.000000000E+00 -1.000000000E+00 1.973927948E-02
 3.050000000E+00 -1.000000000E+00 1.948862759E-02
 3.100000000E+00 -1.000000000E+00 1.918105589E-02
 3.150000000E+00 -1.000000000E+00 1.884983587E-02
 3.200000000E+00 -1.000000000E+00 1.833841772E-02
 3.250000000E+00 -1.000000000E+00 1.776634694E-02
 3.300000000E+00 -1.000000000E+00 1.689791195E-02
 3.350000000E+00 -1.000000000E+00 1.579501192E-02
 3.400000000E+00 -1.000000000E+00 1.399441679E-02
 3.450000000E+00 -1.000000000E+00 1.112131701E-02
 3.500000000E+00 -9.500000000E-01 7.046248022E-03
 3.500000000E+00 -9.000000000E-01 8.600656111E-03
 3.500000000E+00 -8.500000000E-01 1.014596902E-02
 3.500000000E+00 -8.000000000E-01 1.173629884E-02
 3.500000000E+00 -7.500000000E-01 1.327203541E-02
 3.500000000E+00 -7.000000000E-01 1.486360351E-02
 3.500000000E+00 -6.500000000E-01 1.655592398E-02
 3.500000000E+00 -6.000000000E-01 1.840976652E-02
 3.500000000E+00 -5.500000000E-01 2.041401207E-02
 3.500000000E+00 -5.000000000E-01 2.256790430E-02
 3.500000000E+00 -4.500000000E-01 2.495173898E-02
 3.500000000E+00 -4.000000000E-01 2.739621607E-02
 3.500000000E+00 -3.500000000E-01 2.996439087E-02
 3.500000000E+00 -3.000000000E-01 3.228881515E-02
 3.500000000E+00 -2.500000000E-01 3.427006295E-02
 3.500000000E+00 -2.000000000E-01 3.553286561E-02
 3.500000000E+00 -1.500000000E-01 3.584478920E-02
 3.500000000E+00 -1.000000000E-01 3.559566791E-02
 3.500000000E+00 -5.000000000E-02 3.491815332E-02
 3.500000000E+00 -2.752242878E-12 3.435660137E-02
 3.500000000E+00 5.000000000E-02 3.348819205E-02
 3.500000000E+00 1.000000000E-01 3.228303405E-02
 3.500000000E+00 1.500000000E-01 3.015772031E-02
 3.500000000E+00 2.000000000E-01 2.731555925E-02
 3.500000000E+00 2.500000000E-01 2.408910655E-02
 3.500000000E+00 3.000000000E-01 2.073905758E-02
 3.500000000E+00 3.500000000E-01 1.751093196E-02
 3.500000000E+00 4.000000000E-01 1.444585867E-02
 3.500000000E+00 4.500000000E-01 1.166319428E-02
 3.500000000E+00 5.000000000E-01 9.113330222E-03
 3.500000000E+00 5.500000000E-01 6.978953104E-03
 3.500000000E+00 6.000000000E-01 5.471164849E-03
 3.500000000E+00 6.500000000E-01 4.846322833E-03
 3.500000000E+00 7.000000000E-01 4.611366715E-03
 3.500000000E+00 7.500000000E-01 3.816568540E-03
 3.500000000E+00 8.000000000E-01 9.269679017E-04
 3.500000000E+00 8.500000000E-01 -4.537091055E-03
 3.500000000E+00 9.000000000E-01 -1.221012749E-02
 3.500000000E+00 9.500000000E-01 -2.271918089E-02
 3.450000000E+00 1.000000000E+00 -1.338576203E-02
 3.400000000E+00 1.000000000E+00 -5.214537050E-03
 3.350000000E+00 1.000000000E+00 -1.307536811E-03
 3.300000000E+00 1.000000000E+00 5.111789094E-04
 3.250000000E+00 1.000000000E+00 1.623994840E-03
 3.200000000E+00 1.000000000E+00 2.169139262E-03
 3.150000000E+00 1.000000000E+00 2.457637467E-03
 3.100000000E+00 1.000000000E+00 2.386536189E-03
 3.050000000E+00 1.000000000E+00 2.266547891E-03
 3.000000000E+00 1.000000000E+00 1.942445545E-03
 2.950000000E+00 1.000000000E+00 1.459838626E-03
 2.900000000E+00 1.000000000E+00 9.965718654E-04
 2.850000000E+00 1.000000000E+00 4.034390178E-04
 2.800000000E+00 1.000000000E+00 -3.309582985E-04
 2.750000000E+00 1.000000000E+00 -9.961082933E-04
 2.700000000E+00 1.000000000E+00 -2.034855668E-03
 2.650000000E+00 1.000000000E+00 -3.058904094E-03
 2.600000000E+00 1.000000000E+00 -3.708084522E-03
 2.550000000E+00 1.000000000E+00 -5.086985258E-03
 2.500000000E+00 1.000000000E+00 -5.969839565E-03
 2.450000000E+00 1.000000000E+00 -7.139900288E-03
 2.400000000E+00 1.000000000E+00 -8.634810714E-03
 2.350000000E+00 1.000000000E+00 -9.483073373E-03
 2.300000000E+00 1.000000000E+00 -1.130821233E-02
 2.250000000E+00 1.000000000E+00 -1.280248388E-02
 2.200000000E+00 1.000000000E+00 -1.447596091E-02
 2.150000000E+00 1.000000000E+00 -1.626929375E-02
 2.100000000E+00 1.000000000E+00 -1.815825527E-02
 2.050000000E+00 1.000000000E+00 -2.018627295E-02
 2.000000000E+00 1.000000000E+00 -2.229682855E-02
 1.950000000E+00 1.000000000E+00 -2.451176296E-02
 1.900000000E+00 1.000000000E+00 -2.702689001E-02
 1.850000000E+00 1.000000000E+00 -2.969994060E-02
 1.800000000E+00 1.000000000E+00 -3.229517805E-02
 1.750000000E+00 1.000000000E+00 -3.608447963E-02
 1.700000000E+00 1.000000000E+00 -3.902592766E-02
 1.650000000E+00 1.000000000E+00 -4.278628180E-02
 1.600000000E+00 1.000000000E+00 -4.657795400E-02
 1.550000000E+00 1.000000000E+00 -5.075147849E-02
 1.500000000E+00 1.000000000E+00 -5.530963906E-02
 1.450000000E+00 1.000000000E+00 -6.004862216E-02
 1.400000000E+00 1.000000000E+00 -6.492362191E-02
 1.350000000E+00 1.000000000E+00 -6.996502610E-02
 1.300000000E+00 1.000000000E+00 -7.525874011E-02
 1.250000000E+00 1.000000000E+00 -8.093668961E-02
 1.200000000E+00 1.000000000E+00 -8.694938602E-02
 1.150000000E+00 1.000000000E+00 -9.257058509E-02
 1.100000000E+00 1.000000000E+00 -9.835905714E-02
 1.050000000E+00 1.000000000E+00 -1.039421175E-01
 1.000000000E+00 1.000000000E+00 -1.093681153E-01
 9.500000000E-01 1.000000000E+00 -1.138426757E-01
 9.000000000E-01 1.000000000E+00 -1.185962816E-01
 8.500000000E-01 1.000000000E+00 -1.212092334E-01
 8.000000000E-01 1.000000000E+00 -1.242226226E-01
 7.500000000E-01 1.000000000E+00 -1.255649222E-01
 7.000000000E-01 1.000000000E+00 -1.257655064E-01
 6.500000000E-01 1.000000000E+00 -1.252947388E-01
 6.000000000E-01 1.000000000E+00 -1.224064461E-01
 5.500000000E-01 1.000000000E+00 -1.195510705E-01
 5.000000000E-01 1.000000000E+00 -1.145797050E-01
 4.500000000E-01 1.000000000E+00 -1.093478947E-01
 4.000000000E-01 1.000000000E+00 -1.025836050E-01
 3.500000000E-01 1.000000000E+00 -9.491185595E-02
 3.000000000E-01 1.000000000E+00 -8.696455571E-02
 2.500000000E-01 1.000000000E+00 -7.834647604E-02
 2.000000000E-01 1.000000000E+00 -6.952115063E-02
 1.500000000E-01 1.000000000E+00 -6.032348945E-02
 1.000000000E-01 1.000000000E+00 -5.186010643E-02
 5.000000000E-02 1.000000000E+00 -4.318203726E-02
 1.733724275E-12 1.000000000E+00 -3.548188506E-02
 -5.000000000E-02 1.000000000E+00 -2.811200229E-02
 -1.000000000E-01 1.000000000E+00 -2.160281253E-02
 -1.500000000E-01 1.000000000E+00 -1.584596412E-02
 -2.000000000E-01 1.000000000E+00 -1.107613399E-02
 -2.500000000E-01 1.000000000E+00 -7.000068692E-03
 -3.000000000E-01 1.000000000E+00 -4.074927682E-03
 -3.500000000E-01 1.000000000E+00 -1.797322959E-03
 -4.000000000E-01 1.000000000E+00 -5.021754874E-04
 -4.500000000E-01 1.000000000E+00 1.461835852E-04
 9.476107880E-01 -4.681036392E-03 3.469659296E-01
 8.611647001E-01 -1.097478982E-02 2.780970729E-01
 7.882972140E-01 -2.050468782E-02 1.812511368E-01
 7.192564098E-01 -3.061940326E-02 8.601510932E-02
 6.455306918E-01 -4.255915364E-02 -2.274989941E-02
 5.776834446E-01 -5.204936583E-02 -1.382139190E-01
 5.179515340E-01 -5.989879207E-02 -2.575289203E-01
 4.547292636E-01 -6.730394754E-02 -3.812473229E-01
 3.975766284E-01 -7.157970768E-02 -4.578647609E-01
 3.400466812E-01 -7.266391505E-02 -4.833270496E-01
 2.868474517E-01 -7.101292864E-02 -4.613221408E-01
 2.271852217E-01 -6.837502787E-02 -4.128979374E-01