TITLE     = "Visualization of the solution"
VARIABLES = "x"
"y"
"Pressure_Coefficient"
ZONE T="Zone"
 STRANDID=0, SOLUTIONTIME=0
 Nodes=11861, Elements=23142, ZONETYPE=FEQuadrilateral
 DATAPACKING=POINT
 DT=(DOUBLE DOUBLE DOUBLE )
 9.997165203E-01 5.346366670E-04 2.295990216E-01
 9.847451448E-01 3.307366977E-03 2.668300296E-01
 9.726535678E-01 5.501949228E-03 1.943239434E-01
 9.600798488E-01 7.823428139E-03 1.238097285E-01
 9.479772449E-01 9.977770038E-03 8.047653926E-02
 9.377103448E-01 1.177396160E-02 4.855044406E-02
 9.276095629E-01 1.351677626E-02 2.028953297E-02
 9.162226319E-01 1.546879113E-02 -1.966004214E-02
 9.049125314E-01 1.731176674E-02 -4.972350171E-02
 8.920229673E-01 1.927421242E-02 -6.291667605E-02
 8.797694445E-01 2.109690197E-02 -8.046286006E-02
 8.682963252E-01 2.277323604E-02 -1.062447232E-01
 8.557969928E-01 2.448175475E-02 -1.167152532E-01
 8.436324000E-01 2.608025447E-02 -1.225527881E-01
 8.315435648E-01 2.764159627E-02 -1.355032550E-01
 8.182045221E-01 2.930001915E-02 -1.414008873E-01
 8.053350449E-01 3.088602051E-02 -1.554488369E-01
 7.937726378E-01 3.226722032E-02 -1.624427057E-01
 7.809959650E-01 3.377286717E-02 -1.701626420E-01
 7.686976790E-01 3.522689641E-02 -1.881260865E-01
 7.556257844E-01 3.672435507E-02 -2.026262862E-01
 7.418500781E-01 3.824606910E-02 -2.134743403E-01
 7.305378914E-01 3.946476057E-02 -2.220782746E-01
 7.182840109E-01 4.076081514E-02 -2.324750452E-01
 7.061182261E-01 4.202769697E-02 -2.476110057E-01
 6.922129989E-01 4.341711849E-02 -2.588018878E-01
 6.786371469E-01 4.473726079E-02 -2.728933853E-01
 6.669632792E-01 4.583572969E-02 -2.859103085E-01
 6.545986533E-01 4.695316404E-02 -2.967655121E-01
 6.439663172E-01 4.788828641E-02 -3.120739677E-01
 6.311045885E-01 4.894092679E-02 -3.182536281E-01
 6.193807125E-01 4.986541718E-02 -3.291982823E-01
 6.080351472E-01 5.071689188E-02 -3.372715424E-01
 5.955275893E-01 5.162062123E-02 -3.555244473E-01
 5.831592679E-01 5.242863297E-02 -3.615050763E-01
 5.690560341E-01 5.328315496E-02 -3.716207879E-01
 5.553745031E-01 5.403644592E-02 -3.832702402E-01
 5.415573716E-01 5.469593406E-02 -3.859158863E-01
 5.301553011E-01 5.519839004E-02 -3.942712090E-01
 5.175981522E-01 5.568252131E-02 -4.025452554E-01
 5.046061873E-01 5.609248951E-02 -4.034558236E-01
 4.943886697E-01 5.637877807E-02 -4.116188866E-01
 4.812663794E-01 5.664091557E-02 -4.056444342E-01
 4.691128135E-01 5.684673786E-02 -4.118693653E-01
 4.554400444E-01 5.698655918E-02 -4.130966242E-01
 4.408251643E-01 5.703667179E-02 -4.117989721E-01
 4.277230501E-01 5.700604245E-02 -4.118572905E-01
 4.140802920E-01 5.688568577E-02 -4.076003700E-01
 4.017723501E-01 5.672067031E-02 -4.075378009E-01
 3.883894682E-01 5.645455793E-02 -4.030076668E-01
 3.765175641E-01 5.615946651E-02 -3.986881206E-01
 3.652482331E-01 5.583439767E-02 -3.983448355E-01
 3.519219160E-01 5.536241457E-02 -3.896962981E-01
 3.396769166E-01 5.488120392E-02 -3.881544185E-01
 3.280711770E-01 5.436081812E-02 -3.824804495E-01
 3.181761503E-01 5.387155339E-02 -3.773832188E-01
 3.068452477E-01 5.326630920E-02 -3.724027706E-01
 2.948132157E-01 5.256774276E-02 -3.668352684E-01
 2.814965248E-01 5.172420666E-02 -3.595196895E-01
 2.690377235E-01 5.087663606E-02 -3.559063632E-01
 2.568935752E-01 4.997424036E-02 -3.446074144E-01
 2.443414330E-01 4.899432883E-02 -3.395869683E-01
 2.312250882E-01 4.789695144E-02 -3.321845981E-01
 2.193167359E-01 4.683901742E-02 -3.242984240E-01
 2.076468617E-01 4.575007036E-02 -3.196485430E-01
 1.958667189E-01 4.458450153E-02 -3.106702720E-01
 1.833987832E-01 4.328551143E-02 -3.029043919E-01
 1.716630906E-01 4.200288653E-02 -2.975775907E-01
 1.596609503E-01 4.061337560E-02 -2.887469135E-01
 1.476648450E-01 3.915319219E-02 -2.812081881E-01
 1.363706887E-01 3.770943359E-02 -2.739965264E-01
 1.249340251E-01 3.617424890E-02 -2.688973921E-01
 1.137828827E-01 3.458772227E-02 -2.605331513E-01
 1.027754173E-01 3.293817490E-02 -2.535207764E-01
 9.274052083E-02 3.135483339E-02 -2.485075433E-01
 8.190308511E-02 2.953570522E-02 -2.402790144E-01
 7.067401707E-02 2.752523310E-02 -2.362394002E-01
 6.122406200E-02 2.569905668E-02 -2.293320602E-01
 5.225555226E-02 2.384540066E-02 -2.256751250E-01
 4.379032552E-02 2.194809541E-02 -2.211097298E-01
 3.587357700E-02 2.000035159E-02 -2.190632870E-01
 2.934060805E-02 1.823282242E-02 -2.119712013E-01
 2.369297855E-02 1.654410921E-02 -2.195530410E-01
 1.953780837E-02 1.516881399E-02 -2.061556655E-01
 1.573044807E-02 1.377405599E-02 -2.007990806E-01
 1.306021307E-02 1.269799750E-02 -1.921747873E-01
 1.080019493E-02 1.170155127E-02 -1.883925631E-01
 9.155462496E-03 1.091283467E-02 -1.841141549E-01
 7.531055249E-03 1.006270759E-02 -1.704997007E-01
 5.945297424E-03 9.146765806E-03 -1.087806810E-01
 3.892624751E-03 7.789831609E-03 -4.906783415E-02
 2.247262979E-03 6.476563402E-03 3.638475897E-02
 9.344228893E-04 5.189659074E-03 2.240008217E-01
 -4.021728819E-04 3.426048672E-03 4.567794666E-01
 -1.146305818E-03 1.951750484E-03 6.671606406E-01
 -1.534061390E-03 7.203127607E-04 8.490191263E-01
 -1.735979924E-03 -9.011572693E-04 1.031223652E+00
 -1.539261779E-03 -3.053555731E-03 1.129810623E+00
 -7.595695206E-04 -5.449155811E-03 1.084536012E+00
 6.963340566E-04 -8.108926006E-03 9.200292650E-01
 2.713883296E-03 -1.077365503E-02 7.611570096E-01
 4.644549917E-03 -1.284169033E-02 6.239859494E-01
 6.975235417E-03 -1.498907246E-02 5.234824444E-01
 8.667584509E-03 -1.638881117E-02 4.239597101E-01
 1.071391255E-02 -1.794964448E-02 3.658952861E-01
 1.313290279E-02 -1.963667385E-02 2.868404190E-01
 1.625350863E-02 -2.163165994E-02 2.092971256E-01
 1.969553530E-02 -2.363998629E-02 1.285727080E-01
 2.384564094E-02 -2.584389783E-02 5.816497673E-02
 2.921273559E-02 -2.843400836E-02 -1.246156247E-02
 3.452522308E-02 -3.075885400E-02 -7.795765536E-02
 4.125047848E-02 -3.343356773E-02 -1.254487815E-01
 4.852762818E-02 -3.605819494E-02 -1.743133348E-01
 5.704642087E-02 -3.886463866E-02 -2.154987341E-01
 6.551785022E-02 -4.140088335E-02 -2.556540103E-01
 7.597243786E-02 -4.427309334E-02 -2.859458101E-01
 8.578752726E-02 -4.674196616E-02 -3.136658652E-01
 9.673610330E-02 -4.927881062E-02 -3.355141416E-01
 1.079711542E-01 -5.167688802E-02 -3.541506563E-01
 1.202954873E-01 -5.411286280E-02 -3.734516601E-01
 1.317699850E-01 -5.621651933E-02 -3.919255420E-01
 1.423362792E-01 -5.802774429E-02 -4.090842754E-01
 1.537699550E-01 -5.985289812E-02 -4.207511753E-01
 1.654988676E-01 -6.160283461E-02 -4.343045882E-01
 1.768534333E-01 -6.318851560E-02 -4.494718941E-01
 1.884033978E-01 -6.469099969E-02 -4.629109333E-01
 1.986942738E-01 -6.593315303E-02 -4.718885997E-01
 2.099388093E-01 -6.721812487E-02 -4.898380692E-01
 2.220088542E-01 -6.847138703E-02 -4.975879161E-01
 2.336699069E-01 -6.959464401E-02 -5.133430710E-01
 2.455001324E-01 -7.063102722E-02 -5.263562144E-01
 2.576745152E-01 -7.158681750E-02 -5.385979849E-01
 2.693532109E-01 -7.240117341E-02 -5.519337539E-01
 2.819164991E-01 -7.314641774E-02 -5.563693159E-01
 2.945530713E-01 -7.379624248E-02 -5.708758782E-01
 3.068388700E-01 -7.429287583E-02 -5.744679599E-01
 3.185562491E-01 -7.468321174E-02 -5.906428048E-01
 3.306314051E-01 -7.493449748E-02 -5.848652336E-01
 3.405930996E-01 -7.509285212E-02 -5.995768784E-01
 3.521529138E-01 -7.514274120E-02 -6.070977748E-01
 3.634586334E-01 -7.504399866E-02 -5.925673871E-01
 3.747551143E-01 -7.488386333E-02 -6.047872284E-01
 3.866232932E-01 -7.455908507E-02 -5.927857750E-01
 3.988173604E-01 -7.410673797E-02 -5.879543248E-01
 4.107846916E-01 -7.353439927E-02 -5.808988954E-01
 4.238919020E-01 -7.273840159E-02 -5.590367548E-01
 4.364142716E-01 -7.185592502E-02 -5.466931012E-01
 4.503283501E-01 -7.069711387E-02 -5.170989131E-01
 4.636654556E-01 -6.947171688E-02 -5.040038047E-01
 4.763071239E-01 -6.813289225E-02 -4.671255888E-01
 4.887415469E-01 -6.674259156E-02 -4.513815494E-01
 5.003253222E-01 -6.530192494E-02 -4.082754911E-01
 5.133541822E-01 -6.362532824E-02 -3.801779752E-01
 5.266176462E-01 -6.186439469E-02 -3.629771390E-01
 5.386582017E-01 -6.013725325E-02 -3.248593539E-01
 5.531961322E-01 -5.799860507E-02 -2.959499997E-01
 5.658011436E-01 -5.605587363E-02 -2.601562079E-01
 5.793215036E-01 -5.394669250E-02 -2.333533009E-01
 5.929894447E-01 -5.178599060E-02 -2.116971125E-01
 6.059614420E-01 -4.964798316E-02 -1.750816072E-01
 6.182079315E-01 -4.764950648E-02 -1.586793737E-01
 6.315880418E-01 -4.542615265E-02 -1.335080830E-01
 6.442353129E-01 -4.330108315E-02 -1.108243273E-01
 6.578215361E-01 -4.098845646E-02 -8.414854755E-02
 6.714659333E-01 -3.865874186E-02 -5.978074815E-02
 6.840767264E-01 -3.650082648E-02 -3.611751787E-02
 6.966536641E-01 -3.437511995E-02 -1.998938771E-02
 7.115810513E-01 -3.185161203E-02 2.398087370E-04
 7.248578668E-01 -2.956068888E-02 3.155808160E-02
 7.363415360E-01 -2.765379660E-02 3.972834607E-02
 7.490158677E-01 -2.552834898E-02 6.102515695E-02
 7.623832822E-01 -2.330114879E-02 8.068584810E-02
 7.757676840E-01 -2.104998566E-02 1.130146261E-01
 7.884929776E-01 -1.903927326E-02 1.171416564E-01
 8.007156253E-01 -1.707419939E-02 1.421829569E-01
 8.116908073E-01 -1.536319591E-02 1.536781934E-01
 8.220111728E-01 -1.371574681E-02 1.876656938E-01
 8.337402940E-01 -1.198937558E-02 1.948831493E-01
 8.454619646E-01 -1.030368637E-02 2.151153179E-01
 8.575757742E-01 -8.656864055E-03 2.293338874E-01
 8.685736060E-01 -7.228052244E-03 2.462157652E-01
 8.797141314E-01 -5.864693783E-03 2.619282769E-01
 8.922790289E-01 -4.459084943E-03 2.743794279E-01
 9.020734429E-01 -3.444244387E-03 2.891463915E-01
 9.129080772E-01 -2.492161235E-03 2.933827684E-01
 9.234023094E-01 -1.681999769E-03 3.007131277E-01
 9.340628982E-01 -9.946818464E-04 3.028232507E-01
 9.478102326E-01 -3.055687412E-04 2.997385334E-01
 9.628040791E-01 2.031521872E-04 2.926322286E-01
 9.773533940E-01 4.741637385E-04 2.858844374E-01
 9.900659323E-01 5.365927937E-04 3.397764642E-01
 -5.000000000E-01 -1.000000000E+00 6.352297805E-03
 3.500000000E+00 -1.000000000E+00 3.360760643E-04
 3.500000000E+00 1.000000000E+00 -4.960178242E-03
 -5.000000000E-01 1.000000000E+00 6.022410132E-03
 9.922308326E-01 1.921001822E-03 3.642918319E-01
 9.786993563E-01 4.404658102E-03 2.231491054E-01
 9.663667083E-01 6.662688684E-03 1.504944776E-01
 9.540285468E-01 8.900599089E-03 1.005178312E-01
 9.428437948E-01 1.087586582E-02 6.451319372E-02
 9.326599538E-01 1.264536893E-02 3.467960553E-02
 9.219160974E-01 1.449278370E-02 -2.377102056E-03
 9.105675817E-01 1.639027894E-02 -3.784184793E-02
 8.984677494E-01 1.829298958E-02 -5.415754599E-02
 8.858962059E-01 2.018555719E-02 -7.080730232E-02
 8.740328848E-01 2.193506900E-02 -9.702697560E-02
 8.620466590E-01 2.362749539E-02 -1.110310317E-01
 8.497146964E-01 2.528100461E-02 -1.180967294E-01
 8.375879824E-01 2.686092537E-02 -1.303555228E-01
 8.248740435E-01 2.847080771E-02 -1.371569313E-01
 8.117697835E-01 3.009301983E-02 -1.491461981E-01
 7.995538414E-01 3.157662041E-02 -1.583630904E-01
 7.873843014E-01 3.302004375E-02 -1.648568617E-01
 7.748468220E-01 3.449988179E-02 -1.805511262E-01
 7.621617317E-01 3.597562574E-02 -1.963424772E-01
 7.487379313E-01 3.748521209E-02 -2.074155542E-01
 7.361939847E-01 3.885541484E-02 -2.174542312E-01
 7.244109511E-01 4.011278786E-02 -2.267076542E-01
 7.122011185E-01 4.139425606E-02 -2.414575250E-01
 6.991656125E-01 4.272240773E-02 -2.527823021E-01
 6.854250729E-01 4.407718964E-02 -2.655938373E-01
 6.728002131E-01 4.528649524E-02 -2.799825404E-01
 6.607809663E-01 4.639444686E-02 -2.903327572E-01
 6.492824852E-01 4.742072523E-02 -3.071725020E-01
 6.375354528E-01 4.841460660E-02 -3.138147022E-01
 6.252426505E-01 4.940317199E-02 -3.237170273E-01
 6.137079298E-01 5.029115453E-02 -3.328589025E-01
 6.017813683E-01 5.116875656E-02 -3.481412003E-01
 5.893434286E-01 5.202462710E-02 -3.586853235E-01
 5.761076510E-01 5.285589397E-02 -3.664161549E-01
 5.622152686E-01 5.365980044E-02 -3.788735111E-01
 5.484659374E-01 5.436618999E-02 -3.823806294E-01
 5.358563364E-01 5.494716205E-02 -3.910975266E-01
 5.238767266E-01 5.544045568E-02 -3.998738388E-01
 5.111021698E-01 5.588750541E-02 -4.002400166E-01
 4.994974285E-01 5.623563379E-02 -4.118222569E-01
 4.878275245E-01 5.650984682E-02 -4.061613849E-01
 4.751895964E-01 5.674382672E-02 -4.105996135E-01
 4.622764289E-01 5.691664852E-02 -4.136252191E-01
 4.481326044E-01 5.701161548E-02 -4.113652432E-01
 4.342741072E-01 5.702135712E-02 -4.127145009E-01
 4.209016711E-01 5.694586411E-02 -4.081806470E-01
 4.079263210E-01 5.680317804E-02 -4.091007142E-01
 3.950809091E-01 5.658761412E-02 -4.042210143E-01
 3.824535161E-01 5.630701222E-02 -3.997996001E-01
 3.708828986E-01 5.599693209E-02 -4.010723049E-01
 3.585850745E-01 5.559840612E-02 -3.925018069E-01
 3.457994163E-01 5.512180924E-02 -3.891378531E-01
 3.338740468E-01 5.462101102E-02 -3.865634925E-01
 3.125106990E-01 5.356893130E-02 -3.757106617E-01
 3.008292317E-01 5.291702598E-02 -3.706906654E-01
 2.881548703E-01 5.214597471E-02 -3.625057106E-01
 2.752671242E-01 5.130042136E-02 -3.583282233E-01
 2.629656494E-01 5.042543821E-02 -3.496049587E-01
 2.506175041E-01 4.948428459E-02 -3.429249766E-01
 2.377832606E-01 4.844564013E-02 -3.354638669E-01
 2.252709121E-01 4.736798443E-02 -3.280017326E-01
 2.134817988E-01 4.629454389E-02 -3.224877544E-01
 2.017567903E-01 4.516728595E-02 -3.154330570E-01
 1.896327510E-01 4.393500648E-02 -3.061586425E-01
 1.775309369E-01 4.264419898E-02 -3.010753976E-01
 1.656620204E-01 4.130813107E-02 -2.931530713E-01
 1.536628976E-01 3.988328390E-02 -2.843698373E-01
 1.420177668E-01 3.843131289E-02 -2.780722487E-01
 1.306523569E-01 3.694184124E-02 -2.721897594E-01
 1.193584539E-01 3.538098559E-02 -2.646565403E-01
 1.082791500E-01 3.376294859E-02 -2.558735189E-01
 9.775796905E-02 3.214650415E-02 -2.531060070E-01
 8.732180297E-02 3.044526931E-02 -2.457566302E-01
 7.628855109E-02 2.853046916E-02 -2.411772135E-01
 7.074514404E-02 -4.283698834E-02 -2.714565280E-01
 8.087998256E-02 -4.550752975E-02 -3.039476156E-01
 9.126181528E-02 -4.801038839E-02 -3.242465937E-01
 1.023536287E-01 -5.047784932E-02 -3.459405641E-01
 1.141333207E-01 -5.289487541E-02 -3.629657730E-01
 1.260327362E-01 -5.516469106E-02 -3.850415362E-01
 1.370531321E-01 -5.712213181E-02 -4.020570318E-01
 1.480531171E-01 -5.894032121E-02 -4.146064569E-01
 1.596344113E-01 -6.072786637E-02 -4.274023079E-01
 1.711761504E-01 -6.239567511E-02 -4.425295002E-01
 1.826284155E-01 -6.393975765E-02 -4.563016856E-01
 1.935488358E-01 -6.531207636E-02 -4.699491149E-01
 2.043165416E-01 -6.657563895E-02 -4.787591577E-01
 2.159738317E-01 -6.784475595E-02 -4.945263767E-01
 2.278393805E-01 -6.903301552E-02 -5.047398376E-01
 2.395850196E-01 -7.011283562E-02 -5.195660417E-01
 2.515873238E-01 -7.110892236E-02 -5.323872764E-01
 2.635138631E-01 -7.199399546E-02 -5.454585779E-01
 2.756348550E-01 -7.277379557E-02 -5.542728332E-01
 2.882347852E-01 -7.347133011E-02 -5.625937549E-01
 3.006959707E-01 -7.404455915E-02 -5.746061062E-01
 3.126975596E-01 -7.448804379E-02 -5.811461296E-01
 3.245938271E-01 -7.480885461E-02 -5.913287063E-01
 3.463730067E-01 -7.511779666E-02 -6.094732627E-01
 3.578057736E-01 -7.509336993E-02 -6.031398509E-01
 3.691068739E-01 -7.496393099E-02 -5.943219942E-01
 3.806892037E-01 -7.472147420E-02 -6.008327430E-01
 3.927203268E-01 -7.433291152E-02 -5.892617630E-01
 4.048010260E-01 -7.382056862E-02 -5.845344146E-01
 4.173382968E-01 -7.313640043E-02 -5.705597051E-01
 4.301530868E-01 -7.229716331E-02 -5.528619939E-01
 4.433713108E-01 -7.127651945E-02 -5.324666519E-01
 4.569969028E-01 -7.008441538E-02 -5.092140474E-01
 4.699862897E-01 -6.880230457E-02 -4.898760655E-01
 4.825243354E-01 -6.743774191E-02 -4.563675004E-01
 4.945334345E-01 -6.602225825E-02 -4.346588005E-01
 5.068397522E-01 -6.446362659E-02 -3.924391230E-01
 5.199859142E-01 -6.274486147E-02 -3.690981414E-01
 5.326379240E-01 -6.100082397E-02 -3.480711039E-01
 5.459271669E-01 -5.906792916E-02 -3.089186301E-01
 5.594986379E-01 -5.702723935E-02 -2.810737348E-01
 5.725613236E-01 -5.500128306E-02 -2.456937971E-01
 5.861554742E-01 -5.286634155E-02 -2.212259974E-01
 5.994754434E-01 -5.071698688E-02 -1.965078071E-01
 6.120846868E-01 -4.864874482E-02 -1.644039392E-01
 6.248979867E-01 -4.653782956E-02 -1.462004645E-01
 6.379116774E-01 -4.436361790E-02 -1.224730006E-01
 6.510284245E-01 -4.214476980E-02 -9.825122188E-02
 6.646437347E-01 -3.982359916E-02 -7.209483078E-02
 6.777713299E-01 -3.757978417E-02 -4.820476056E-02
 6.903651953E-01 -3.543797322E-02 -2.696240780E-02
 7.041173577E-01 -3.311336599E-02 -9.882318339E-03
 7.182194591E-01 -3.070615046E-02 1.335092234E-02
 7.305997014E-01 -2.860724274E-02 3.934112115E-02
 7.426787019E-01 -2.659107279E-02 4.925749541E-02
 7.556995749E-01 -2.441474888E-02 7.042679777E-02
 7.690754831E-01 -2.217556722E-02 9.419219398E-02
 7.821303308E-01 -2.004462946E-02 1.191810933E-01
 7.946043015E-01 -1.805673633E-02 1.277280898E-01
 8.062032163E-01 -1.621869765E-02 1.494557115E-01
 8.168509901E-01 -1.453947136E-02 1.652449007E-01
 8.278757334E-01 -1.285256119E-02 1.928248882E-01
 8.396011293E-01 -1.114653097E-02 2.042735104E-01
 8.515188694E-01 -9.480275214E-03 2.223822061E-01
 8.630746901E-01 -7.942458149E-03 2.376614134E-01
 8.741438687E-01 -6.546373013E-03 2.532293707E-01
 8.859965801E-01 -5.161889363E-03 2.683997821E-01
 9.074907601E-01 -2.968202811E-03 2.965596801E-01
 9.181551933E-01 -2.087080502E-03 2.970054869E-01
 9.287326038E-01 -1.338340808E-03 3.015162374E-01
 9.409365654E-01 -6.501252938E-04 2.987745388E-01
 9.553071558E-01 -5.120827700E-05 2.964310345E-01
 9.700787365E-01 3.386579629E-04 2.892286592E-01
 9.837096632E-01 5.053782661E-04 2.690185583E-01
 -5.000000000E-01 9.500000000E-01 8.373864933E-03
 -5.000000000E-01 9.000000000E-01 1.147640714E-02
 -5.000000000E-01 8.500000000E-01 1.410109611E-02
 -5.000000000E-01 8.000000000E-01 1.679276700E-02
 -5.000000000E-01 7.500000000E-01 1.995464027E-02
 -5.000000000E-01 7.000000000E-01 2.353603419E-02
 -5.000000000E-01 6.500000000E-01 2.774266105E-02
 -5.000000000E-01 6.000000000E-01 3.257343054E-02
 -5.000000000E-01 5.500000000E-01 3.803717421E-02
 -5.000000000E-01 5.000000000E-01 4.411978879E-02
 -5.000000000E-01 4.500000000E-01 5.083332975E-02
 -5.000000000E-01 4.000000000E-01 5.803263291E-02
 -5.000000000E-01 3.500000000E-01 6.563493134E-02
 -5.000000000E-01 3.000000000E-01 7.338859612E-02
 -5.000000000E-01 2.500000000E-01 8.094607629E-02
 -5.000000000E-01 2.000000000E-01 8.815252557E-02
 -5.000000000E-01 1.500000000E-01 9.443027024E-02
 -5.000000000E-01 1.000000000E-01 9.944412448E-02
 -5.000000000E-01 5.000000000E-02 1.028277085E-01
 -5.000000000E-01 2.752242878E-12 1.042720529E-01
 -5.000000000E-01 -5.000000000E-02 1.037098387E-01
 -5.000000000E-01 -1.000000000E-01 1.011455473E-01
 -5.000000000E-01 -1.500000000E-01 9.689774125E-02
 -5.000000000E-01 -2.000000000E-01 9.106891084E-02
 -5.000000000E-01 -2.500000000E-01 8.428035450E-02
 -5.000000000E-01 -3.000000000E-01 7.672525830E-02
 -5.000000000E-01 -3.500000000E-01 6.895450774E-02
 -5.000000000E-01 -4.000000000E-01 6.112767800E-02
 -5.000000000E-01 -4.500000000E-01 5.360855349E-02
 -5.000000000E-01 -5.000000000E-01 4.665053616E-02
 -5.000000000E-01 -5.500000000E-01 4.020340647E-02
 -5.000000000E-01 -6.000000000E-01 3.443222044E-02
 -5.000000000E-01 -6.500000000E-01 2.935335309E-02
 -5.000000000E-01 -7.000000000E-01 2.487570739E-02
 -5.000000000E-01 -7.500000000E-01 2.104321394E-02
 -5.000000000E-01 -8.000000000E-01 1.773883285E-02
 -5.000000000E-01 -8.500000000E-01 1.482797300E-02
 -5.000000000E-01 -9.000000000E-01 1.214437275E-02
 -5.000000000E-01 -9.500000000E-01 8.792155629E-03
 -4.500000000E-01 -1.000000000E+00 7.837787421E-03
 -4.000000000E-01 -1.000000000E+00 9.817919804E-03
 -3.500000000E-01 -1.000000000E+00 1.014353866E-02
 -3.000000000E-01 -1.000000000E+00 9.398949961E-03
 -2.500000000E-01 -1.000000000E+00 7.918702140E-03
 -2.000000000E-01 -1.000000000E+00 5.435128753E-03
 -1.500000000E-01 -1.000000000E+00 2.276147388E-03
 -1.000000000E-01 -1.000000000E+00 -1.617498990E-03
 -5.000000000E-02 -1.000000000E+00 -6.151758506E-03
 -9.424683256E-13 -1.000000000E+00 -1.140445406E-02
 5.000000000E-02 -1.000000000E+00 -1.712439593E-02
 1.000000000E-01 -1.000000000E+00 -2.283648320E-02
 1.500000000E-01 -1.000000000E+00 -2.886851451E-02
 2.000000000E-01 -1.000000000E+00 -3.468603272E-02
 2.500000000E-01 -1.000000000E+00 -4.034660985E-02
 3.000000000E-01 -1.000000000E+00 -4.550640050E-02
 3.500000000E-01 -1.000000000E+00 -4.958430704E-02
 4.000000000E-01 -1.000000000E+00 -5.325968164E-02
 4.500000000E-01 -1.000000000E+00 -5.571422836E-02
 5.000000000E-01 -1.000000000E+00 -5.718949996E-02
 5.500000000E-01 -1.000000000E+00 -5.756189258E-02
 6.000000000E-01 -1.000000000E+00 -5.688531102E-02
 6.500000000E-01 -1.000000000E+00 -5.521115227E-02
 7.000000000E-01 -1.000000000E+00 -5.282506669E-02
 7.500000000E-01 -1.000000000E+00 -4.938154495E-02
 8.000000000E-01 -1.000000000E+00 -4.563608090E-02
 8.500000000E-01 -1.000000000E+00 -4.123200477E-02
 9.000000000E-01 -1.000000000E+00 -3.673244417E-02
 9.500000000E-01 -1.000000000E+00 -3.203958840E-02
 1.000000000E+00 -1.000000000E+00 -2.720872178E-02
 1.050000000E+00 -1.000000000E+00 -2.286788936E-02
 1.100000000E+00 -1.000000000E+00 -1.844073549E-02
 1.150000000E+00 -1.000000000E+00 -1.429840280E-02
 1.200000000E+00 -1.000000000E+00 -1.062674638E-02
 1.250000000E+00 -1.000000000E+00 -7.280698994E-03
 1.300000000E+00 -1.000000000E+00 -4.273392750E-03
 1.350000000E+00 -1.000000000E+00 -1.598257098E-03
 1.400000000E+00 -1.000000000E+00 6.992391664E-04
 1.450000000E+00 -1.000000000E+00 2.687027611E-03
 1.500000000E+00 -1.000000000E+00 4.382721435E-03
 1.550000000E+00 -1.000000000E+00 5.853941978E-03
 1.600000000E+00 -1.000000000E+00 7.078619526E-03
 1.650000000E+00 -1.000000000E+00 8.143175500E-03
 1.700000000E+00 -1.000000000E+00 8.980517042E-03
 1.750000000E+00 -1.000000000E+00 9.670718148E-03
 1.800000000E+00 -1.000000000E+00 1.029104150E-02
 1.850000000E+00 -1.000000000E+00 1.071424739E-02
 1.900000000E+00 -1.000000000E+00 1.114238610E-02
 1.950000000E+00 -1.000000000E+00 1.141478247E-02
 2.000000000E+00 -1.000000000E+00 1.166349994E-02
 2.050000000E+00 -1.000000000E+00 1.183936860E-02
 2.100000000E+00 -1.000000000E+00 1.206076667E-02
 2.150000000E+00 -1.000000000E+00 1.215111924E-02
 2.200000000E+00 -1.000000000E+00 1.226777832E-02
 2.250000000E+00 -1.000000000E+00 1.234700776E-02
 2.300000000E+00 -1.000000000E+00 1.241571202E-02
 2.350000000E+00 -1.000000000E+00 1.248223773E-02
 2.400000000E+00 -1.000000000E+00 1.258286564E-02
 2.450000000E+00 -1.000000000E+00 1.264209531E-02
 2.500000000E+00 -1.000000000E+00 1.267956245E-02
 2.550000000E+00 -1.000000000E+00 1.274994222E-02
 2.600000000E+00 -1.000000000E+00 1.275362481E-02
 2.650000000E+00 -1.000000000E+00 1.283996042E-02
 2.700000000E+00 -1.000000000E+00 1.289247496E-02
 2.750000000E+00 -1.000000000E+00 1.295889970E-02
 2.800000000E+00 -1.000000000E+00 1.299511995E-02
 2.850000000E+00 -1.000000000E+00 1.300978548E-02
 2.900000000E+00 -1.000000000E+00 1.303902180E-02
 2.950000000E+00 -1.000000000E+00 1.297384161E-02
 3.000000000E+00 -1.000000000E+00 1.295545521E-02
 3.050000000E+00 -1.000000000E+00 1.280238542E-02
 3.100000000E+00 -1.000000000E+00 1.264531700E-02
 3.150000000E+00 -1.000000000E+00 1.238872555E-02
 3.200000000E+00 -1.000000000E+00 1.197314814E-02
 3.250000000E+00 -1.000000000E+00 1.142655624E-02
 3.300000000E+00 -1.000000000E+00 1.056732400E-02
 3.350000000E+00 -1.000000000E+00 9.436474482E-03
 3.400000000E+00 -1.000000000E+00 7.483742021E-03
 3.450000000E+00 -1.000000000E+00 4.126121307E-03
 3.500000000E+00 -9.500000000E-01 -2.239298720E-04
 3.500000000E+00 -9.000000000E-01 2.490681831E-03
 3.500000000E+00 -8.500000000E-01 4.383656210E-03
 3.500000000E+00 -8.000000000E-01 6.093797587E-03
 3.500000000E+00 -7.500000000E-01 7.490613126E-03
 3.500000000E+00 -7.000000000E-01 8.616186338E-03
 3.500000000E+00 -6.500000000E-01 9.853828380E-03
 3.500000000E+00 -6.000000000E-01 1.144939882E-02
 3.500000000E+00 -5.500000000E-01 1.334446028E-02
 3.500000000E+00 -5.000000000E-01 1.550110946E-02
 3.500000000E+00 -4.500000000E-01 1.786008795E-02
 3.500000000E+00 -4.000000000E-01 2.043404044E-02
 3.500000000E+00 -3.500000000E-01 2.317706694E-02
 3.500000000E+00 -3.000000000E-01 2.598468144E-02
 3.500000000E+00 -2.500000000E-01 2.851994046E-02
 3.500000000E+00 -2.000000000E-01 3.032156514E-02
 3.500000000E+00 -1.500000000E-01 3.096897883E-02
 3.500000000E+00 -1.000000000E-01 3.066445590E-02
 3.500000000E+00 -5.000000000E-02 3.025706274E-02
 3.500000000E+00 -2.752242878E-12 3.006544323E-02
 3.500000000E+00 5.000000000E-02 3.032773346E-02
 3.500000000E+00 1.000000000E-01 3.081927210E-02
 3.500000000E+00 1.500000000E-01 3.046515969E-02
 3.500000000E+00 2.000000000E-01 2.910849516E-02
 3.500000000E+00 2.500000000E-01 2.695637325E-02
 3.500000000E+00 3.000000000E-01 2.408364788E-02
 3.500000000E+00 3.500000000E-01 2.131231268E-02
 3.500000000E+00 4.000000000E-01 1.867549566E-02
 3.500000000E+00 4.500000000E-01 1.629768602E-02
 3.500000000E+00 5.000000000E-01 1.406672275E-02
 3.500000000E+00 5.500000000E-01 1.203470175E-02
 3.500000000E+00 6.000000000E-01 1.028781361E-02
 3.500000000E+00 6.500000000E-01 9.046416900E-03
 3.500000000E+00 7.000000000E-01 8.165132747E-03
 3.500000000E+00 7.500000000E-01 7.238312714E-03
 3.500000000E+00 8.000000000E-01 5.823618197E-03
 3.500000000E+00 8.500000000E-01 3.288480568E-03
 3.500000000E+00 9.000000000E-01 -3.009681690E-04
 3.500000000E+00 9.500000000E-01 -5.068199181E-03
 3.450000000E+00 1.000000000E+00 -1.748207862E-04
 3.400000000E+00 1.000000000E+00 4.011526481E-03
 3.350000000E+00 1.000000000E+00 6.047438523E-03
 3.300000000E+00 1.000000000E+00 7.076672693E-03
 3.250000000E+00 1.000000000E+00 7.626335296E-03
 3.200000000E+00 1.000000000E+00 7.972828282E-03
 3.150000000E+00 1.000000000E+00 8.041199089E-03
 3.100000000E+00 1.000000000E+00 7.985885536E-03
 3.050000000E+00 1.000000000E+00 7.873801402E-03
 3.000000000E+00 1.000000000E+00 7.633534466E-03
 2.950000000E+00 1.000000000E+00 7.344891970E-03
 2.900000000E+00 1.000000000E+00 6.962104056E-03
 2.850000000E+00 1.000000000E+00 6.586811507E-03
 2.800000000E+00 1.000000000E+00 6.135296643E-03
 2.750000000E+00 1.000000000E+00 5.651321372E-03
 2.700000000E+00 1.000000000E+00 5.141932013E-03
 2.650000000E+00 1.000000000E+00 4.594657274E-03
 2.600000000E+00 1.000000000E+00 4.019945134E-03
 2.550000000E+00 1.000000000E+00 3.420994707E-03
 2.500000000E+00 1.000000000E+00 2.777635243E-03
 2.450000000E+00 1.000000000E+00 2.104423972E-03
 2.400000000E+00 1.000000000E+00 1.387759170E-03
 2.350000000E+00 1.000000000E+00 6.636452263E-04
 2.300000000E+00 1.000000000E+00 -1.381390502E-04
 2.250000000E+00 1.000000000E+00 -9.997199792E-04
 2.200000000E+00 1.000000000E+00 -1.915361975E-03
 2.150000000E+00 1.000000000E+00 -2.848854893E-03
 2.100000000E+00 1.000000000E+00 -3.917941455E-03
 2.050000000E+00 1.000000000E+00 -4.970665481E-03
 2.000000000E+00 1.000000000E+00 -6.113781181E-03
 1.950000000E+00 1.000000000E+00 -7.436213140E-03
 1.900000000E+00 1.000000000E+00 -8.909962392E-03
 1.850000000E+00 1.000000000E+00 -1.032834448E-02
 1.800000000E+00 1.000000000E+00 -1.203745816E-02
 1.750000000E+00 1.000000000E+00 -1.380475838E-02
 1.700000000E+00 1.000000000E+00 -1.577149906E-02
 1.650000000E+00 1.000000000E+00 -1.797122832E-02
 1.600000000E+00 1.000000000E+00 -2.018750780E-02
 1.550000000E+00 1.000000000E+00 -2.291254332E-02
 1.500000000E+00 1.000000000E+00 -2.551457937E-02
 1.450000000E+00 1.000000000E+00 -2.856484525E-02
 1.400000000E+00 1.000000000E+00 -3.177347445E-02
 1.350000000E+00 1.000000000E+00 -3.507944997E-02
 1.300000000E+00 1.000000000E+00 -3.878737976E-02
 1.250000000E+00 1.000000000E+00 -4.245053529E-02
 1.200000000E+00 1.000000000E+00 -4.651066964E-02
 1.150000000E+00 1.000000000E+00 -5.057296786E-02
 1.100000000E+00 1.000000000E+00 -5.443413912E-02
 1.050000000E+00 1.000000000E+00 -5.859217768E-02
 1.000000000E+00 1.000000000E+00 -6.182697537E-02
 9.500000000E-01 1.000000000E+00 -6.580943094E-02
 9.000000000E-01 1.000000000E+00 -6.869920049E-02
 8.500000000E-01 1.000000000E+00 -7.142530620E-02
 8.000000000E-01 1.000000000E+00 -7.323575637E-02
 7.500000000E-01 1.000000000E+00 -7.452232248E-02
 7.000000000E-01 1.000000000E+00 -7.461405572E-02
 6.500000000E-01 1.000000000E+00 -7.437768338E-02
 6.000000000E-01 1.000000000E+00 -7.266139597E-02
 5.500000000E-01 1.000000000E+00 -7.064445811E-02
 5.000000000E-01 1.000000000E+00 -6.741459106E-02
 4.500000000E-01 1.000000000E+00 -6.364979635E-02
 4.000000000E-01 1.000000000E+00 -5.886569287E-02
 3.500000000E-01 1.000000000E+00 -5.356209573E-02
 3.000000000E-01 1.000000000E+00 -4.772280168E-02
 2.500000000E-01 1.000000000E+00 -4.153529069E-02
 2.000000000E-01 1.000000000E+00 -3.529684088E-02
 1.500000000E-01 1.000000000E+00 -2.875564783E-02
 1.000000000E-01 1.000000000E+00 -2.251544438E-02
 5.000000000E-02 1.000000000E+00 -1.641079714E-02
 1.733724275E-12 1.000000000E+00 -1.100081452E-02
 -5.000000000E-02 1.000000000E+00 -5.812615905E-03
 -1.000000000E-01 1.000000000E+00 -1.371857198E-03
 -1.500000000E-01 1.000000000E+00 2.428379569E-03
 -2.000000000E-01 1.000000000E+00 5.401564385E-03
 -2.500000000E-01 1.000000000E+00 7.645408131E-03
 -3.000000000E-01 1.000000000E+00 9.013894263E-03
 -3.500000000E-01 1.000000000E+00 9.677294515E-03
 -4.000000000E-01 1.000000000E+00 9.343921019E-03
 -4.500000000E-01 1.000000000E+00 7.450988555E-03
 8.979165598E-01 -9.179451334E-03 2.743256095E-01
 8.149842651E-01 -1.942018296E-02 1.609488263E-01
 9.876230368E-01 -5.373274096E-03 2.474990778E-01
 7.525985191E-01 -3.110739278E-02 6.370514857E-02
 6.818570169E-01 -4.249266388E-02 -4.288272007E-02
 6.158632787E-01 -5.339462656E-02 -1.610898844E-01
 5.571886124E-01 -6.297105228E-02 -2.813798074E-01
 4.924631715E-01 -7.204081616E-02 -4.289348059E-01
 4.403803432E-01 -7.728354669E-02 -5.250373295E-01
 3.839941568E-01 -8.058685938E-02 -5.796959117E-01
 3.283672882E-01 -8.060240066E-02 -5.752333793E-01
 2.722483214E-01 -7.789944754E-02 -5.412539987E-01