TITLE     = "Visualization of the solution"
VARIABLES = "x"
"y"
"Pressure_Coefficient"
ZONE T="Zone"
 STRANDID=0, SOLUTIONTIME=0
 Nodes=12162, Elements=23744, ZONETYPE=FEQuadrilateral
 DATAPACKING=POINT
 DT=(DOUBLE DOUBLE DOUBLE )
 1.000168920E+00 5.398844369E-04 2.317775610E-01
 9.877825975E-01 2.789243124E-03 1.518544021E-01
 9.765813947E-01 4.811583553E-03 1.031468449E-01
 9.640803933E-01 7.139962167E-03 3.884441076E-02
 9.517145753E-01 9.337007999E-03 1.493189001E-05
 9.400936961E-01 1.134271082E-02 -2.292758851E-02
 9.299315810E-01 1.312285569E-02 -6.264225261E-02
 9.178876281E-01 1.513579302E-02 -8.981922187E-02
 9.068135023E-01 1.694776118E-02 -1.252373978E-01
 8.944161534E-01 1.882616058E-02 -1.426148191E-01
 8.817938566E-01 2.063887566E-02 -1.503041300E-01
 8.700739741E-01 2.229784429E-02 -1.779522365E-01
 8.567395806E-01 2.400424331E-02 -1.719137271E-01
 8.445510864E-01 2.555118129E-02 -1.781960964E-01
 8.325008750E-01 2.706247009E-02 -1.936424549E-01
 8.187689781E-01 2.870578505E-02 -1.989182142E-01
 8.050583005E-01 3.031124733E-02 -2.091896427E-01
 7.927047014E-01 3.171188384E-02 -2.102665799E-01
 7.801820040E-01 3.315465897E-02 -2.312103553E-01
 7.673222423E-01 3.455473110E-02 -2.372232737E-01
 7.538127899E-01 3.598951548E-02 -2.407991862E-01
 7.395484447E-01 3.751005605E-02 -2.619145595E-01
 7.281683087E-01 3.865843639E-02 -2.633643479E-01
 7.167221308E-01 3.982115164E-02 -2.800925698E-01
 7.046574950E-01 4.099101946E-02 -2.870768509E-01
 6.905292869E-01 4.232970625E-02 -3.001214468E-01
 6.769464612E-01 4.357056692E-02 -3.132087986E-01
 6.664387584E-01 4.449734837E-02 -3.242341695E-01
 6.543923020E-01 4.550762475E-02 -3.296784317E-01
 6.433476806E-01 4.641570523E-02 -3.437821006E-01
 6.309862733E-01 4.736816883E-02 -3.509272790E-01
 6.197437644E-01 4.819998145E-02 -3.596062304E-01
 6.086549759E-01 4.898857698E-02 -3.717063044E-01
 5.958029032E-01 4.983734712E-02 -3.822811225E-01
 5.834303498E-01 5.058674887E-02 -3.893657682E-01
 5.694299936E-01 5.135503039E-02 -3.939887157E-01
 5.563952327E-01 5.201714858E-02 -4.025886129E-01
 5.435787439E-01 5.260665342E-02 -4.145028816E-01
 5.324403644E-01 5.304188654E-02 -4.147308659E-01
 5.200989842E-01 5.346810073E-02 -4.167943337E-01
 5.067971945E-01 5.386281386E-02 -4.242595561E-01
 4.956371188E-01 5.411979929E-02 -4.206454687E-01
 4.823087454E-01 5.437465012E-02 -4.229445107E-01
 4.693675637E-01 5.455991998E-02 -4.280278647E-01
 4.548271298E-01 5.466055498E-02 -4.260847024E-01
 4.406936467E-01 5.466844141E-02 -4.209878086E-01
 4.275055528E-01 5.461911485E-02 -4.225685830E-01
 4.142535925E-01 5.448331311E-02 -4.167300962E-01
 4.021838903E-01 5.431219190E-02 -4.159335107E-01
 3.897287846E-01 5.406972393E-02 -4.128637060E-01
 3.776509762E-01 5.377217755E-02 -4.074359323E-01
 3.669364154E-01 5.347042531E-02 -4.048373785E-01
 3.538427353E-01 5.303755775E-02 -4.016242556E-01
 3.421487808E-01 5.258817971E-02 -3.940514803E-01
 3.300292194E-01 5.207837746E-02 -3.903261168E-01
 3.199222684E-01 5.161686614E-02 -3.886393524E-01
 3.081044555E-01 5.101672560E-02 -3.823940635E-01
 2.951402366E-01 5.029283836E-02 -3.735673031E-01
 2.814145982E-01 4.946638271E-02 -3.678701443E-01
 2.687275112E-01 4.864067584E-02 -3.614582828E-01
 2.567972243E-01 4.781339690E-02 -3.555917544E-01
 2.442249805E-01 4.688708112E-02 -3.516279216E-01
 2.314306200E-01 4.586820677E-02 -3.418867772E-01
 2.192597538E-01 4.485000670E-02 -3.368237775E-01
 2.077163607E-01 4.382586852E-02 -3.293942717E-01
 1.967341155E-01 4.280803353E-02 -3.244057442E-01
 1.846798807E-01 4.162972793E-02 -3.184874572E-01
 1.728227288E-01 4.040705785E-02 -3.124721468E-01
 1.612545401E-01 3.914777189E-02 -3.047023757E-01
 1.492858231E-01 3.777910396E-02 -2.986674220E-01
 1.386775523E-01 3.650493547E-02 -2.920123810E-01
 1.275220364E-01 3.510253131E-02 -2.876766290E-01
 1.160865724E-01 3.358231112E-02 -2.828736722E-01
 1.052311659E-01 3.205248713E-02 -2.750324615E-01
 9.555908293E-02 3.061550111E-02 -2.693917859E-01
 8.436065912E-02 2.885202691E-02 -2.646475483E-01
 7.218692452E-02 2.678916790E-02 -2.605246842E-01
 6.240224093E-02 2.499677241E-02 -2.537257559E-01
 5.274710804E-02 2.309137769E-02 -2.513996272E-01
 4.361880943E-02 2.111622877E-02 -2.471824490E-01
 3.585964069E-02 1.926638559E-02 -2.431945334E-01
 2.929220162E-02 1.753963344E-02 -2.349411030E-01
 2.355825901E-02 1.587056555E-02 -2.355789901E-01
 1.947511174E-02 1.455555856E-02 -2.263347253E-01
 1.569520496E-02 1.321587246E-02 -2.242044649E-01
 1.309377886E-02 1.219291426E-02 -2.086719597E-01
 1.079588477E-02 1.120710280E-02 -1.978753179E-01
 9.101769887E-03 1.041527558E-02 -1.826286307E-01
 7.548239548E-03 9.630831890E-03 -1.754988633E-01
 6.088100374E-03 8.824164048E-03 -1.255230148E-01
 4.143440630E-03 7.606951054E-03 -5.974087077E-02
 2.443607431E-03 6.348339375E-03 1.712916841E-02
 9.484404000E-04 4.989560694E-03 2.092185239E-01
 -5.139299319E-04 3.180224448E-03 4.453356352E-01
 -1.300340053E-03 1.703128568E-03 6.616342643E-01
 -1.675882959E-03 5.163561436E-04 8.788904505E-01
 -1.854457310E-03 -9.784790454E-04 1.066753734E+00
 -1.658478286E-03 -2.828507451E-03 1.125734507E+00
 -9.215229074E-04 -4.912141245E-03 1.029965640E+00
 4.746389168E-04 -7.225551177E-03 8.483436032E-01
 2.565124072E-03 -9.661375545E-03 6.886122854E-01
 4.435430747E-03 -1.140125655E-02 5.325709817E-01
 6.666884292E-03 -1.318828948E-02 4.423694818E-01
 8.275662549E-03 -1.433468610E-02 3.457953641E-01
 1.029886305E-02 -1.565835439E-02 2.930008094E-01
 1.274457108E-02 -1.711827517E-02 2.222873692E-01
 1.603691839E-02 -1.890166663E-02 1.557246798E-01
 1.926431432E-02 -2.048428915E-02 8.448878037E-02
 2.337000147E-02 -2.232560702E-02 3.499628257E-02
 2.893047221E-02 -2.457613684E-02 -2.108708821E-02
 3.479608148E-02 -2.670356631E-02 -7.136055410E-02
 4.247668013E-02 -2.922385000E-02 -1.096233499E-01
 5.006781965E-02 -3.147292510E-02 -1.502032218E-01
 5.901059508E-02 -3.387868404E-02 -1.754695725E-01
 6.779231876E-02 -3.602941334E-02 -2.007212304E-01
 7.837514579E-02 -3.842112049E-02 -2.219736976E-01
 8.829472959E-02 -4.047863930E-02 -2.406991021E-01
 9.904235601E-02 -4.254633561E-02 -2.551729069E-01
 1.099468991E-01 -4.449832812E-02 -2.705246470E-01
 1.217464283E-01 -4.646839201E-02 -2.846264401E-01
 1.331864893E-01 -4.824332893E-02 -2.966279446E-01
 1.435832381E-01 -4.976136982E-02 -3.097559878E-01
 1.546300799E-01 -5.128140748E-02 -3.205021109E-01
 1.664237082E-01 -5.280312151E-02 -3.319342193E-01
 1.780182719E-01 -5.420831963E-02 -3.459373801E-01
 1.897739619E-01 -5.553689972E-02 -3.578786323E-01
 2.001398653E-01 -5.662234500E-02 -3.645970918E-01
 2.111595124E-01 -5.771650374E-02 -3.782611687E-01
 2.233434916E-01 -5.883285403E-02 -3.888024524E-01
 2.356515080E-01 -5.986651406E-02 -4.005653359E-01
 2.477607578E-01 -6.079421937E-02 -4.133001144E-01
 2.605251372E-01 -6.166129932E-02 -4.213462501E-01
 2.717904150E-01 -6.235276163E-02 -4.356541194E-01
 2.846089005E-01 -6.302153319E-02 -4.406460834E-01
 2.975020111E-01 -6.360448897E-02 -4.558018853E-01
 3.103257120E-01 -6.406353414E-02 -4.674315782E-01
 3.216972053E-01 -6.434472650E-02 -4.672569322E-01
 3.339676261E-01 -6.456354260E-02 -4.768256082E-01
 3.444591463E-01 -6.465364993E-02 -4.803606160E-01
 3.558264375E-01 -6.465255469E-02 -4.816281328E-01
 3.667848706E-01 -6.455805153E-02 -4.858669059E-01
 3.774529696E-01 -6.436628848E-02 -4.876541770E-01
 3.887598813E-01 -6.403715163E-02 -4.785733897E-01
 4.012297690E-01 -6.354713440E-02 -4.682287318E-01
 4.131775796E-01 -6.295993179E-02 -4.589226376E-01
 4.266118109E-01 -6.216106936E-02 -4.457583186E-01
 4.394208193E-01 -6.125591323E-02 -4.323201932E-01
 4.527383447E-01 -6.015551090E-02 -4.078255326E-01
 4.653929174E-01 -5.897571519E-02 -3.825882381E-01
 4.778080881E-01 -5.771042407E-02 -3.584627284E-01
 4.896319509E-01 -5.640535802E-02 -3.316031845E-01
 5.017743111E-01 -5.498145893E-02 -3.040343202E-01
 5.155884027E-01 -5.329148844E-02 -2.816771006E-01
 5.295956731E-01 -5.144365504E-02 -2.447067524E-01
 5.426258445E-01 -4.965361580E-02 -2.124240637E-01
 5.568645597E-01 -4.767022654E-02 -1.888638765E-01
 5.693364739E-01 -4.586337507E-02 -1.599030457E-01
 5.829808116E-01 -4.385568947E-02 -1.342260673E-01
 5.953012705E-01 -4.199656099E-02 -1.044713139E-01
 6.075653434E-01 -4.017095640E-02 -9.002713498E-02
 6.205971241E-01 -3.817241266E-02 -5.911436573E-02
 6.347649693E-01 -3.604158387E-02 -4.418813305E-02
 6.483337283E-01 -3.394838050E-02 -1.488147629E-02
 6.618571877E-01 -3.189871833E-02 1.843225606E-03
 6.757240295E-01 -2.979684062E-02 2.191575923E-02
 6.884539723E-01 -2.786545828E-02 4.187343479E-02
 7.011109591E-01 -2.595466375E-02 6.114511407E-02
 7.158781886E-01 -2.374722064E-02 8.272392383E-02
 7.291065454E-01 -2.181768045E-02 9.648757342E-02
 7.406252623E-01 -2.014621906E-02 1.126795556E-01
 7.527778745E-01 -1.838790439E-02 1.335372437E-01
 7.658056617E-01 -1.657950692E-02 1.432839698E-01
 7.784538269E-01 -1.483102608E-02 1.613852655E-01
 7.903274298E-01 -1.320006326E-02 1.829256938E-01
 8.030101061E-01 -1.155560464E-02 1.921995968E-01
 8.138737082E-01 -1.014008280E-02 2.153324161E-01
 8.254151940E-01 -8.752874099E-03 2.195564438E-01
 8.370983601E-01 -7.330509368E-03 2.462231443E-01
 8.493186235E-01 -5.989951547E-03 2.534379699E-01
 8.612148166E-01 -4.743403755E-03 2.691821209E-01
 8.729104400E-01 -3.606768325E-03 2.829697232E-01
 8.848578334E-01 -2.557510743E-03 2.946421892E-01
 8.974491358E-01 -1.570866327E-03 3.081637438E-01
 9.076670408E-01 -9.178738692E-04 3.093604612E-01
 9.174469113E-01 -3.639644128E-04 3.152467848E-01
 9.265145063E-01 6.330412725E-05 3.210377510E-01
 9.355803132E-01 4.010953417E-04 3.236232327E-01
 9.479631782E-01 7.342348108E-04 3.244342868E-01
 9.615325928E-01 9.292058530E-04 3.256807397E-01
 9.768931270E-01 9.412431973E-04 3.309414110E-01
 9.897132516E-01 7.764953771E-04 3.498496162E-01
 -5.000000000E-01 -1.000000000E+00 9.811702872E-03
 3.500000000E+00 -1.000000000E+00 5.468782513E-03
 3.500000000E+00 1.000000000E+00 -1.309917608E-02
 -5.000000000E-01 1.000000000E+00 1.315065351E-03
 9.939757586E-01 1.664563781E-03 2.505955179E-01
 9.821819961E-01 3.800413338E-03 1.299782603E-01
 9.703308940E-01 5.975772860E-03 6.614782306E-02
 9.578974843E-01 8.238485083E-03 1.916207245E-02
 9.459041357E-01 1.033985941E-02 -8.731798039E-03
 9.350126386E-01 1.223278325E-02 -4.648984778E-02
 9.239096045E-01 1.412932435E-02 -7.560450502E-02
 9.123505652E-01 1.604177710E-02 -1.121959805E-01
 9.006148279E-01 1.788696088E-02 -1.339803356E-01
 8.881050050E-01 1.973251812E-02 -1.436020342E-01
 8.759339154E-01 2.146835998E-02 -1.703381903E-01
 8.634067774E-01 2.315104380E-02 -1.713867069E-01
 8.506453335E-01 2.477771230E-02 -1.737087253E-01
 8.385259807E-01 2.630682569E-02 -1.881687010E-01
 8.256349266E-01 2.788412757E-02 -1.954248591E-01
 8.119136393E-01 2.950851619E-02 -2.042244653E-01
 7.988815010E-01 3.101156559E-02 -2.069327060E-01
 7.864433527E-01 3.243327141E-02 -2.237481919E-01
 7.737521231E-01 3.385469504E-02 -2.338801289E-01
 7.605675161E-01 3.527212329E-02 -2.370652552E-01
 7.466806173E-01 3.674978577E-02 -2.530720253E-01
 7.338583767E-01 3.808424622E-02 -2.605553957E-01
 7.224452198E-01 3.923979402E-02 -2.733287069E-01
 7.106898129E-01 4.040608555E-02 -2.831659739E-01
 6.975933909E-01 4.166036285E-02 -2.936526333E-01
 6.837378740E-01 4.295013659E-02 -3.060597211E-01
 6.716926098E-01 4.403395765E-02 -3.200488118E-01
 6.604155302E-01 4.500248656E-02 -3.255889242E-01
 6.488699913E-01 4.596166499E-02 -3.386173436E-01
 6.371669769E-01 4.689193703E-02 -3.464203420E-01
 6.253650188E-01 4.778407514E-02 -3.546535930E-01
 6.141993701E-01 4.859427921E-02 -3.672136429E-01
 6.022289395E-01 4.941296205E-02 -3.771265848E-01
 5.896166265E-01 5.021204799E-02 -3.869802634E-01
 5.764301717E-01 5.097088963E-02 -3.905204009E-01
 5.629126132E-01 5.168608949E-02 -3.981986167E-01
 5.499869883E-01 5.231190100E-02 -4.090159644E-01
 5.380095541E-01 5.282426998E-02 -4.144422932E-01
 5.262696743E-01 5.325499363E-02 -4.159585989E-01
 5.134480894E-01 5.366545729E-02 -4.205120668E-01
 5.012171566E-01 5.399130657E-02 -4.224234374E-01
 4.889729321E-01 5.424722470E-02 -4.213193382E-01
 4.758381546E-01 5.446728505E-02 -4.279484711E-01
 4.620973468E-01 5.461023748E-02 -4.270189447E-01
 4.477603883E-01 5.466449820E-02 -4.220898971E-01
 4.340995997E-01 5.464377813E-02 -4.228444534E-01
 4.208795726E-01 5.455121398E-02 -4.181535199E-01
 4.082187414E-01 5.439775251E-02 -4.169830219E-01
 3.959563375E-01 5.419095792E-02 -4.145911331E-01
 3.836898804E-01 5.392095074E-02 -4.087293166E-01
 3.722936958E-01 5.362130143E-02 -4.077928341E-01
 3.603895754E-01 5.325399153E-02 -4.031070505E-01
 3.479957581E-01 5.281286873E-02 -3.973887484E-01
 3.360890001E-01 5.233327858E-02 -3.909052993E-01
 3.249757439E-01 5.184762180E-02 -3.913277189E-01
 3.140133619E-01 5.131679587E-02 -3.862178628E-01
 3.016223460E-01 5.065478198E-02 -3.779293574E-01
 2.882774174E-01 4.987961054E-02 -3.705627657E-01
 2.750710547E-01 4.905352928E-02 -3.641089018E-01
 2.627623677E-01 4.822703637E-02 -3.586056030E-01
 2.505111024E-01 4.735023901E-02 -3.546416958E-01
 2.378278002E-01 4.637764394E-02 -3.457503943E-01
 2.253451869E-01 4.535910673E-02 -3.393460875E-01
 2.134880573E-01 4.433793761E-02 -3.323606098E-01
 2.022252381E-01 4.331695102E-02 -3.278293722E-01
 1.907069981E-01 4.221888073E-02 -3.214793733E-01
 1.787513047E-01 4.101839289E-02 -3.154512287E-01
 1.670386344E-01 3.977741487E-02 -3.087783406E-01
 1.552701816E-01 3.846343793E-02 -3.008643136E-01
 1.439816877E-01 3.714201972E-02 -2.955448123E-01
 1.330997944E-01 3.580373339E-02 -2.906438815E-01
 1.218043044E-01 3.434242122E-02 -2.852064678E-01
 1.106588691E-01 3.281739913E-02 -2.804576159E-01
 8.995987102E-02 2.973376401E-02 -2.699235346E-01
 7.827379182E-02 2.782059740E-02 -2.633626389E-01
 7.308373228E-02 -3.722526692E-02 -2.116037627E-01
 8.333493769E-02 -3.944987990E-02 -2.347633564E-01
 9.366854280E-02 -4.151248746E-02 -2.473554678E-01
 1.044946276E-01 -4.352233186E-02 -2.637006479E-01
 1.158466637E-01 -4.548336007E-02 -2.771731053E-01
 1.274664588E-01 -4.735586047E-02 -2.924901707E-01
 1.383848637E-01 -4.900234938E-02 -3.041300343E-01
 1.491066590E-01 -5.052138865E-02 -3.144675977E-01
 1.605268940E-01 -5.204226449E-02 -3.259200383E-01
 1.722209901E-01 -5.350572057E-02 -3.390646530E-01
 1.838961169E-01 -5.487260967E-02 -3.519967929E-01
 1.949569136E-01 -5.607962236E-02 -3.636432007E-01
 2.056496888E-01 -5.716942437E-02 -3.695172901E-01
 2.172515020E-01 -5.827467889E-02 -3.829856385E-01
 2.294974998E-01 -5.934968404E-02 -3.946599237E-01
 2.417061329E-01 -6.033036672E-02 -4.068277662E-01
 2.541429475E-01 -6.122775935E-02 -4.176425143E-01
 2.661577761E-01 -6.200703047E-02 -4.286369364E-01
 2.781996578E-01 -6.268714741E-02 -4.378383178E-01
 2.910554558E-01 -6.331301108E-02 -4.468550487E-01
 3.039138615E-01 -6.383401155E-02 -4.615522116E-01
 3.160114586E-01 -6.420413032E-02 -4.709674759E-01
 3.278324157E-01 -6.445413455E-02 -4.694956694E-01
 3.392133862E-01 -6.460859627E-02 -4.807900696E-01
 3.501427919E-01 -6.465310231E-02 -4.805349153E-01
 3.613056540E-01 -6.460530311E-02 -4.835765110E-01
 3.721189201E-01 -6.446217000E-02 -4.868434969E-01
 3.831064254E-01 -6.420172006E-02 -4.835908701E-01
 3.949948251E-01 -6.379214302E-02 -4.724402438E-01
 4.072036743E-01 -6.325353310E-02 -4.640016605E-01
 4.198946953E-01 -6.256050058E-02 -4.508974821E-01
 4.330163151E-01 -6.170849130E-02 -4.402571415E-01
 4.460795820E-01 -6.070571207E-02 -4.206044955E-01
 4.590656310E-01 -5.956561305E-02 -3.966094283E-01
 4.716005027E-01 -5.834306963E-02 -3.708343676E-01
 4.837200195E-01 -5.705789104E-02 -3.465345620E-01
 4.957031310E-01 -5.569340847E-02 -3.179071951E-01
 5.086813569E-01 -5.413647369E-02 -2.912014337E-01
 5.225920379E-01 -5.236757174E-02 -2.653704234E-01
 5.361107588E-01 -5.054863542E-02 -2.295936055E-01
 5.497452021E-01 -4.866192117E-02 -1.990316765E-01
 5.631005168E-01 -4.676680081E-02 -1.764119107E-01
 5.761586428E-01 -4.485953227E-02 -1.466716361E-01
 5.891410410E-01 -4.292612523E-02 -1.207510565E-01
 6.014333069E-01 -4.108375870E-02 -9.500404031E-02
 6.140812337E-01 -3.917168453E-02 -7.675529071E-02
 6.276810467E-01 -3.710699826E-02 -4.984067728E-02
 6.415493488E-01 -3.499498218E-02 -3.170637087E-02
 6.550954580E-01 -3.292354941E-02 -5.259572746E-03
 6.687906086E-01 -3.084777948E-02 1.180325520E-02
 6.820890009E-01 -2.883114945E-02 3.133043031E-02
 6.947824657E-01 -2.691006102E-02 5.083222002E-02
 7.084945738E-01 -2.485094219E-02 7.103918037E-02
 7.224923670E-01 -2.278245054E-02 9.126343051E-02
 7.348659039E-01 -2.098194975E-02 1.045476034E-01
 7.467015684E-01 -1.926706173E-02 1.216973145E-01
 7.592917681E-01 -1.748370565E-02 1.398922429E-01
 7.721297443E-01 -1.570526650E-02 1.520650043E-01
 7.843906283E-01 -1.401554467E-02 1.705667749E-01
 7.966687679E-01 -1.237783395E-02 1.889640946E-01
 8.084419072E-01 -1.084784372E-02 2.015869452E-01
 8.196444511E-01 -9.446478449E-03 2.194506673E-01
 8.312567770E-01 -8.041691734E-03 2.288370386E-01
 8.432084918E-01 -6.660230458E-03 2.517668401E-01
 8.552667201E-01 -5.366677651E-03 2.604204953E-01
 8.670626283E-01 -4.175086040E-03 2.756920726E-01
 8.788841367E-01 -3.082139534E-03 2.886075183E-01
 8.911534846E-01 -2.064188535E-03 3.004756840E-01
 9.025580883E-01 -1.244370098E-03 3.131800289E-01
 9.417717457E-01 5.676650762E-04 3.221374098E-01
 9.547478855E-01 8.317203319E-04 3.236517066E-01
 9.692128599E-01 9.352245252E-04 3.256855554E-01
 9.833031893E-01 8.588692872E-04 3.366035612E-01
 9.949410856E-01 6.581899070E-04 4.011324998E-01
 -5.000000000E-01 9.500000000E-01 1.914234271E-03
 -5.000000000E-01 9.000000000E-01 2.958240600E-03
 -5.000000000E-01 8.500000000E-01 4.245821028E-03
 -5.000000000E-01 8.000000000E-01 5.992252854E-03
 -5.000000000E-01 7.500000000E-01 8.302855837E-03
 -5.000000000E-01 7.000000000E-01 1.125075269E-02
 -5.000000000E-01 6.500000000E-01 1.477922411E-02
 -5.000000000E-01 6.000000000E-01 1.906072044E-02
 -5.000000000E-01 5.500000000E-01 2.405354785E-02
 -5.000000000E-01 5.000000000E-01 2.963500402E-02
 -5.000000000E-01 4.500000000E-01 3.611501164E-02
 -5.000000000E-01 4.000000000E-01 4.296418074E-02
 -5.000000000E-01 3.500000000E-01 5.048781960E-02
 -5.000000000E-01 3.000000000E-01 5.803658007E-02
 -5.000000000E-01 2.500000000E-01 6.580417330E-02
 -5.000000000E-01 2.000000000E-01 7.315020940E-02
 -5.000000000E-01 1.500000000E-01 7.979811618E-02
 -5.000000000E-01 1.000000000E-01 8.542645659E-02
 -5.000000000E-01 5.000000000E-02 8.966549286E-02
 -5.000000000E-01 2.752242878E-12 9.230126014E-02
 -5.000000000E-01 -5.000000000E-02 9.310743006E-02
 -5.000000000E-01 -1.000000000E-01 9.207740044E-02
 -5.000000000E-01 -1.500000000E-01 8.957363378E-02
 -5.000000000E-01 -2.000000000E-01 8.559157490E-02
 -5.000000000E-01 -2.500000000E-01 8.050874714E-02
 -5.000000000E-01 -3.000000000E-01 7.482436166E-02
 -5.000000000E-01 -3.500000000E-01 6.875425221E-02
 -5.000000000E-01 -4.000000000E-01 6.258160600E-02
 -5.000000000E-01 -4.500000000E-01 5.658268034E-02
 -5.000000000E-01 -5.000000000E-01 5.081213023E-02
 -5.000000000E-01 -5.500000000E-01 4.544867935E-02
 -5.000000000E-01 -6.000000000E-01 4.050484304E-02
 -5.000000000E-01 -6.500000000E-01 3.602003029E-02
 -5.000000000E-01 -7.000000000E-01 3.194086627E-02
 -5.000000000E-01 -7.500000000E-01 2.825275054E-02
 -5.000000000E-01 -8.000000000E-01 2.489810143E-02
 -5.000000000E-01 -8.500000000E-01 2.163974030E-02
 -5.000000000E-01 -9.000000000E-01 1.820891412E-02
 -5.000000000E-01 -9.500000000E-01 1.347264435E-02
 -4.500000000E-01 -1.000000000E+00 1.225607566E-02
 -4.000000000E-01 -1.000000000E+00 1.573238894E-02
 -3.500000000E-01 -1.000000000E+00 1.715435333E-02
 -3.000000000E-01 -1.000000000E+00 1.744481428E-02
 -2.500000000E-01 -1.000000000E+00 1.718592007E-02
 -2.000000000E-01 -1.000000000E+00 1.606845811E-02
 -1.500000000E-01 -1.000000000E+00 1.420451913E-02
 -1.000000000E-01 -1.000000000E+00 1.173461629E-02
 -5.000000000E-02 -1.000000000E+00 8.759975034E-03
 -9.424683256E-13 -1.000000000E+00 5.367793096E-03
 5.000000000E-02 -1.000000000E+00 1.527355682E-03
 1.000000000E-01 -1.000000000E+00 -2.609228420E-03
 1.500000000E-01 -1.000000000E+00 -6.594143489E-03
 2.000000000E-01 -1.000000000E+00 -1.037098617E-02
 2.500000000E-01 -1.000000000E+00 -1.398359522E-02
 3.000000000E-01 -1.000000000E+00 -1.718680908E-02
 3.500000000E-01 -1.000000000E+00 -1.975953320E-02
 4.000000000E-01 -1.000000000E+00 -2.165371914E-02
 4.500000000E-01 -1.000000000E+00 -2.282314613E-02
 5.000000000E-01 -1.000000000E+00 -2.302794875E-02
 5.500000000E-01 -1.000000000E+00 -2.255087526E-02
 6.000000000E-01 -1.000000000E+00 -2.121271019E-02
 6.500000000E-01 -1.000000000E+00 -1.924008761E-02
 7.000000000E-01 -1.000000000E+00 -1.657043007E-02
 7.500000000E-01 -1.000000000E+00 -1.343640195E-02
 8.000000000E-01 -1.000000000E+00 -9.975113693E-03
 8.500000000E-01 -1.000000000E+00 -6.257109824E-03
 9.000000000E-01 -1.000000000E+00 -2.475874167E-03
 9.500000000E-01 -1.000000000E+00 1.252358814E-03
 1.000000000E+00 -1.000000000E+00 4.835654922E-03
 1.050000000E+00 -1.000000000E+00 8.144561258E-03
 1.100000000E+00 -1.000000000E+00 1.123328920E-02
 1.150000000E+00 -1.000000000E+00 1.393577987E-02
 1.200000000E+00 -1.000000000E+00 1.626953327E-02
 1.250000000E+00 -1.000000000E+00 1.827043583E-02
 1.300000000E+00 -1.000000000E+00 1.993387608E-02
 1.350000000E+00 -1.000000000E+00 2.127304432E-02
 1.400000000E+00 -1.000000000E+00 2.231146218E-02
 1.450000000E+00 -1.000000000E+00 2.307757472E-02
 1.500000000E+00 -1.000000000E+00 2.358846343E-02
 1.550000000E+00 -1.000000000E+00 2.391531850E-02
 1.600000000E+00 -1.000000000E+00 2.404676103E-02
 1.650000000E+00 -1.000000000E+00 2.406248505E-02
 1.700000000E+00 -1.000000000E+00 2.392135908E-02
 1.750000000E+00 -1.000000000E+00 2.371061105E-02
 1.800000000E+00 -1.000000000E+00 2.340367613E-02
 1.850000000E+00 -1.000000000E+00 2.305582081E-02
 1.900000000E+00 -1.000000000E+00 2.265947927E-02
 1.950000000E+00 -1.000000000E+00 2.223060331E-02
 2.000000000E+00 -1.000000000E+00 2.178916931E-02
 2.050000000E+00 -1.000000000E+00 2.132356525E-02
 2.100000000E+00 -1.000000000E+00 2.088889215E-02
 2.150000000E+00 -1.000000000E+00 2.043345424E-02
 2.200000000E+00 -1.000000000E+00 2.000832557E-02
 2.250000000E+00 -1.000000000E+00 1.957990070E-02
 2.300000000E+00 -1.000000000E+00 1.917789666E-02
 2.350000000E+00 -1.000000000E+00 1.877355966E-02
 2.400000000E+00 -1.000000000E+00 1.846257640E-02
 2.450000000E+00 -1.000000000E+00 1.813238492E-02
 2.500000000E+00 -1.000000000E+00 1.779843889E-02
 2.550000000E+00 -1.000000000E+00 1.752123547E-02
 2.600000000E+00 -1.000000000E+00 1.721112559E-02
 2.650000000E+00 -1.000000000E+00 1.702354051E-02
 2.700000000E+00 -1.000000000E+00 1.676613539E-02
 2.750000000E+00 -1.000000000E+00 1.655827136E-02
 2.800000000E+00 -1.000000000E+00 1.637434183E-02
 2.850000000E+00 -1.000000000E+00 1.620645156E-02
 2.900000000E+00 -1.000000000E+00 1.601266460E-02
 2.950000000E+00 -1.000000000E+00 1.583624724E-02
 3.000000000E+00 -1.000000000E+00 1.562502580E-02
 3.050000000E+00 -1.000000000E+00 1.541174973E-02
 3.100000000E+00 -1.000000000E+00 1.513383303E-02
 3.150000000E+00 -1.000000000E+00 1.486462721E-02
 3.200000000E+00 -1.000000000E+00 1.437985914E-02
 3.250000000E+00 -1.000000000E+00 1.391569711E-02
 3.300000000E+00 -1.000000000E+00 1.315892274E-02
 3.350000000E+00 -1.000000000E+00 1.215181117E-02
 3.400000000E+00 -1.000000000E+00 1.064188146E-02
 3.450000000E+00 -1.000000000E+00 8.190430334E-03
 3.500000000E+00 -9.500000000E-01 4.753650791E-03
 3.500000000E+00 -9.000000000E-01 6.145731518E-03
 3.500000000E+00 -8.500000000E-01 7.288458823E-03
 3.500000000E+00 -8.000000000E-01 8.577680351E-03
 3.500000000E+00 -7.500000000E-01 9.843450131E-03
 3.500000000E+00 -7.000000000E-01 1.109201842E-02
 3.500000000E+00 -6.500000000E-01 1.248207566E-02
 3.500000000E+00 -6.000000000E-01 1.401153523E-02
 3.500000000E+00 -5.500000000E-01 1.569198568E-02
 3.500000000E+00 -5.000000000E-01 1.753704774E-02
 3.500000000E+00 -4.500000000E-01 1.949964369E-02
 3.500000000E+00 -4.000000000E-01 2.160059080E-02
 3.500000000E+00 -3.500000000E-01 2.381839710E-02
 3.500000000E+00 -3.000000000E-01 2.597194764E-02
 3.500000000E+00 -2.500000000E-01 2.774221447E-02
 3.500000000E+00 -2.000000000E-01 2.865476168E-02
 3.500000000E+00 -1.500000000E-01 2.875463891E-02
 3.500000000E+00 -1.000000000E-01 2.836994158E-02
 3.500000000E+00 -5.000000000E-02 2.769122127E-02
 3.500000000E+00 -2.752242878E-12 2.719065356E-02
 3.500000000E+00 5.000000000E-02 2.699188466E-02
 3.500000000E+00 1.000000000E-01 2.642360265E-02
 3.500000000E+00 1.500000000E-01 2.555599854E-02
 3.500000000E+00 2.000000000E-01 2.324319978E-02
 3.500000000E+00 2.500000000E-01 2.080051465E-02
 3.500000000E+00 3.000000000E-01 1.804207921E-02
 3.500000000E+00 3.500000000E-01 1.542883376E-02
 3.500000000E+00 4.000000000E-01 1.301273243E-02
 3.500000000E+00 4.500000000E-01 1.076406162E-02
 3.500000000E+00 5.000000000E-01 8.705367076E-03
 3.500000000E+00 5.500000000E-01 6.915466558E-03
 3.500000000E+00 6.000000000E-01 5.573367724E-03
 3.500000000E+00 6.500000000E-01 4.774866002E-03
 3.500000000E+00 7.000000000E-01 4.366130758E-03
 3.500000000E+00 7.500000000E-01 3.693785684E-03
 3.500000000E+00 8.000000000E-01 2.103677304E-03
 3.500000000E+00 8.500000000E-01 -1.689584012E-03
 3.500000000E+00 9.000000000E-01 -6.899164421E-03
 3.500000000E+00 9.500000000E-01 -1.313928194E-02
 3.450000000E+00 1.000000000E+00 -6.708605696E-03
 3.400000000E+00 1.000000000E+00 -1.509011444E-03
 3.350000000E+00 1.000000000E+00 8.997263318E-04
 3.300000000E+00 1.000000000E+00 2.017755905E-03
 3.250000000E+00 1.000000000E+00 2.622876772E-03
 3.200000000E+00 1.000000000E+00 3.073165620E-03
 3.150000000E+00 1.000000000E+00 2.977493845E-03
 3.100000000E+00 1.000000000E+00 3.164761941E-03
 3.050000000E+00 1.000000000E+00 2.711998226E-03
 3.000000000E+00 1.000000000E+00 2.530595383E-03
 2.950000000E+00 1.000000000E+00 2.024447924E-03
 2.900000000E+00 1.000000000E+00 1.617925353E-03
 2.850000000E+00 1.000000000E+00 1.014088312E-03
 2.800000000E+00 1.000000000E+00 5.371094923E-04
 2.750000000E+00 1.000000000E+00 -1.884307206E-04
 2.700000000E+00 1.000000000E+00 -7.857342971E-04
 2.650000000E+00 1.000000000E+00 -1.643751266E-03
 2.600000000E+00 1.000000000E+00 -2.325628574E-03
 2.550000000E+00 1.000000000E+00 -3.224653063E-03
 2.500000000E+00 1.000000000E+00 -4.243085032E-03
 2.450000000E+00 1.000000000E+00 -5.020730183E-03
 2.400000000E+00 1.000000000E+00 -6.204717999E-03
 2.350000000E+00 1.000000000E+00 -7.121334875E-03
 2.300000000E+00 1.000000000E+00 -8.377727757E-03
 2.250000000E+00 1.000000000E+00 -9.574274615E-03
 2.200000000E+00 1.000000000E+00 -1.089232003E-02
 2.150000000E+00 1.000000000E+00 -1.231439701E-02
 2.100000000E+00 1.000000000E+00 -1.381610238E-02
 2.050000000E+00 1.000000000E+00 -1.546531149E-02
 2.000000000E+00 1.000000000E+00 -1.715795999E-02
 1.950000000E+00 1.000000000E+00 -1.897836775E-02
 1.900000000E+00 1.000000000E+00 -2.085419795E-02
 1.850000000E+00 1.000000000E+00 -2.303066465E-02
 1.800000000E+00 1.000000000E+00 -2.542770621E-02
 1.750000000E+00 1.000000000E+00 -2.769406385E-02
 1.700000000E+00 1.000000000E+00 -3.051729659E-02
 1.650000000E+00 1.000000000E+00 -3.304749598E-02
 1.600000000E+00 1.000000000E+00 -3.625488903E-02
 1.550000000E+00 1.000000000E+00 -3.945941744E-02
 1.500000000E+00 1.000000000E+00 -4.307170364E-02
 1.450000000E+00 1.000000000E+00 -4.652891740E-02
 1.400000000E+00 1.000000000E+00 -5.034022985E-02
 1.350000000E+00 1.000000000E+00 -5.448845952E-02
 1.300000000E+00 1.000000000E+00 -5.878246840E-02
 1.250000000E+00 1.000000000E+00 -6.284799891E-02
 1.200000000E+00 1.000000000E+00 -6.749603374E-02
 1.150000000E+00 1.000000000E+00 -7.164836211E-02
 1.100000000E+00 1.000000000E+00 -7.617064138E-02
 1.050000000E+00 1.000000000E+00 -8.043398737E-02
 1.000000000E+00 1.000000000E+00 -8.413439037E-02
 9.500000000E-01 1.000000000E+00 -8.754884689E-02
 9.000000000E-01 1.000000000E+00 -9.046791960E-02
 8.500000000E-01 1.000000000E+00 -9.261296031E-02
 8.000000000E-01 1.000000000E+00 -9.469640984E-02
 7.500000000E-01 1.000000000E+00 -9.507343569E-02
 7.000000000E-01 1.000000000E+00 -9.522615302E-02
 6.500000000E-01 1.000000000E+00 -9.429281584E-02
 6.000000000E-01 1.000000000E+00 -9.216298481E-02
 5.500000000E-01 1.000000000E+00 -8.955229373E-02
 5.000000000E-01 1.000000000E+00 -8.573433421E-02
 4.500000000E-01 1.000000000E+00 -8.130629878E-02
 4.000000000E-01 1.000000000E+00 -7.604475977E-02
 3.500000000E-01 1.000000000E+00 -7.027013821E-02
 3.000000000E-01 1.000000000E+00 -6.390579946E-02
 2.500000000E-01 1.000000000E+00 -5.726881438E-02
 2.000000000E-01 1.000000000E+00 -5.028789738E-02
 1.500000000E-01 1.000000000E+00 -4.360060301E-02
 1.000000000E-01 1.000000000E+00 -3.687399133E-02
 5.000000000E-02 1.000000000E+00 -3.039448545E-02
 1.733724275E-12 1.000000000E+00 -2.435616307E-02
 -5.000000000E-02 1.000000000E+00 -1.886138767E-02
 -1.000000000E-01 1.000000000E+00 -1.386063601E-02
 -1.500000000E-01 1.000000000E+00 -9.585429561E-03
 -2.000000000E-01 1.000000000E+00 -5.955402511E-03
 -2.500000000E-01 1.000000000E+00 -3.025379382E-03
 -3.000000000E-01 1.000000000E+00 -8.355851207E-04
 -3.500000000E-01 1.000000000E+00 7.043834577E-04
 -4.000000000E-01 1.000000000E+00 1.478219170E-03
 -4.500000000E-01 1.000000000E+00 1.510620153E-03
 9.005442147E-01 -5.902950826E-03 3.026222792E-01
 9.864434560E-01 -4.222067214E-03 3.400367791E-01
 8.291466197E-01 -1.348612592E-02 2.237724247E-01
 7.558871822E-01 -2.302298101E-02 1.325149411E-01
 6.858450052E-01 -3.392588439E-02 3.495916613E-02
 6.182045737E-01 -4.431497518E-02 -6.756819530E-02
 5.541107221E-01 -5.395119334E-02 -1.902360532E-01
 4.932757886E-01 -6.123624120E-02 -3.179232742E-01
 4.366105113E-01 -6.702866558E-02 -4.214200199E-01
 3.798645757E-01 -6.865522239E-02 -4.740746965E-01
 3.245593955E-01 -6.893503670E-02 -4.599160881E-01
 2.686746836E-01 -6.705790445E-02 -4.232161987E-01
 2.130268548E-01 -6.284971179E-02 -3.709026332E-01