TITLE     = "Visualization of the solution"
VARIABLES = "x"
"y"
"Pressure_Coefficient"
ZONE T="Zone"
 STRANDID=0, SOLUTIONTIME=0
 Nodes=12093, Elements=23601, ZONETYPE=FEQuadrilateral
 DATAPACKING=POINT
 DT=(DOUBLE DOUBLE DOUBLE )
 9.998635650E-01 5.095644738E-04 2.495892492E-01
 9.869967103E-01 3.029767191E-03 1.658117226E-01
 9.740372300E-01 5.583042745E-03 1.073833438E-01
 9.576725960E-01 8.781408891E-03 6.117558859E-02
 9.430224299E-01 1.168206707E-02 1.906937959E-02
 9.288907051E-01 1.448289771E-02 -3.109845183E-02
 9.167300463E-01 1.676317118E-02 -3.415846828E-02
 9.050711989E-01 1.906260103E-02 -8.277368035E-02
 8.929488063E-01 2.132079937E-02 -1.000051853E-01
 8.808817863E-01 2.354608849E-02 -1.198999744E-01
 8.688693643E-01 2.574573085E-02 -1.447150591E-01
 8.568812013E-01 2.790721320E-02 -1.704538491E-01
 8.448147774E-01 3.002775460E-02 -1.974367372E-01
 8.337320685E-01 3.188390657E-02 -2.035006719E-01
 8.223107457E-01 3.378262743E-02 -2.192533037E-01
 8.100179434E-01 3.578546271E-02 -2.396560787E-01
 7.973594666E-01 3.776744381E-02 -2.415652012E-01
 7.852421999E-01 3.970674798E-02 -2.770037677E-01
 7.726996541E-01 4.158908874E-02 -2.831881872E-01
 7.609506249E-01 4.333068803E-02 -2.934327085E-01
 7.479672432E-01 4.525004700E-02 -3.198359597E-01
 7.344235182E-01 4.716151208E-02 -3.360776768E-01
 7.237682939E-01 4.861648381E-02 -3.416628632E-01
 7.127122879E-01 5.012795702E-02 -3.658395934E-01
 7.011049986E-01 5.164328590E-02 -3.767319337E-01
 6.880748272E-01 5.330609158E-02 -3.973612039E-01
 6.752389073E-01 5.486830696E-02 -4.153465174E-01
 6.646969318E-01 5.608596280E-02 -4.200258553E-01
 6.531377435E-01 5.739599094E-02 -4.365519717E-01
 6.416250467E-01 5.864436924E-02 -4.515636928E-01
 6.298819780E-01 5.985323712E-02 -4.612981023E-01
 6.185215116E-01 6.098574027E-02 -4.813133764E-01
 6.078771949E-01 6.197500974E-02 -4.914223139E-01
 5.956460238E-01 6.303480268E-02 -5.011670070E-01
 5.841525793E-01 6.395816803E-02 -5.044062783E-01
 5.708584785E-01 6.497424841E-02 -5.228132356E-01
 5.585520864E-01 6.581241637E-02 -5.277711576E-01
 5.462408662E-01 6.658267975E-02 -5.389561139E-01
 5.352330208E-01 6.719106436E-02 -5.414647735E-01
 5.234512091E-01 6.777251512E-02 -5.440901350E-01
 5.112330317E-01 6.830014288E-02 -5.487860202E-01
 5.001446605E-01 6.870301813E-02 -5.437591272E-01
 4.872098267E-01 6.912440062E-02 -5.523751917E-01
 4.740122557E-01 6.945100427E-02 -5.523465603E-01
 4.604817629E-01 6.969220936E-02 -5.520736593E-01
 4.470921159E-01 6.983266026E-02 -5.457786561E-01
 4.344607890E-01 6.990510225E-02 -5.465504838E-01
 4.214943051E-01 6.989675760E-02 -5.441643842E-01
 4.092258513E-01 6.982021779E-02 -5.425172009E-01
 3.967023194E-01 6.966667622E-02 -5.397649532E-01
 3.843806386E-01 6.943877786E-02 -5.323812884E-01
 3.725789189E-01 6.917593628E-02 -5.335608965E-01
 3.593754470E-01 6.878770888E-02 -5.280441798E-01
 3.466851115E-01 6.833641976E-02 -5.183395657E-01
 3.339032829E-01 6.783156842E-02 -5.200886511E-01
 3.229002655E-01 6.732624024E-02 -5.140027888E-01
 3.102312982E-01 6.667695194E-02 -5.071236744E-01
 2.971489727E-01 6.594277918E-02 -5.069701370E-01
 2.833156586E-01 6.505545974E-02 -4.988524077E-01
 2.710058093E-01 6.418929994E-02 -4.908309055E-01
 2.592841983E-01 6.330842525E-02 -4.887911229E-01
 2.467416674E-01 6.227435544E-02 -4.804721203E-01
 2.344439179E-01 6.119025871E-02 -4.770401811E-01
 2.221578360E-01 6.001233682E-02 -4.690434662E-01
 2.103622854E-01 5.879907683E-02 -4.601510745E-01
 1.984782815E-01 5.749902129E-02 -4.543020079E-01
 1.863054037E-01 5.606559664E-02 -4.430017217E-01
 1.745932698E-01 5.460680276E-02 -4.373871751E-01
 1.630804688E-01 5.307284370E-02 -4.281105062E-01
 1.512200981E-01 5.138302594E-02 -4.171724907E-01
 1.404492408E-01 4.975525662E-02 -4.065839328E-01
 1.288209110E-01 4.788173363E-02 -3.939130280E-01
 1.175343841E-01 4.594437033E-02 -3.830572109E-01
 1.068420187E-01 4.398353398E-02 -3.689673671E-01
 9.691692144E-02 4.205070809E-02 -3.552062339E-01
 8.587957919E-02 3.974233195E-02 -3.362546553E-01
 7.429946959E-02 3.712374344E-02 -3.163906298E-01
 6.438677758E-02 3.469955549E-02 -2.971014903E-01
 5.461457744E-02 3.209884837E-02 -2.659226373E-01
 4.586934671E-02 2.956265770E-02 -2.392857682E-01
 3.833486140E-02 2.717240341E-02 -2.084884773E-01
 3.169227391E-02 2.488249168E-02 -1.736602102E-01
 2.596231550E-02 2.271117456E-02 -1.410805982E-01
 2.181719616E-02 2.100870200E-02 -1.070514163E-01
 1.787571236E-02 1.925261691E-02 -7.339895922E-02
 1.474427339E-02 1.772839762E-02 -2.575916805E-02
 1.188651379E-02 1.621557958E-02 1.186951939E-02
 9.762846865E-03 1.500033028E-02 5.517499178E-02
 7.902964018E-03 1.383229624E-02 9.292141597E-02
 6.173997186E-03 1.265765447E-02 1.697567598E-01
 3.885126906E-03 1.088746823E-02 2.705488845E-01
 1.961214002E-03 9.108590893E-03 3.917897420E-01
 4.142473917E-04 7.321998011E-03 5.986339182E-01
 -1.101214672E-03 4.809995648E-03 8.628649964E-01
 -1.735327300E-03 2.884202171E-03 1.016488575E+00
 -1.920928131E-03 1.356381108E-03 1.108798560E+00
 -1.805981039E-03 -3.027783241E-04 1.112823048E+00
 -1.347083715E-03 -2.023841720E-03 1.031163953E+00
 -3.642139491E-04 -4.064412322E-03 8.846042199E-01
 1.108048949E-03 -6.136610638E-03 6.921030713E-01
 3.115203232E-03 -8.267857134E-03 5.230013898E-01
 4.955440294E-03 -9.866818786E-03 3.880146263E-01
 7.084577810E-03 -1.147119887E-02 3.080641716E-01
 8.787445724E-03 -1.261563599E-02 2.217595432E-01
 1.091763377E-02 -1.392064523E-02 1.722601642E-01
 1.331272256E-02 -1.525604352E-02 1.145828603E-01
 1.666602865E-02 -1.695253700E-02 6.197711956E-02
 1.969670504E-02 -1.834807731E-02 4.443006545E-03
 2.358803898E-02 -1.997447014E-02 -2.944259700E-02
 2.891760133E-02 -2.199736610E-02 -6.820265498E-02
 3.463835269E-02 -2.395243198E-02 -1.062600466E-01
 4.155672342E-02 -2.609432861E-02 -1.336231480E-01
 4.915232211E-02 -2.822039090E-02 -1.613143290E-01
 5.815559253E-02 -3.049513884E-02 -1.778539576E-01
 6.697318703E-02 -3.253737465E-02 -1.985176641E-01
 7.723978907E-02 -3.472207859E-02 -2.128749031E-01
 8.734485507E-02 -3.669217229E-02 -2.241409820E-01
 9.770374745E-02 -3.858352080E-02 -2.393894019E-01
 1.090170965E-01 -4.049047828E-02 -2.470467332E-01
 1.203024015E-01 -4.227310792E-02 -2.600033542E-01
 1.321591139E-01 -4.402040690E-02 -2.703696630E-01
 1.429836452E-01 -4.551865160E-02 -2.820820172E-01
 1.543169767E-01 -4.698530585E-02 -2.895434203E-01
 1.666871905E-01 -4.849440977E-02 -3.008002425E-01
 1.785588712E-01 -4.984944314E-02 -3.123251293E-01
 1.905183196E-01 -5.112580582E-02 -3.239559167E-01
 2.013674527E-01 -5.219966918E-02 -3.316951735E-01
 2.129611820E-01 -5.328061059E-02 -3.441674594E-01
 2.252568156E-01 -5.433132872E-02 -3.529197128E-01
 2.377418727E-01 -5.531425402E-02 -3.664085886E-01
 2.499321401E-01 -5.616987124E-02 -3.733913259E-01
 2.621901035E-01 -5.694475025E-02 -3.833943622E-01
 2.734027505E-01 -5.757999420E-02 -3.960183497E-01
 2.857588828E-01 -5.817212537E-02 -4.012429891E-01
 2.980592549E-01 -5.866622925E-02 -4.098364347E-01
 3.107529581E-01 -5.906882137E-02 -4.159285599E-01
 3.225769997E-01 -5.935549736E-02 -4.280137955E-01
 3.350768089E-01 -5.952803791E-02 -4.294937214E-01
 3.458167613E-01 -5.957297236E-02 -4.286371827E-01
 3.572757244E-01 -5.954457074E-02 -4.352131203E-01
 3.682082295E-01 -5.940135568E-02 -4.312243819E-01
 3.790563345E-01 -5.916473269E-02 -4.275822056E-01
 3.905855119E-01 -5.881577358E-02 -4.238688647E-01
 4.036766887E-01 -5.827571452E-02 -4.117343448E-01
 4.159566462E-01 -5.765497684E-02 -4.072787636E-01
 4.284946918E-01 -5.685932934E-02 -3.850640399E-01
 4.407917857E-01 -5.596227944E-02 -3.647927562E-01
 4.529519677E-01 -5.498989671E-02 -3.528730508E-01
 4.646122754E-01 -5.392444506E-02 -3.240946333E-01
 4.769442677E-01 -5.272412673E-02 -3.045734845E-01
 4.886785150E-01 -5.150069296E-02 -2.859279570E-01
 5.012497902E-01 -5.007841438E-02 -2.559274670E-01
 5.148704052E-01 -4.845199361E-02 -2.273848812E-01
 5.280082822E-01 -4.679549858E-02 -1.950718824E-01
 5.411346555E-01 -4.511714354E-02 -1.765688999E-01
 5.537712574E-01 -4.341056943E-02 -1.441103386E-01
 5.671548843E-01 -4.157944396E-02 -1.190039909E-01
 5.801321268E-01 -3.977919742E-02 -9.657110909E-02
 5.925269127E-01 -3.801463172E-02 -6.852059344E-02
 6.054284573E-01 -3.620244563E-02 -5.337116608E-02
 6.195515394E-01 -3.416747600E-02 -2.377941001E-02
 6.339663863E-01 -3.212796897E-02 -8.988076115E-03
 6.485335231E-01 -3.002357110E-02 1.736281334E-02
 6.614638567E-01 -2.815842070E-02 3.872706755E-02
 6.749198437E-01 -2.625355683E-02 5.282594899E-02
 6.873328686E-01 -2.447506227E-02 7.588047483E-02
 6.997219324E-01 -2.273963764E-02 8.963099748E-02
 7.141262293E-01 -2.073798887E-02 1.076905338E-01
 7.271453142E-01 -1.892572455E-02 1.303689812E-01
 7.391009331E-01 -1.732776687E-02 1.407415510E-01
 7.526101470E-01 -1.553303655E-02 1.597303441E-01
 7.649564743E-01 -1.393624675E-02 1.742797837E-01
 7.785391808E-01 -1.222849824E-02 1.880566821E-01
 7.906500697E-01 -1.073977817E-02 2.020427469E-01
 8.028916717E-01 -9.222397581E-03 2.283530374E-01
 8.142341971E-01 -7.950000465E-03 2.324380699E-01
 8.255162835E-01 -6.684487686E-03 2.534858314E-01
 8.388032317E-01 -5.340942647E-03 2.570100716E-01
 8.507314324E-01 -4.125822335E-03 2.822673205E-01
 8.631431460E-01 -3.006352345E-03 2.909547779E-01
 8.744126558E-01 -2.071044873E-03 3.046729527E-01
 8.858224154E-01 -1.225008746E-03 3.158916682E-01
 8.992235065E-01 -4.032386933E-04 3.195617949E-01
 9.094315767E-01 1.373969135E-04 3.293588024E-01
 9.199435115E-01 5.903394194E-04 3.352800401E-01
 9.300517440E-01 9.122570627E-04 3.359417305E-01
 9.393020272E-01 1.123114140E-03 3.391976796E-01
 9.508838654E-01 1.275075832E-03 3.410012215E-01
 9.638566375E-01 1.293826383E-03 3.434160212E-01
 9.772546291E-01 1.153241028E-03 3.526215408E-01
 9.894742370E-01 8.819036884E-04 3.780332303E-01
 -5.000000000E-01 -1.000000000E+00 1.430290884E-02
 3.500000000E+00 -1.000000000E+00 8.637862920E-03
 3.500000000E+00 1.000000000E+00 -2.495806098E-02
 -5.000000000E-01 1.000000000E+00 -1.270951515E-03
 9.934301376E-01 1.769665832E-03 2.562264350E-01
 9.805169702E-01 4.306404968E-03 1.350310829E-01
 9.658549130E-01 7.182225818E-03 8.419500131E-02
 9.503475130E-01 1.023173798E-02 3.862575208E-02
 9.359565675E-01 1.308248239E-02 -1.040938747E-02
 9.228103757E-01 1.562303444E-02 -2.676570412E-02
 9.109006226E-01 1.791288611E-02 -6.452982343E-02
 8.990100026E-01 2.019170020E-02 -9.026242283E-02
 8.869152963E-01 2.243344393E-02 -1.090540367E-01
 8.748755753E-01 2.464590967E-02 -1.325930617E-01
 8.628752828E-01 2.682647202E-02 -1.585828246E-01
 8.508479893E-01 2.896748390E-02 -1.858958069E-01
 8.392734230E-01 3.095583059E-02 -1.982363127E-01
 8.280214071E-01 3.283326700E-02 -2.114220785E-01
 8.161643445E-01 3.478404507E-02 -2.314416708E-01
 8.036887050E-01 3.677645326E-02 -2.365270067E-01
 7.913008332E-01 3.873709589E-02 -2.643985175E-01
 7.789709270E-01 4.064791836E-02 -2.784090490E-01
 7.668251395E-01 4.245988838E-02 -2.862605642E-01
 7.544589341E-01 4.429036751E-02 -3.095441471E-01
 7.411953807E-01 4.620577954E-02 -3.277917985E-01
 7.290959060E-01 4.788899794E-02 -3.363255474E-01
 7.182402909E-01 4.937222041E-02 -3.560457087E-01
 7.069086432E-01 5.088562146E-02 -3.704025739E-01
 6.945899129E-01 5.247468874E-02 -3.880989377E-01
 6.816568673E-01 5.408719927E-02 -4.065408320E-01
 6.699679196E-01 5.547713488E-02 -4.161869151E-01
 6.589173377E-01 5.674097687E-02 -4.288306356E-01
 6.473813951E-01 5.802018009E-02 -4.447868940E-01
 6.357535124E-01 5.924880318E-02 -4.548929245E-01
 6.242017448E-01 6.041948870E-02 -4.724979205E-01
 6.131993532E-01 6.148037501E-02 -4.878578016E-01
 6.017616093E-01 6.250490621E-02 -4.961148026E-01
 5.898993015E-01 6.349648535E-02 -5.019942748E-01
 5.775055289E-01 6.446620822E-02 -5.150790337E-01
 5.647052824E-01 6.539333239E-02 -5.246586601E-01
 5.523964763E-01 6.619754806E-02 -5.338427035E-01
 5.407369435E-01 6.688687205E-02 -5.406625346E-01
 5.293421149E-01 6.748178974E-02 -5.430540610E-01
 5.173421204E-01 6.803632900E-02 -5.464948152E-01
 5.056888461E-01 6.850158051E-02 -5.452018704E-01
 4.936772436E-01 6.891370937E-02 -5.499221755E-01
 4.806110412E-01 6.928770244E-02 -5.528159970E-01
 4.672470093E-01 6.957160681E-02 -5.526259808E-01
 4.537869394E-01 6.976243481E-02 -5.469979813E-01
 4.407764524E-01 6.986888126E-02 -5.469308094E-01
 4.279775470E-01 6.990092993E-02 -5.448314583E-01
 4.153600782E-01 6.985848770E-02 -5.439583219E-01
 4.029640853E-01 6.974344701E-02 -5.414987964E-01
 3.905414790E-01 6.955272704E-02 -5.343335472E-01
 3.784797788E-01 6.930735707E-02 -5.355151650E-01
 3.659771830E-01 6.898182258E-02 -5.305965467E-01
 3.530302793E-01 6.856206432E-02 -5.217241000E-01
 3.402941972E-01 6.808399409E-02 -5.191122120E-01
 3.284017742E-01 6.757890433E-02 -5.178322642E-01
 3.165657818E-01 6.700159609E-02 -5.098895663E-01
 3.036901355E-01 6.630986556E-02 -5.094970449E-01
 2.902323157E-01 6.549911946E-02 -5.016486268E-01
 2.771607339E-01 6.462237984E-02 -4.935336359E-01
 2.651450038E-01 6.374886259E-02 -4.916968256E-01
 2.530129328E-01 6.279139034E-02 -4.839372777E-01
 2.405927926E-01 6.173230708E-02 -4.798002062E-01
 2.283008769E-01 6.060129777E-02 -4.728577551E-01
 2.162600607E-01 5.940570682E-02 -4.642513750E-01
 2.044202834E-01 5.814904906E-02 -4.584742666E-01
 1.923918426E-01 5.678230897E-02 -4.476420206E-01
 1.804493368E-01 5.533619970E-02 -4.409394955E-01
 1.688368693E-01 5.383982323E-02 -4.338791757E-01
 1.571502835E-01 5.222793482E-02 -4.212504216E-01
 1.458346695E-01 5.056914128E-02 -4.134636058E-01
 1.346350759E-01 4.881849512E-02 -4.005938831E-01
 1.231776476E-01 4.691305198E-02 -3.887046365E-01
 1.121882014E-01 4.496395215E-02 -3.748448385E-01
 1.018794701E-01 4.301712103E-02 -3.653844415E-01
 9.139825031E-02 4.089652002E-02 -3.489223375E-01
 8.008952439E-02 3.843303770E-02 -3.246725421E-01
 6.934312358E-02 3.591164947E-02 -3.079239099E-01
 5.950067751E-02 3.339920193E-02 -2.888816274E-01
 7.210648805E-02 -3.362972662E-02 -2.079088098E-01
 8.229232207E-02 -3.570712544E-02 -2.206923543E-01
 9.252430126E-02 -3.763784654E-02 -2.317359353E-01
 1.033604220E-01 -3.953699954E-02 -2.436780238E-01
 1.146597490E-01 -4.138179310E-02 -2.540214181E-01
 1.262307577E-01 -4.314675741E-02 -2.653625050E-01
 1.375713795E-01 -4.476952925E-02 -2.771685346E-01
 1.486503109E-01 -4.625197873E-02 -2.861312179E-01
 1.605020836E-01 -4.773985781E-02 -2.944913487E-01
 1.726230308E-01 -4.917192645E-02 -3.070237780E-01
 1.845385954E-01 -5.048762448E-02 -3.180304569E-01
 1.959428862E-01 -5.166273750E-02 -3.293250170E-01
 2.071643174E-01 -5.274013989E-02 -3.364273063E-01
 2.191089988E-01 -5.380596966E-02 -3.484845375E-01
 2.314993441E-01 -5.482279137E-02 -3.589906812E-01
 2.438370064E-01 -5.574206263E-02 -3.710477236E-01
 2.560611218E-01 -5.655731075E-02 -3.779878272E-01
 2.677964270E-01 -5.726237223E-02 -3.896197979E-01
 2.795808166E-01 -5.787605979E-02 -3.984916262E-01
 2.919090688E-01 -5.841917731E-02 -4.055395630E-01
 3.044061065E-01 -5.886752531E-02 -4.125770593E-01
 3.166649789E-01 -5.921215937E-02 -4.215849035E-01
 3.288269043E-01 -5.944176763E-02 -4.294106892E-01
 3.404467851E-01 -5.955050513E-02 -4.317922078E-01
 3.515462428E-01 -5.955877155E-02 -4.299338437E-01
 3.627419770E-01 -5.947296321E-02 -4.349186359E-01
 3.736322820E-01 -5.928304419E-02 -4.293292934E-01
 3.848209232E-01 -5.899025314E-02 -4.247239460E-01
 3.971311003E-01 -5.854574405E-02 -4.174729794E-01
 4.098166674E-01 -5.796534568E-02 -4.097274877E-01
 4.222256690E-01 -5.725715309E-02 -3.984552330E-01
 4.346432388E-01 -5.641080439E-02 -3.755291059E-01
 4.468718767E-01 -5.547608808E-02 -3.574812559E-01
 4.587821215E-01 -5.445717089E-02 -3.416868073E-01
 4.707782716E-01 -5.332428589E-02 -3.130935403E-01
 4.828113914E-01 -5.211240984E-02 -2.951831177E-01
 4.949641526E-01 -5.078955367E-02 -2.720692555E-01
 5.080600977E-01 -4.926520400E-02 -2.414029703E-01
 5.214393437E-01 -4.762374610E-02 -2.128327895E-01
 5.345714688E-01 -4.595632106E-02 -1.843472239E-01
 5.474529564E-01 -4.426385649E-02 -1.629551377E-01
 5.604630709E-01 -4.249500670E-02 -1.310932133E-01
 5.736435056E-01 -4.067932069E-02 -1.075145996E-01
 5.863295197E-01 -3.889691457E-02 -8.407204199E-02
 5.989776850E-01 -3.710853867E-02 -5.912744044E-02
 6.124899983E-01 -3.518496081E-02 -4.041558189E-02
 6.267589629E-01 -3.314772248E-02 -1.473715526E-02
 6.412499547E-01 -3.107577004E-02 2.704127348E-03
 6.549986899E-01 -2.909099590E-02 2.789575039E-02
 6.681918502E-01 -2.720598876E-02 4.696930243E-02
 6.811263561E-01 -2.536430955E-02 6.286581171E-02
 6.935274005E-01 -2.360734995E-02 8.354125157E-02
 7.069240808E-01 -2.173881326E-02 9.837254916E-02
 7.206357718E-01 -1.983185671E-02 1.177671797E-01
 7.331231236E-01 -1.812674571E-02 1.376913119E-01
 7.458555400E-01 -1.643040171E-02 1.491336588E-01
 7.587833107E-01 -1.473464165E-02 1.673282988E-01
 7.717478275E-01 -1.308237249E-02 1.813912636E-01
 7.845946252E-01 -1.148413820E-02 1.953878652E-01
 7.967708707E-01 -9.981087875E-03 2.117384616E-01
 8.085629344E-01 -8.586199023E-03 2.338524654E-01
 8.198752403E-01 -7.317244075E-03 2.405092305E-01
 8.321597576E-01 -6.012715166E-03 2.567078402E-01
 8.447673321E-01 -4.733382492E-03 2.666506474E-01
 8.569372892E-01 -3.566087340E-03 2.874200368E-01
 8.687779009E-01 -2.538698609E-03 2.978190681E-01
 8.801175356E-01 -1.648026810E-03 3.093983765E-01
 8.925229609E-01 -8.141237195E-04 3.180415820E-01
 9.043275416E-01 -1.329208899E-04 3.258345466E-01
 9.146875441E-01 3.638681665E-04 3.318609804E-01
 9.249976277E-01 7.512982411E-04 3.371667639E-01
 9.450929463E-01 1.199094986E-03 3.397691002E-01
 9.573702514E-01 1.284451107E-03 3.409988692E-01
 9.705556333E-01 1.223533705E-03 3.446922832E-01
 9.833644331E-01 1.017572358E-03 3.539367091E-01
 9.946689010E-01 6.957340811E-04 4.228778523E-01
 -5.000000000E-01 9.500000000E-01 -1.611929261E-03
 -5.000000000E-01 9.000000000E-01 -1.578319287E-03
 -5.000000000E-01 8.500000000E-01 -7.623771518E-04
 -5.000000000E-01 8.000000000E-01 7.858590675E-04
 -5.000000000E-01 7.500000000E-01 3.153003711E-03
 -5.000000000E-01 7.000000000E-01 6.288660756E-03
 -5.000000000E-01 6.500000000E-01 1.038625935E-02
 -5.000000000E-01 6.000000000E-01 1.529043567E-02
 -5.000000000E-01 5.500000000E-01 2.123266356E-02
 -5.000000000E-01 5.000000000E-01 2.788788502E-02
 -5.000000000E-01 4.500000000E-01 3.556723664E-02
 -5.000000000E-01 4.000000000E-01 4.380502878E-02
 -5.000000000E-01 3.500000000E-01 5.272877350E-02
 -5.000000000E-01 3.000000000E-01 6.185933467E-02
 -5.000000000E-01 2.500000000E-01 7.133557323E-02
 -5.000000000E-01 2.000000000E-01 8.002155482E-02
 -5.000000000E-01 1.500000000E-01 8.832971297E-02
 -5.000000000E-01 1.000000000E-01 9.510407761E-02
 -5.000000000E-01 5.000000000E-02 1.005040036E-01
 -5.000000000E-01 2.752242878E-12 1.038956306E-01
 -5.000000000E-01 -5.000000000E-02 1.053516343E-01
 -5.000000000E-01 -1.000000000E-01 1.048660918E-01
 -5.000000000E-01 -1.500000000E-01 1.025940037E-01
 -5.000000000E-01 -2.000000000E-01 9.877115147E-02
 -5.000000000E-01 -2.500000000E-01 9.392110670E-02
 -5.000000000E-01 -3.000000000E-01 8.821878339E-02
 -5.000000000E-01 -3.500000000E-01 8.215197766E-02
 -5.000000000E-01 -4.000000000E-01 7.588453434E-02
 -5.000000000E-01 -4.500000000E-01 6.974257199E-02
 -5.000000000E-01 -5.000000000E-01 6.373450469E-02
 -5.000000000E-01 -5.500000000E-01 5.814910189E-02
 -5.000000000E-01 -6.000000000E-01 5.292232599E-02
 -5.000000000E-01 -6.500000000E-01 4.800158826E-02
 -5.000000000E-01 -7.000000000E-01 4.344414441E-02
 -5.000000000E-01 -7.500000000E-01 3.922085681E-02
 -5.000000000E-01 -8.000000000E-01 3.509361337E-02
 -5.000000000E-01 -8.500000000E-01 3.106825731E-02
 -5.000000000E-01 -9.000000000E-01 2.633890192E-02
 -5.000000000E-01 -9.500000000E-01 1.968005618E-02
 -4.500000000E-01 -1.000000000E+00 1.800715330E-02
 -4.000000000E-01 -1.000000000E+00 2.325834500E-02
 -3.500000000E-01 -1.000000000E+00 2.580182671E-02
 -3.000000000E-01 -1.000000000E+00 2.709932196E-02
 -2.500000000E-01 -1.000000000E+00 2.751668379E-02
 -2.000000000E-01 -1.000000000E+00 2.726636707E-02
 -1.500000000E-01 -1.000000000E+00 2.613484035E-02
 -1.000000000E-01 -1.000000000E+00 2.443892698E-02
 -5.000000000E-02 -1.000000000E+00 2.210574699E-02
 -9.424683256E-13 -1.000000000E+00 1.942679998E-02
 5.000000000E-02 -1.000000000E+00 1.638205256E-02
 1.000000000E-01 -1.000000000E+00 1.311473383E-02
 1.500000000E-01 -1.000000000E+00 9.775096652E-03
 2.000000000E-01 -1.000000000E+00 6.620955109E-03
 2.500000000E-01 -1.000000000E+00 3.670289582E-03
 3.000000000E-01 -1.000000000E+00 1.162856741E-03
 3.500000000E-01 -1.000000000E+00 -7.982185481E-04
 4.000000000E-01 -1.000000000E+00 -2.156839092E-03
 4.500000000E-01 -1.000000000E+00 -2.768128200E-03
 5.000000000E-01 -1.000000000E+00 -2.657597251E-03
 5.500000000E-01 -1.000000000E+00 -1.860359523E-03
 6.000000000E-01 -1.000000000E+00 -2.491295686E-04
 6.500000000E-01 -1.000000000E+00 1.864936083E-03
 7.000000000E-01 -1.000000000E+00 4.575029513E-03
 7.500000000E-01 -1.000000000E+00 7.523504744E-03
 8.000000000E-01 -1.000000000E+00 1.087616782E-02
 8.500000000E-01 -1.000000000E+00 1.421862317E-02
 9.000000000E-01 -1.000000000E+00 1.769168002E-02
 9.500000000E-01 -1.000000000E+00 2.095750224E-02
 1.000000000E+00 -1.000000000E+00 2.402866288E-02
 1.050000000E+00 -1.000000000E+00 2.685747928E-02
 1.100000000E+00 -1.000000000E+00 2.933736295E-02
 1.150000000E+00 -1.000000000E+00 3.145711054E-02
 1.200000000E+00 -1.000000000E+00 3.318767862E-02
 1.250000000E+00 -1.000000000E+00 3.463955225E-02
 1.300000000E+00 -1.000000000E+00 3.573690254E-02
 1.350000000E+00 -1.000000000E+00 3.646388353E-02
 1.400000000E+00 -1.000000000E+00 3.689060466E-02
 1.450000000E+00 -1.000000000E+00 3.703832054E-02
 1.500000000E+00 -1.000000000E+00 3.703182739E-02
 1.550000000E+00 -1.000000000E+00 3.672435681E-02
 1.600000000E+00 -1.000000000E+00 3.637878961E-02
 1.650000000E+00 -1.000000000E+00 3.580676651E-02
 1.700000000E+00 -1.000000000E+00 3.515203333E-02
 1.750000000E+00 -1.000000000E+00 3.444441856E-02
 1.800000000E+00 -1.000000000E+00 3.366891631E-02
 1.850000000E+00 -1.000000000E+00 3.284411657E-02
 1.900000000E+00 -1.000000000E+00 3.200152932E-02
 1.950000000E+00 -1.000000000E+00 3.114858428E-02
 2.000000000E+00 -1.000000000E+00 3.031955558E-02
 2.050000000E+00 -1.000000000E+00 2.946385555E-02
 2.100000000E+00 -1.000000000E+00 2.866813998E-02
 2.150000000E+00 -1.000000000E+00 2.784998346E-02
 2.200000000E+00 -1.000000000E+00 2.711871530E-02
 2.250000000E+00 -1.000000000E+00 2.638669566E-02
 2.300000000E+00 -1.000000000E+00 2.571232499E-02
 2.350000000E+00 -1.000000000E+00 2.500087780E-02
 2.400000000E+00 -1.000000000E+00 2.444952670E-02
 2.450000000E+00 -1.000000000E+00 2.382530727E-02
 2.500000000E+00 -1.000000000E+00 2.334308880E-02
 2.550000000E+00 -1.000000000E+00 2.284977858E-02
 2.600000000E+00 -1.000000000E+00 2.240376235E-02
 2.650000000E+00 -1.000000000E+00 2.198745314E-02
 2.700000000E+00 -1.000000000E+00 2.161639964E-02
 2.750000000E+00 -1.000000000E+00 2.126669152E-02
 2.800000000E+00 -1.000000000E+00 2.096362514E-02
 2.850000000E+00 -1.000000000E+00 2.065461628E-02
 2.900000000E+00 -1.000000000E+00 2.039903193E-02
 2.950000000E+00 -1.000000000E+00 2.011906169E-02
 3.000000000E+00 -1.000000000E+00 1.985547522E-02
 3.050000000E+00 -1.000000000E+00 1.959348039E-02
 3.100000000E+00 -1.000000000E+00 1.923283159E-02
 3.150000000E+00 -1.000000000E+00 1.891547560E-02
 3.200000000E+00 -1.000000000E+00 1.839714021E-02
 3.250000000E+00 -1.000000000E+00 1.787170028E-02
 3.300000000E+00 -1.000000000E+00 1.707040381E-02
 3.350000000E+00 -1.000000000E+00 1.600060266E-02
 3.400000000E+00 -1.000000000E+00 1.433044898E-02
 3.450000000E+00 -1.000000000E+00 1.164197945E-02
 3.500000000E+00 -9.500000000E-01 7.854319079E-03
 3.500000000E+00 -9.000000000E-01 9.417088563E-03
 3.500000000E+00 -8.500000000E-01 1.076764585E-02
 3.500000000E+00 -8.000000000E-01 1.229043311E-02
 3.500000000E+00 -7.500000000E-01 1.383166867E-02
 3.500000000E+00 -7.000000000E-01 1.536949800E-02
 3.500000000E+00 -6.500000000E-01 1.693440358E-02
 3.500000000E+00 -6.000000000E-01 1.862219213E-02
 3.500000000E+00 -5.500000000E-01 2.041173615E-02
 3.500000000E+00 -5.000000000E-01 2.237687295E-02
 3.500000000E+00 -4.500000000E-01 2.446787656E-02
 3.500000000E+00 -4.000000000E-01 2.662571705E-02
 3.500000000E+00 -3.500000000E-01 2.884143187E-02
 3.500000000E+00 -3.000000000E-01 3.091619722E-02
 3.500000000E+00 -2.500000000E-01 3.262778622E-02
 3.500000000E+00 -2.000000000E-01 3.329409383E-02
 3.500000000E+00 -1.500000000E-01 3.328228580E-02
 3.500000000E+00 -1.000000000E-01 3.276650318E-02
 3.500000000E+00 -5.000000000E-02 3.198759417E-02
 3.500000000E+00 -2.752242878E-12 3.107404636E-02
 3.500000000E+00 5.000000000E-02 3.036396798E-02
 3.500000000E+00 1.000000000E-01 2.910867395E-02
 3.500000000E+00 1.500000000E-01 2.709264206E-02
 3.500000000E+00 2.000000000E-01 2.445834633E-02
 3.500000000E+00 2.500000000E-01 2.132950288E-02
 3.500000000E+00 3.000000000E-01 1.812446793E-02
 3.500000000E+00 3.500000000E-01 1.504684966E-02
 3.500000000E+00 4.000000000E-01 1.221626591E-02
 3.500000000E+00 4.500000000E-01 9.514331815E-03
 3.500000000E+00 5.000000000E-01 7.195340974E-03
 3.500000000E+00 5.500000000E-01 5.226008311E-03
 3.500000000E+00 6.000000000E-01 3.952027512E-03
 3.500000000E+00 6.500000000E-01 3.485387511E-03
 3.500000000E+00 7.000000000E-01 3.388283160E-03
 3.500000000E+00 7.500000000E-01 2.538517805E-03
 3.500000000E+00 8.000000000E-01 -5.744378087E-04
 3.500000000E+00 8.500000000E-01 -6.283729060E-03
 3.500000000E+00 9.000000000E-01 -1.410181108E-02
 3.500000000E+00 9.500000000E-01 -2.471858177E-02
 3.450000000E+00 1.000000000E+00 -1.530258577E-02
 3.400000000E+00 1.000000000E+00 -7.113820236E-03
 3.350000000E+00 1.000000000E+00 -3.142690112E-03
 3.300000000E+00 1.000000000E+00 -1.376167886E-03
 3.250000000E+00 1.000000000E+00 -6.355852980E-05
 3.200000000E+00 1.000000000E+00 3.695741131E-04
 3.150000000E+00 1.000000000E+00 6.903145430E-04
 3.100000000E+00 1.000000000E+00 5.182958146E-04
 3.050000000E+00 1.000000000E+00 4.663530911E-04
 3.000000000E+00 1.000000000E+00 -3.595037221E-05
 2.950000000E+00 1.000000000E+00 -2.787171184E-04
 2.900000000E+00 1.000000000E+00 -9.273294579E-04
 2.850000000E+00 1.000000000E+00 -1.546723054E-03
 2.800000000E+00 1.000000000E+00 -2.322276572E-03
 2.750000000E+00 1.000000000E+00 -3.071531127E-03
 2.700000000E+00 1.000000000E+00 -3.910925016E-03
 2.650000000E+00 1.000000000E+00 -4.983178435E-03
 2.600000000E+00 1.000000000E+00 -5.851850328E-03
 2.550000000E+00 1.000000000E+00 -7.071745312E-03
 2.500000000E+00 1.000000000E+00 -8.241225126E-03
 2.450000000E+00 1.000000000E+00 -9.364146196E-03
 2.400000000E+00 1.000000000E+00 -1.081782029E-02
 2.350000000E+00 1.000000000E+00 -1.210154877E-02
 2.300000000E+00 1.000000000E+00 -1.368986080E-02
 2.250000000E+00 1.000000000E+00 -1.527608798E-02
 2.200000000E+00 1.000000000E+00 -1.700101534E-02
 2.150000000E+00 1.000000000E+00 -1.890803570E-02
 2.100000000E+00 1.000000000E+00 -2.095263283E-02
 2.050000000E+00 1.000000000E+00 -2.309813184E-02
 2.000000000E+00 1.000000000E+00 -2.545349362E-02
 1.950000000E+00 1.000000000E+00 -2.784876552E-02
 1.900000000E+00 1.000000000E+00 -3.022797644E-02
 1.850000000E+00 1.000000000E+00 -3.332391183E-02
 1.800000000E+00 1.000000000E+00 -3.580032539E-02
 1.750000000E+00 1.000000000E+00 -3.936120924E-02
 1.700000000E+00 1.000000000E+00 -4.262939212E-02
 1.650000000E+00 1.000000000E+00 -4.646727811E-02
 1.600000000E+00 1.000000000E+00 -5.066198668E-02
 1.550000000E+00 1.000000000E+00 -5.477881924E-02
 1.500000000E+00 1.000000000E+00 -5.931405576E-02
 1.450000000E+00 1.000000000E+00 -6.409831075E-02
 1.400000000E+00 1.000000000E+00 -6.912437842E-02
 1.350000000E+00 1.000000000E+00 -7.451118543E-02
 1.300000000E+00 1.000000000E+00 -8.002211112E-02
 1.250000000E+00 1.000000000E+00 -8.592473510E-02
 1.200000000E+00 1.000000000E+00 -9.182745510E-02
 1.150000000E+00 1.000000000E+00 -9.728249783E-02
 1.100000000E+00 1.000000000E+00 -1.029602696E-01
 1.050000000E+00 1.000000000E+00 -1.092327669E-01
 1.000000000E+00 1.000000000E+00 -1.127989372E-01
 9.500000000E-01 1.000000000E+00 -1.186248269E-01
 9.000000000E-01 1.000000000E+00 -1.223646352E-01
 8.500000000E-01 1.000000000E+00 -1.258183752E-01
 8.000000000E-01 1.000000000E+00 -1.281885661E-01
 7.500000000E-01 1.000000000E+00 -1.290666702E-01
 7.000000000E-01 1.000000000E+00 -1.293427421E-01
 6.500000000E-01 1.000000000E+00 -1.283100734E-01
 6.000000000E-01 1.000000000E+00 -1.260192319E-01
 5.500000000E-01 1.000000000E+00 -1.233821778E-01
 5.000000000E-01 1.000000000E+00 -1.180346562E-01
 4.500000000E-01 1.000000000E+00 -1.119309276E-01
 4.000000000E-01 1.000000000E+00 -1.055346867E-01
 3.500000000E-01 1.000000000E+00 -9.812920328E-02
 3.000000000E-01 1.000000000E+00 -8.991426573E-02
 2.500000000E-01 1.000000000E+00 -8.146066452E-02
 2.000000000E-01 1.000000000E+00 -7.263168964E-02
 1.500000000E-01 1.000000000E+00 -6.332532464E-02
 1.000000000E-01 1.000000000E+00 -5.492968449E-02
 5.000000000E-02 1.000000000E+00 -4.670283625E-02
 1.733724275E-12 1.000000000E+00 -3.866521290E-02
 -5.000000000E-02 1.000000000E+00 -3.148253195E-02
 -1.000000000E-01 1.000000000E+00 -2.501502714E-02
 -1.500000000E-01 1.000000000E+00 -1.921750157E-02
 -2.000000000E-01 1.000000000E+00 -1.422533057E-02
 -2.500000000E-01 1.000000000E+00 -1.022728862E-02
 -3.000000000E-01 1.000000000E+00 -7.035394917E-03
 -3.500000000E-01 1.000000000E+00 -4.667334128E-03
 -4.000000000E-01 1.000000000E+00 -2.993205612E-03
 -4.500000000E-01 1.000000000E+00 -1.780161602E-03
 9.175905354E-01 -3.864439270E-03 3.270933134E-01
 8.427172987E-01 -1.008984119E-02 2.606072406E-01
 7.692702216E-01 -1.852091395E-02 1.758283149E-01
 6.968126242E-01 -2.804424972E-02 8.433167433E-02
 9.863106219E-01 -3.946129562E-03 3.623709493E-01
 6.312400578E-01 -3.915059963E-02 -1.158237187E-02
 5.580273826E-01 -4.850641859E-02 -1.347458862E-01
 4.918733300E-01 -5.720026845E-02 -2.702708459E-01