TITLE     = "Visualization of the solution"
VARIABLES = "x"
"y"
"Pressure_Coefficient"
ZONE T="Zone"
 STRANDID=0, SOLUTIONTIME=0
 Nodes=12022, Elements=23463, ZONETYPE=FEQuadrilateral
 DATAPACKING=POINT
 DT=(DOUBLE DOUBLE DOUBLE )
 9.996384978E-01 5.214819685E-04 2.443943246E-01
 9.874422550E-01 2.950044814E-03 1.920967275E-01
 9.750019312E-01 5.497070029E-03 1.223331287E-01
 9.597243667E-01 8.640717715E-03 5.842986720E-02
 9.458743930E-01 1.145853195E-02 1.140137187E-02
 9.316556454E-01 1.429965906E-02 -2.823796861E-02
 9.205611348E-01 1.647359692E-02 -5.826409255E-02
 9.085734487E-01 1.876183599E-02 -7.412596845E-02
 8.975446224E-01 2.091444470E-02 -1.201083102E-01
 8.856784105E-01 2.308389358E-02 -1.311075956E-01
 8.736898899E-01 2.528693341E-02 -1.677214002E-01
 8.614717126E-01 2.739897929E-02 -1.751002668E-01
 8.496368527E-01 2.944628336E-02 -2.060851684E-01
 8.385812044E-01 3.124587797E-02 -2.050834914E-01
 8.272241950E-01 3.312172368E-02 -2.333157376E-01
 8.144334555E-01 3.512994200E-02 -2.480724601E-01
 8.015125394E-01 3.707493469E-02 -2.517621674E-01
 7.892721295E-01 3.891187906E-02 -2.673949612E-01
 7.772361040E-01 4.068572447E-02 -2.832660272E-01
 7.653011084E-01 4.241199419E-02 -3.020874581E-01
 7.521969676E-01 4.424114525E-02 -3.147816648E-01
 7.384409904E-01 4.611781612E-02 -3.357340788E-01
 7.275300026E-01 4.754283652E-02 -3.418792390E-01
 7.160871625E-01 4.902424663E-02 -3.584878301E-01
 7.041256428E-01 5.052740127E-02 -3.783926893E-01
 6.898542643E-01 5.220675096E-02 -3.808023785E-01
 6.764574647E-01 5.377656221E-02 -4.067589542E-01
 6.662830710E-01 5.490263179E-02 -4.134122752E-01
 6.542814374E-01 5.620256439E-02 -4.325186221E-01
 6.423562169E-01 5.741875991E-02 -4.441505031E-01
 6.304668188E-01 5.857090279E-02 -4.568427371E-01
 6.187461019E-01 5.963582918E-02 -4.625712527E-01
 6.076497436E-01 6.061269343E-02 -4.793019299E-01
 5.948743224E-01 6.164214760E-02 -4.871405887E-01
 5.830344558E-01 6.253242493E-02 -4.954563158E-01
 5.695262551E-01 6.346650422E-02 -5.039126415E-01
 5.570831299E-01 6.425727159E-02 -5.153554549E-01
 5.448722243E-01 6.494347751E-02 -5.195579216E-01
 5.339139104E-01 6.550075859E-02 -5.245571613E-01
 5.222997665E-01 6.602269411E-02 -5.279518335E-01
 5.097175837E-01 6.650762260E-02 -5.313494732E-01
 4.983970225E-01 6.687115133E-02 -5.274700664E-01
 4.852085710E-01 6.724318117E-02 -5.369714498E-01
 4.715844989E-01 6.750641763E-02 -5.335496399E-01
 4.571299255E-01 6.768299639E-02 -5.273424510E-01
 4.436058700E-01 6.777799129E-02 -5.286754696E-01
 4.304659069E-01 6.778001040E-02 -5.217735710E-01
 4.176768661E-01 6.773120910E-02 -5.264741483E-01
 4.051157534E-01 6.758758426E-02 -5.195800559E-01
 3.925341070E-01 6.737954170E-02 -5.151228704E-01
 3.799127936E-01 6.710435450E-02 -5.125713311E-01
 3.683883250E-01 6.679110229E-02 -5.080887926E-01
 3.551690280E-01 6.635753810E-02 -5.020461711E-01
 3.425273299E-01 6.587773561E-02 -4.971139264E-01
 3.293955028E-01 6.531170756E-02 -4.960515679E-01
 3.182596564E-01 6.476239860E-02 -4.884178419E-01
 3.056930900E-01 6.408095360E-02 -4.817405945E-01
 2.922182381E-01 6.328281760E-02 -4.784927841E-01
 2.780952156E-01 6.235090271E-02 -4.747502082E-01
 2.656002939E-01 6.143574044E-02 -4.653851021E-01
 2.535416484E-01 6.048686802E-02 -4.578977413E-01
 2.410168201E-01 5.943141878E-02 -4.520719317E-01
 2.284255326E-01 5.828943476E-02 -4.456046398E-01
 2.161780447E-01 5.709769577E-02 -4.392742806E-01
 2.045296580E-01 5.588286743E-02 -4.292129224E-01
 1.930474788E-01 5.462145433E-02 -4.240697286E-01
 1.806145757E-01 5.315544084E-02 -4.143150710E-01
 1.689201742E-01 5.169700459E-02 -4.073895320E-01
 1.574905068E-01 5.017468333E-02 -3.964167839E-01
 1.457258165E-01 4.851602018E-02 -3.885470109E-01
 1.351352334E-01 4.692951962E-02 -3.789868997E-01
 1.235055774E-01 4.507064447E-02 -3.643286917E-01
 1.124351844E-01 4.319964722E-02 -3.565471760E-01
 1.019973680E-01 4.130562767E-02 -3.394281118E-01
 9.241126478E-02 3.947333619E-02 -3.295378462E-01
 8.169651031E-02 3.727801144E-02 -3.131268589E-01
 7.032905519E-02 3.475970030E-02 -2.966656222E-01
 6.107277423E-02 3.254707903E-02 -2.730398974E-01
 5.163002387E-02 3.008807264E-02 -2.495374200E-01
 4.337366298E-02 2.775658295E-02 -2.273800031E-01
 3.623320907E-02 2.555992827E-02 -1.995552411E-01
 2.988806739E-02 2.342362329E-02 -1.675893565E-01
 2.440086007E-02 2.140279301E-02 -1.437432401E-01
 2.039547823E-02 1.979209483E-02 -1.049669688E-01
 1.659250259E-02 1.812832803E-02 -7.202071717E-02
 1.367801521E-02 1.673960872E-02 -3.064877510E-02
 1.100518741E-02 1.534529962E-02 6.691169687E-03
 9.074716829E-03 1.425089594E-02 5.190071547E-02
 7.356599905E-03 1.319354586E-02 8.497828392E-02
 5.755419377E-03 1.212427579E-02 1.500858366E-01
 3.689265111E-03 1.056640875E-02 2.501092924E-01
 1.879291725E-03 8.938282728E-03 3.426030896E-01
 3.660105285E-04 7.249233779E-03 5.790335124E-01
 -1.115517691E-03 4.903273191E-03 8.205428670E-01
 -1.747900737E-03 3.134783357E-03 9.907222010E-01
 -1.965790987E-03 1.698769745E-03 1.083463974E+00
 -1.899836119E-03 1.392576378E-04 1.100577397E+00
 -1.526043052E-03 -1.437427942E-03 1.027870360E+00
 -6.991754635E-04 -3.278147895E-03 9.047578225E-01
 6.244383403E-04 -5.215871613E-03 7.016339832E-01
 2.474754583E-03 -7.224065717E-03 5.329962365E-01
 4.175996408E-03 -8.717966266E-03 3.846382611E-01
 6.086449604E-03 -1.015911996E-02 3.028618277E-01
 7.657918613E-03 -1.121647563E-02 2.189030457E-01
 9.647533298E-03 -1.242788136E-02 1.725395271E-01
 1.193863247E-02 -1.369381137E-02 1.080934587E-01
 1.507795230E-02 -1.525477320E-02 5.777193807E-02
 1.796650514E-02 -1.655447111E-02 3.418472775E-03
 2.164916880E-02 -1.806737110E-02 -3.118307378E-02
 2.691385895E-02 -2.000319771E-02 -6.500444562E-02
 3.258523345E-02 -2.186966315E-02 -1.025266840E-01
 3.969311342E-02 -2.396594360E-02 -1.247257678E-01
 4.722798616E-02 -2.596173063E-02 -1.504672087E-01
 5.601993948E-02 -2.807011083E-02 -1.643110220E-01
 6.469188631E-02 -2.997035533E-02 -1.817651959E-01
 7.462207973E-02 -3.196885809E-02 -1.921904874E-01
 8.457497507E-02 -3.381607309E-02 -2.033033194E-01
 9.490767121E-02 -3.559799492E-02 -2.125757676E-01
 1.057970747E-01 -3.734606877E-02 -2.211558450E-01
 1.172778606E-01 -3.907326981E-02 -2.315814050E-01
 1.287998408E-01 -4.069072753E-02 -2.391310345E-01
 1.396062374E-01 -4.212564602E-02 -2.499209000E-01
 1.506145746E-01 -4.350053146E-02 -2.575879517E-01
 1.625628173E-01 -4.491288215E-02 -2.686276729E-01
 1.743574589E-01 -4.621295631E-02 -2.752439152E-01
 1.864190847E-01 -4.747081921E-02 -2.859237989E-01
 1.973100007E-01 -4.853942990E-02 -2.959008052E-01
 2.086571306E-01 -4.958715290E-02 -3.067993860E-01
 2.211520076E-01 -5.065561086E-02 -3.155902081E-01
 2.340734005E-01 -5.167730898E-02 -3.267115207E-01
 2.465041578E-01 -5.257670581E-02 -3.385923225E-01
 2.589879632E-01 -5.339044705E-02 -3.485431807E-01
 2.704420984E-01 -5.405354500E-02 -3.556362800E-01
 2.834522128E-01 -5.473124981E-02 -3.681139512E-01
 2.963418961E-01 -5.529667810E-02 -3.774181032E-01
 3.092982769E-01 -5.575425550E-02 -3.840782448E-01
 3.213277757E-01 -5.609081686E-02 -3.936266270E-01
 3.338814378E-01 -5.633398890E-02 -3.993391698E-01
 3.451252878E-01 -5.646348372E-02 -4.084572629E-01
 3.565781415E-01 -5.647600815E-02 -4.038353380E-01
 3.676017821E-01 -5.642237142E-02 -4.139761813E-01
 3.784758151E-01 -5.625008792E-02 -4.077853985E-01
 3.902916312E-01 -5.596573278E-02 -4.053579442E-01
 4.032795727E-01 -5.553273857E-02 -4.039112139E-01
 4.159585834E-01 -5.494837090E-02 -3.901468977E-01
 4.287632108E-01 -5.422777310E-02 -3.769764217E-01
 4.414145052E-01 -5.339419097E-02 -3.642669452E-01
 4.537124336E-01 -5.245446786E-02 -3.477601457E-01
 4.656920433E-01 -5.139956623E-02 -3.187317080E-01
 4.780436456E-01 -5.023345724E-02 -2.987356843E-01
 4.897807539E-01 -4.903816804E-02 -2.778148120E-01
 5.021475554E-01 -4.768589512E-02 -2.532280629E-01
 5.159921646E-01 -4.605867341E-02 -2.197090564E-01
 5.293900967E-01 -4.442234337E-02 -1.957130563E-01
 5.428379178E-01 -4.269280657E-02 -1.650885113E-01
 5.555673838E-01 -4.100853205E-02 -1.395992381E-01
 5.685740709E-01 -3.924215585E-02 -1.128492432E-01
 5.813375115E-01 -3.747520968E-02 -8.747861092E-02
 5.933471918E-01 -3.580152616E-02 -6.724057074E-02
 6.056774259E-01 -3.405230120E-02 -4.193008522E-02
 6.196926832E-01 -3.207052127E-02 -1.976548959E-02
 6.340366006E-01 -3.004242480E-02 2.284121758E-03
 6.483126283E-01 -2.802838944E-02 2.127181485E-02
 6.615310311E-01 -2.614974976E-02 4.303739602E-02
 6.746298671E-01 -2.428279445E-02 6.735778356E-02
 6.870874166E-01 -2.256828174E-02 7.677398046E-02
 6.993718147E-01 -2.084938064E-02 1.011171210E-01
 7.136153579E-01 -1.892532036E-02 1.142297078E-01
 7.265012860E-01 -1.719596051E-02 1.317041720E-01
 7.385146022E-01 -1.562416181E-02 1.425563347E-01
 7.508332729E-01 -1.397431828E-02 1.714322242E-01
 7.631762624E-01 -1.243833173E-02 1.777005714E-01
 7.762063146E-01 -1.083681546E-02 1.950501471E-01
 7.878425121E-01 -9.460849687E-03 2.060120724E-01
 8.003004193E-01 -7.997674868E-03 2.276191383E-01
 8.114064932E-01 -6.787712686E-03 2.343255842E-01
 8.226783276E-01 -5.567034706E-03 2.548950424E-01
 8.356751204E-01 -4.286831710E-03 2.638430561E-01
 8.479151130E-01 -3.141449997E-03 2.806191545E-01
 8.599711657E-01 -2.118909033E-03 2.918079049E-01
 8.719176650E-01 -1.213189098E-03 3.018964768E-01
 8.836336136E-01 -4.235072702E-04 3.133496526E-01
 8.968872428E-01 3.091175167E-04 3.196352451E-01
 9.074504375E-01 7.641367847E-04 3.223439152E-01
 9.176324010E-01 1.123441965E-03 3.272952278E-01
 9.271069765E-01 1.362201059E-03 3.281195194E-01
 9.359875321E-01 1.510292757E-03 3.305544253E-01
 9.477759004E-01 1.595151494E-03 3.294701740E-01
 9.604823589E-01 1.548580825E-03 3.295121852E-01
 9.757320881E-01 1.317097107E-03 3.342455996E-01
 9.884326458E-01 9.619530756E-04 3.506355220E-01
 -5.000000000E-01 -1.000000000E+00 1.412250721E-02
 3.500000000E+00 -1.000000000E+00 8.501889292E-03
 3.500000000E+00 1.000000000E+00 -2.432664312E-02
 -5.000000000E-01 1.000000000E+00 -1.527171769E-03
 9.935403764E-01 1.735763391E-03 2.891524919E-01
 9.812220931E-01 4.223557422E-03 1.517274916E-01
 9.673631489E-01 7.068893872E-03 8.669166869E-02
 9.527993798E-01 1.004962483E-02 3.379670929E-02
 9.387650192E-01 1.287909551E-02 -9.438712518E-03
 9.261083901E-01 1.538662799E-02 -4.453969646E-02
 9.145672917E-01 1.761771645E-02 -6.245300722E-02
 9.030590355E-01 1.983814035E-02 -1.033033551E-01
 8.916115165E-01 2.199916914E-02 -1.221582020E-01
 8.796841502E-01 2.418541349E-02 -1.531950897E-01
 8.675808012E-01 2.634295635E-02 -1.678530725E-01
 8.555542827E-01 2.842263132E-02 -1.936380124E-01
 8.441090286E-01 3.034608066E-02 -2.014340038E-01
 8.329026997E-01 3.218380082E-02 -2.230596858E-01
 8.208288252E-01 3.412583284E-02 -2.417635885E-01
 8.079729974E-01 3.610243835E-02 -2.472439147E-01
 7.953923345E-01 3.799340688E-02 -2.594235021E-01
 7.832541168E-01 3.979880176E-02 -2.753514523E-01
 7.712686062E-01 4.154885933E-02 -2.939956019E-01
 7.587490380E-01 4.332656972E-02 -3.079355078E-01
 7.453189790E-01 4.517948069E-02 -3.257345820E-01
 7.329854965E-01 4.683032632E-02 -3.367825667E-01
 7.218085825E-01 4.828354158E-02 -3.505372823E-01
 7.101064026E-01 4.977582395E-02 -3.720501413E-01
 6.969899535E-01 5.136707611E-02 -3.763906298E-01
 6.831558645E-01 5.299165659E-02 -3.944945263E-01
 6.713702679E-01 5.433959700E-02 -4.091416027E-01
 6.602822542E-01 5.555259809E-02 -4.242791384E-01
 6.483188272E-01 5.681066215E-02 -4.383165810E-01
 6.364115179E-01 5.799483135E-02 -4.511688460E-01
 6.246064603E-01 5.910336599E-02 -4.577935132E-01
 6.131979227E-01 6.012426130E-02 -4.737242820E-01
 6.012620330E-01 6.112742051E-02 -4.823582803E-01
 5.889543891E-01 6.208728626E-02 -4.923509018E-01
 5.762803555E-01 6.299946457E-02 -4.987483247E-01
 5.633046925E-01 6.386188790E-02 -5.108559616E-01
 5.509776771E-01 6.460037455E-02 -5.161520252E-01
 5.393930674E-01 6.522211805E-02 -5.225097636E-01
 5.281068385E-01 6.576172635E-02 -5.270150313E-01
 5.160086751E-01 6.626515836E-02 -5.293294810E-01
 5.040573031E-01 6.668938696E-02 -5.285058900E-01
 4.918027967E-01 6.705716625E-02 -5.348107715E-01
 4.783965349E-01 6.737479940E-02 -5.360355849E-01
 4.643572122E-01 6.759470701E-02 -5.288221998E-01
 4.503678977E-01 6.773049384E-02 -5.284252644E-01
 4.370358884E-01 6.777900085E-02 -5.238260364E-01
 4.240713865E-01 6.775560975E-02 -5.259489805E-01
 4.113963097E-01 6.765939668E-02 -5.225086806E-01
 3.988249302E-01 6.748356298E-02 -5.171741136E-01
 3.862234503E-01 6.724194810E-02 -5.133345282E-01
 3.741505593E-01 6.694772840E-02 -5.115426811E-01
 3.617786765E-01 6.657432020E-02 -5.044176542E-01
 3.488481790E-01 6.611763686E-02 -4.997419750E-01
 3.359614164E-01 6.559472159E-02 -4.959681435E-01
 3.238275796E-01 6.503705308E-02 -4.928235128E-01
 3.119763732E-01 6.442167610E-02 -4.851106841E-01
 2.989556640E-01 6.368188560E-02 -4.811378437E-01
 2.851567268E-01 6.281686015E-02 -4.763826951E-01
 2.718477547E-01 6.189332157E-02 -4.692892270E-01
 2.595709711E-01 6.096130423E-02 -4.616501438E-01
 2.472792342E-01 5.995914340E-02 -4.553248469E-01
 2.347211763E-01 5.886042677E-02 -4.489380198E-01
 2.223017886E-01 5.769356526E-02 -4.424611359E-01
 2.103538513E-01 5.649028160E-02 -4.333365549E-01
 1.987885684E-01 5.525216088E-02 -4.285442669E-01
 1.868310273E-01 5.388844758E-02 -4.179890518E-01
 1.747673750E-01 5.242622271E-02 -4.113059306E-01
 1.632053405E-01 5.093584396E-02 -4.023710136E-01
 1.516081616E-01 4.934535176E-02 -3.917786830E-01
 1.404305249E-01 4.772276990E-02 -3.855264586E-01
 1.293204054E-01 4.600008205E-02 -3.706020413E-01
 1.179703809E-01 4.413514584E-02 -3.614346647E-01
 1.072162762E-01 4.225263745E-02 -3.492312532E-01
 8.705388755E-02 3.837567382E-02 -3.249312402E-01
 7.601278275E-02 3.601885587E-02 -3.041758663E-01
 6.965698302E-02 -3.096960671E-02 -1.886318135E-01
 7.959852740E-02 -3.289246559E-02 -1.990651882E-01
 8.974132314E-02 -3.470703401E-02 -2.081618755E-01
 1.003523730E-01 -3.647203185E-02 -2.171998613E-01
 1.115374677E-01 -3.820966929E-02 -2.260816200E-01
 1.230388507E-01 -3.988199867E-02 -2.363692243E-01
 1.342030391E-01 -4.140818678E-02 -2.449805913E-01
 1.451104060E-01 -4.281308874E-02 -2.541973308E-01
 1.565886959E-01 -4.420670681E-02 -2.621267085E-01
 1.684601381E-01 -4.556291923E-02 -2.730478575E-01
 1.803882718E-01 -4.684188776E-02 -2.802202101E-01
 1.918645427E-01 -4.800512455E-02 -2.916827146E-01
 2.029835656E-01 -4.906329140E-02 -3.008072993E-01
 2.149045691E-01 -5.012138188E-02 -3.107382125E-01
 2.276127040E-01 -5.116645992E-02 -3.207347887E-01
 2.402887791E-01 -5.212700740E-02 -3.328011586E-01
 2.527460605E-01 -5.298357643E-02 -3.437746233E-01
 2.647150308E-01 -5.372199602E-02 -3.531884469E-01
 2.769471556E-01 -5.439239740E-02 -3.596921969E-01
 2.898970544E-01 -5.501396395E-02 -3.731102680E-01
 3.028200865E-01 -5.552546680E-02 -3.811607778E-01
 3.153130263E-01 -5.592253618E-02 -3.889377103E-01
 3.276046067E-01 -5.621240288E-02 -3.961615698E-01
 3.395033628E-01 -5.639873631E-02 -4.044917753E-01
 3.508517146E-01 -5.646974593E-02 -4.077208226E-01
 3.620899618E-01 -5.644918978E-02 -4.070620824E-01
 3.730387986E-01 -5.633622967E-02 -4.127179078E-01
 3.843837231E-01 -5.610791035E-02 -4.052719270E-01
 3.967856020E-01 -5.574923567E-02 -4.029513945E-01
 4.096190780E-01 -5.524055474E-02 -3.993086388E-01
 4.223608971E-01 -5.458807200E-02 -3.835807941E-01
 4.350888580E-01 -5.381098203E-02 -3.704016501E-01
 4.475634694E-01 -5.292432941E-02 -3.568617370E-01
 4.597022384E-01 -5.192701705E-02 -3.363218836E-01
 4.718678445E-01 -5.081651174E-02 -3.077134113E-01
 4.839121997E-01 -4.963581264E-02 -2.886656225E-01
 4.959641546E-01 -4.836203158E-02 -2.658818793E-01
 5.090698600E-01 -4.687228426E-02 -2.371739891E-01
 5.226911306E-01 -4.524050839E-02 -2.074214096E-01
 5.361140072E-01 -4.355757497E-02 -1.816385802E-01
 5.492026508E-01 -4.185066931E-02 -1.524697706E-01
 5.620707273E-01 -4.012534395E-02 -1.265042520E-01
 5.749557912E-01 -3.835868277E-02 -1.004361537E-01
 5.873423517E-01 -3.663836792E-02 -7.693033427E-02
 5.995123088E-01 -3.492691368E-02 -5.553829222E-02
 6.126850545E-01 -3.306141123E-02 -3.065960831E-02
 6.268646419E-01 -3.105647303E-02 -8.794824446E-03
 6.411746144E-01 -2.903540712E-02 1.205778283E-02
 6.549218297E-01 -2.708906960E-02 3.149384033E-02
 6.680804491E-01 -2.521627210E-02 5.344966535E-02
 6.808586419E-01 -2.342553809E-02 7.426575789E-02
 6.932296157E-01 -2.170883119E-02 8.691327367E-02
 7.064935863E-01 -1.988735050E-02 1.083268978E-01
 7.200583220E-01 -1.806064043E-02 1.230390514E-01
 7.325079441E-01 -1.641006116E-02 1.384277286E-01
 7.446739376E-01 -1.479924005E-02 1.531866158E-01
 7.570047677E-01 -1.320632501E-02 1.772330894E-01
 7.696912885E-01 -1.163757360E-02 1.857426000E-01
 7.820244133E-01 -1.014883257E-02 2.016357262E-01
 7.940714657E-01 -8.729262277E-03 2.151639414E-01
 8.058534563E-01 -7.392693777E-03 2.332394042E-01
 8.170424104E-01 -6.177373696E-03 2.422605797E-01
 8.291767240E-01 -4.926933208E-03 2.595836926E-01
 8.417951167E-01 -3.714140854E-03 2.715681937E-01
 8.539431393E-01 -2.630179515E-03 2.864779931E-01
 8.659444153E-01 -1.666049066E-03 2.969854297E-01
 8.777756393E-01 -8.183481841E-04 3.068041060E-01
 8.902604282E-01 -5.719487672E-05 3.161171400E-01
 9.021688402E-01 5.366271507E-04 3.242223007E-01
 9.125414193E-01 9.437893750E-04 3.248102828E-01
 9.418817163E-01 1.552722126E-03 3.289502770E-01
 9.541291296E-01 1.571866160E-03 3.286118032E-01
 9.681072235E-01 1.432838966E-03 3.288611561E-01
 9.820823669E-01 1.139525091E-03 3.406919103E-01
 9.940355718E-01 7.417175220E-04 4.104079023E-01
 -5.000000000E-01 9.500000000E-01 -1.951614885E-03
 -5.000000000E-01 9.000000000E-01 -2.087423827E-03
 -5.000000000E-01 8.500000000E-01 -1.405426718E-03
 -5.000000000E-01 8.000000000E-01 7.087550383E-05
 -5.000000000E-01 7.500000000E-01 2.195904346E-03
 -5.000000000E-01 7.000000000E-01 5.222932072E-03
 -5.000000000E-01 6.500000000E-01 9.070225448E-03
 -5.000000000E-01 6.000000000E-01 1.374676375E-02
 -5.000000000E-01 5.500000000E-01 1.937205376E-02
 -5.000000000E-01 5.000000000E-01 2.569105851E-02
 -5.000000000E-01 4.500000000E-01 3.306813260E-02
 -5.000000000E-01 4.000000000E-01 4.091278044E-02
 -5.000000000E-01 3.500000000E-01 4.954418319E-02
 -5.000000000E-01 3.000000000E-01 5.826582251E-02
 -5.000000000E-01 2.500000000E-01 6.727297481E-02
 -5.000000000E-01 2.000000000E-01 7.570071661E-02
 -5.000000000E-01 1.500000000E-01 8.352413416E-02
 -5.000000000E-01 1.000000000E-01 9.021234167E-02
 -5.000000000E-01 5.000000000E-02 9.534263826E-02
 -5.000000000E-01 2.752242878E-12 9.876770956E-02
 -5.000000000E-01 -5.000000000E-02 1.001887320E-01
 -5.000000000E-01 -1.000000000E-01 1.000074182E-01
 -5.000000000E-01 -1.500000000E-01 9.789481037E-02
 -5.000000000E-01 -2.000000000E-01 9.447098310E-02
 -5.000000000E-01 -2.500000000E-01 8.994901121E-02
 -5.000000000E-01 -3.000000000E-01 8.463270204E-02
 -5.000000000E-01 -3.500000000E-01 7.897328840E-02
 -5.000000000E-01 -4.000000000E-01 7.314324026E-02
 -5.000000000E-01 -4.500000000E-01 6.735985161E-02
 -5.000000000E-01 -5.000000000E-01 6.178152126E-02
 -5.000000000E-01 -5.500000000E-01 5.650587119E-02
 -5.000000000E-01 -6.000000000E-01 5.149377642E-02
 -5.000000000E-01 -6.500000000E-01 4.690269498E-02
 -5.000000000E-01 -7.000000000E-01 4.254981883E-02
 -5.000000000E-01 -7.500000000E-01 3.846415584E-02
 -5.000000000E-01 -8.000000000E-01 3.453576245E-02
 -5.000000000E-01 -8.500000000E-01 3.051048079E-02
 -5.000000000E-01 -9.000000000E-01 2.602535495E-02
 -5.000000000E-01 -9.500000000E-01 1.936495062E-02
 -4.500000000E-01 -1.000000000E+00 1.777598514E-02
 -4.000000000E-01 -1.000000000E+00 2.299954194E-02
 -3.500000000E-01 -1.000000000E+00 2.556037522E-02
 -3.000000000E-01 -1.000000000E+00 2.691253540E-02
 -2.500000000E-01 -1.000000000E+00 2.744878641E-02
 -2.000000000E-01 -1.000000000E+00 2.723372227E-02
 -1.500000000E-01 -1.000000000E+00 2.633567310E-02
 -1.000000000E-01 -1.000000000E+00 2.482843781E-02
 -5.000000000E-02 -1.000000000E+00 2.283374045E-02
 -9.424683256E-13 -1.000000000E+00 2.043787047E-02
 5.000000000E-02 -1.000000000E+00 1.760617864E-02
 1.000000000E-01 -1.000000000E+00 1.462614833E-02
 1.500000000E-01 -1.000000000E+00 1.158480076E-02
 2.000000000E-01 -1.000000000E+00 8.740700046E-03
 2.500000000E-01 -1.000000000E+00 6.061355683E-03
 3.000000000E-01 -1.000000000E+00 3.750772409E-03
 3.500000000E-01 -1.000000000E+00 2.122528881E-03
 4.000000000E-01 -1.000000000E+00 9.117209453E-04
 4.500000000E-01 -1.000000000E+00 4.307776300E-04
 5.000000000E-01 -1.000000000E+00 6.148080283E-04
 5.500000000E-01 -1.000000000E+00 1.387400477E-03
 6.000000000E-01 -1.000000000E+00 2.903481612E-03
 6.500000000E-01 -1.000000000E+00 5.004744331E-03
 7.000000000E-01 -1.000000000E+00 7.569072423E-03
 7.500000000E-01 -1.000000000E+00 1.046589708E-02
 8.000000000E-01 -1.000000000E+00 1.359704253E-02
 8.500000000E-01 -1.000000000E+00 1.679300239E-02
 9.000000000E-01 -1.000000000E+00 2.001460617E-02
 9.500000000E-01 -1.000000000E+00 2.310009097E-02
 1.000000000E+00 -1.000000000E+00 2.606436890E-02
 1.050000000E+00 -1.000000000E+00 2.868215456E-02
 1.100000000E+00 -1.000000000E+00 3.094443502E-02
 1.150000000E+00 -1.000000000E+00 3.287311338E-02
 1.200000000E+00 -1.000000000E+00 3.448472462E-02
 1.250000000E+00 -1.000000000E+00 3.573255399E-02
 1.300000000E+00 -1.000000000E+00 3.660583763E-02
 1.350000000E+00 -1.000000000E+00 3.723459702E-02
 1.400000000E+00 -1.000000000E+00 3.750106751E-02
 1.450000000E+00 -1.000000000E+00 3.757813241E-02
 1.500000000E+00 -1.000000000E+00 3.740341497E-02
 1.550000000E+00 -1.000000000E+00 3.706958434E-02
 1.600000000E+00 -1.000000000E+00 3.660131802E-02
 1.650000000E+00 -1.000000000E+00 3.599413909E-02
 1.700000000E+00 -1.000000000E+00 3.527800797E-02
 1.750000000E+00 -1.000000000E+00 3.448459452E-02
 1.800000000E+00 -1.000000000E+00 3.364831811E-02
 1.850000000E+00 -1.000000000E+00 3.277124697E-02
 1.900000000E+00 -1.000000000E+00 3.191224831E-02
 1.950000000E+00 -1.000000000E+00 3.101567385E-02
 2.000000000E+00 -1.000000000E+00 3.014126702E-02
 2.050000000E+00 -1.000000000E+00 2.923699829E-02
 2.100000000E+00 -1.000000000E+00 2.841305773E-02
 2.150000000E+00 -1.000000000E+00 2.760706254E-02
 2.200000000E+00 -1.000000000E+00 2.681308315E-02
 2.250000000E+00 -1.000000000E+00 2.607802902E-02
 2.300000000E+00 -1.000000000E+00 2.533254853E-02
 2.350000000E+00 -1.000000000E+00 2.468404624E-02
 2.400000000E+00 -1.000000000E+00 2.403048894E-02
 2.450000000E+00 -1.000000000E+00 2.346066161E-02
 2.500000000E+00 -1.000000000E+00 2.291512459E-02
 2.550000000E+00 -1.000000000E+00 2.241588864E-02
 2.600000000E+00 -1.000000000E+00 2.194227905E-02
 2.650000000E+00 -1.000000000E+00 2.152253871E-02
 2.700000000E+00 -1.000000000E+00 2.112193510E-02
 2.750000000E+00 -1.000000000E+00 2.075045575E-02
 2.800000000E+00 -1.000000000E+00 2.043158483E-02
 2.850000000E+00 -1.000000000E+00 2.012822732E-02
 2.900000000E+00 -1.000000000E+00 1.984998511E-02
 2.950000000E+00 -1.000000000E+00 1.958768466E-02
 3.000000000E+00 -1.000000000E+00 1.932609486E-02
 3.050000000E+00 -1.000000000E+00 1.900632028E-02
 3.100000000E+00 -1.000000000E+00 1.870272053E-02
 3.150000000E+00 -1.000000000E+00 1.831234889E-02
 3.200000000E+00 -1.000000000E+00 1.788028074E-02
 3.250000000E+00 -1.000000000E+00 1.732484210E-02
 3.300000000E+00 -1.000000000E+00 1.659488496E-02
 3.350000000E+00 -1.000000000E+00 1.556834929E-02
 3.400000000E+00 -1.000000000E+00 1.398482560E-02
 3.450000000E+00 -1.000000000E+00 1.139458905E-02
 3.500000000E+00 -9.500000000E-01 7.777055245E-03
 3.500000000E+00 -9.000000000E-01 9.315019754E-03
 3.500000000E+00 -8.500000000E-01 1.061805733E-02
 3.500000000E+00 -8.000000000E-01 1.209449332E-02
 3.500000000E+00 -7.500000000E-01 1.354749171E-02
 3.500000000E+00 -7.000000000E-01 1.501653770E-02
 3.500000000E+00 -6.500000000E-01 1.649212582E-02
 3.500000000E+00 -6.000000000E-01 1.815181297E-02
 3.500000000E+00 -5.500000000E-01 1.985399256E-02
 3.500000000E+00 -5.000000000E-01 2.168957645E-02
 3.500000000E+00 -4.500000000E-01 2.359994187E-02
 3.500000000E+00 -4.000000000E-01 2.564292932E-02
 3.500000000E+00 -3.500000000E-01 2.776995449E-02
 3.500000000E+00 -3.000000000E-01 2.973011075E-02
 3.500000000E+00 -2.500000000E-01 3.116231717E-02
 3.500000000E+00 -2.000000000E-01 3.166023716E-02
 3.500000000E+00 -1.500000000E-01 3.116735140E-02
 3.500000000E+00 -1.000000000E-01 3.014292149E-02
 3.500000000E+00 -5.000000000E-02 2.912806781E-02
 3.500000000E+00 -2.752242878E-12 2.839232315E-02
 3.500000000E+00 5.000000000E-02 2.792635733E-02
 3.500000000E+00 1.000000000E-01 2.716173934E-02
 3.500000000E+00 1.500000000E-01 2.568262510E-02
 3.500000000E+00 2.000000000E-01 2.318653301E-02
 3.500000000E+00 2.500000000E-01 2.020113509E-02
 3.500000000E+00 3.000000000E-01 1.708504221E-02
 3.500000000E+00 3.500000000E-01 1.415205874E-02
 3.500000000E+00 4.000000000E-01 1.134755648E-02
 3.500000000E+00 4.500000000E-01 8.815361522E-03
 3.500000000E+00 5.000000000E-01 6.547025068E-03
 3.500000000E+00 5.500000000E-01 4.708266739E-03
 3.500000000E+00 6.000000000E-01 3.459220192E-03
 3.500000000E+00 6.500000000E-01 2.986161095E-03
 3.500000000E+00 7.000000000E-01 3.019638191E-03
 3.500000000E+00 7.500000000E-01 2.555253095E-03
 3.500000000E+00 8.000000000E-01 -6.634243637E-05
 3.500000000E+00 8.500000000E-01 -5.930050797E-03
 3.500000000E+00 9.000000000E-01 -1.422141074E-02
 3.500000000E+00 9.500000000E-01 -2.427160967E-02
 3.450000000E+00 1.000000000E+00 -1.510073771E-02
 3.400000000E+00 1.000000000E+00 -7.077324505E-03
 3.350000000E+00 1.000000000E+00 -3.259623433E-03
 3.300000000E+00 1.000000000E+00 -1.482210591E-03
 3.250000000E+00 1.000000000E+00 -5.882181886E-04
 3.200000000E+00 1.000000000E+00 -1.463553108E-04
 3.150000000E+00 1.000000000E+00 7.836378551E-05
 3.100000000E+00 1.000000000E+00 1.108607101E-04
 3.050000000E+00 1.000000000E+00 -1.837698068E-04
 3.000000000E+00 1.000000000E+00 -3.988228111E-04
 2.950000000E+00 1.000000000E+00 -9.925140293E-04
 2.900000000E+00 1.000000000E+00 -1.452483999E-03
 2.850000000E+00 1.000000000E+00 -2.064871319E-03
 2.800000000E+00 1.000000000E+00 -2.790465248E-03
 2.750000000E+00 1.000000000E+00 -3.369404176E-03
 2.700000000E+00 1.000000000E+00 -4.547661270E-03
 2.650000000E+00 1.000000000E+00 -5.137283624E-03
 2.600000000E+00 1.000000000E+00 -6.479161380E-03
 2.550000000E+00 1.000000000E+00 -7.310273972E-03
 2.500000000E+00 1.000000000E+00 -8.524713119E-03
 2.450000000E+00 1.000000000E+00 -9.900539335E-03
 2.400000000E+00 1.000000000E+00 -1.110677267E-02
 2.350000000E+00 1.000000000E+00 -1.270609224E-02
 2.300000000E+00 1.000000000E+00 -1.403216041E-02
 2.250000000E+00 1.000000000E+00 -1.568916832E-02
 2.200000000E+00 1.000000000E+00 -1.743504388E-02
 2.150000000E+00 1.000000000E+00 -1.927152832E-02
 2.100000000E+00 1.000000000E+00 -2.119490864E-02
 2.050000000E+00 1.000000000E+00 -2.339521965E-02
 2.000000000E+00 1.000000000E+00 -2.538585311E-02
 1.950000000E+00 1.000000000E+00 -2.790194337E-02
 1.900000000E+00 1.000000000E+00 -3.048315079E-02
 1.850000000E+00 1.000000000E+00 -3.317745857E-02
 1.800000000E+00 1.000000000E+00 -3.631827619E-02
 1.750000000E+00 1.000000000E+00 -3.916282435E-02
 1.700000000E+00 1.000000000E+00 -4.282320638E-02
 1.650000000E+00 1.000000000E+00 -4.637167410E-02
 1.600000000E+00 1.000000000E+00 -5.044285837E-02
 1.550000000E+00 1.000000000E+00 -5.460664158E-02
 1.500000000E+00 1.000000000E+00 -5.885692347E-02
 1.450000000E+00 1.000000000E+00 -6.353554571E-02
 1.400000000E+00 1.000000000E+00 -6.852811558E-02
 1.350000000E+00 1.000000000E+00 -7.394060251E-02
 1.300000000E+00 1.000000000E+00 -7.910039939E-02
 1.250000000E+00 1.000000000E+00 -8.497702776E-02
 1.200000000E+00 1.000000000E+00 -9.059648133E-02
 1.150000000E+00 1.000000000E+00 -9.575922334E-02
 1.100000000E+00 1.000000000E+00 -1.014272628E-01
 1.050000000E+00 1.000000000E+00 -1.068001260E-01
 1.000000000E+00 1.000000000E+00 -1.120835718E-01
 9.500000000E-01 1.000000000E+00 -1.168732855E-01
 9.000000000E-01 1.000000000E+00 -1.204083169E-01
 8.500000000E-01 1.000000000E+00 -1.236508591E-01
 8.000000000E-01 1.000000000E+00 -1.245236881E-01
 7.500000000E-01 1.000000000E+00 -1.268054191E-01
 7.000000000E-01 1.000000000E+00 -1.267334262E-01
 6.500000000E-01 1.000000000E+00 -1.255299418E-01
 6.000000000E-01 1.000000000E+00 -1.231533851E-01
 5.500000000E-01 1.000000000E+00 -1.199659233E-01
 5.000000000E-01 1.000000000E+00 -1.142489479E-01
 4.500000000E-01 1.000000000E+00 -1.095883683E-01
 4.000000000E-01 1.000000000E+00 -1.024082329E-01
 3.500000000E-01 1.000000000E+00 -9.549156360E-02
 3.000000000E-01 1.000000000E+00 -8.761912829E-02
 2.500000000E-01 1.000000000E+00 -7.925346035E-02
 2.000000000E-01 1.000000000E+00 -7.065238756E-02
 1.500000000E-01 1.000000000E+00 -6.225642326E-02
 1.000000000E-01 1.000000000E+00 -5.353861445E-02
 5.000000000E-02 1.000000000E+00 -4.569554634E-02
 1.733724275E-12 1.000000000E+00 -3.795520837E-02
 -5.000000000E-02 1.000000000E+00 -3.093529472E-02
 -1.000000000E-01 1.000000000E+00 -2.471955944E-02
 -1.500000000E-01 1.000000000E+00 -1.913628992E-02
 -2.000000000E-01 1.000000000E+00 -1.441126855E-02
 -2.500000000E-01 1.000000000E+00 -1.050716663E-02
 -3.000000000E-01 1.000000000E+00 -7.423871234E-03
 -3.500000000E-01 1.000000000E+00 -5.093075647E-03
 -4.000000000E-01 1.000000000E+00 -3.405050459E-03
 -4.500000000E-01 1.000000000E+00 -2.107112220E-03
 8.995430137E-01 -4.473556347E-03 3.144397598E-01
 9.850373257E-01 -4.232842306E-03 3.417090552E-01
 8.207074845E-01 -1.113330027E-02 2.448494204E-01
 7.485400057E-01 -1.968458946E-02 1.607349173E-01
 6.783012015E-01 -2.866933812E-02 6.858995555E-02
 6.099412745E-01 -3.911807466E-02 -3.635397318E-02
 5.478172180E-01 -4.739266802E-02 -1.528609820E-01
 4.872916231E-01 -5.466509504E-02 -2.752366034E-01
 4.325345067E-01 -5.940368455E-02 -3.618152102E-01
 3.704828360E-01 -6.115238833E-02 -4.013842631E-01
 3.119473142E-01 -6.091646707E-02 -3.778981143E-01
 2.555292552E-01 -5.836861953E-02 -3.381924330E-01