TITLE     = "Visualization of the solution"
VARIABLES = "x"
"y"
"Pressure_Coefficient"
ZONE T="Zone"
 STRANDID=0, SOLUTIONTIME=0
 Nodes=12186, Elements=23792, ZONETYPE=FEQuadrilateral
 DATAPACKING=POINT
 DT=(DOUBLE DOUBLE DOUBLE )
 9.997967482E-01 5.176718114E-04 2.276917078E-01
 9.882367849E-01 2.712839050E-03 1.475057785E-01
 9.760234356E-01 4.940116778E-03 9.684866553E-02
 9.616758823E-01 7.579672616E-03 5.325804566E-02
 9.480639696E-01 1.013045199E-02 2.253728083E-04
 9.343140125E-01 1.258912031E-02 -1.910318327E-02
 9.233018160E-01 1.462198887E-02 -6.098024318E-02
 9.109358191E-01 1.682066545E-02 -9.490897063E-02
 8.991593122E-01 1.882145181E-02 -1.098472684E-01
 8.869587779E-01 2.088274993E-02 -1.370846387E-01
 8.748487830E-01 2.286764421E-02 -1.689352169E-01
 8.624710441E-01 2.473844774E-02 -1.649651843E-01
 8.496066928E-01 2.670732327E-02 -1.928120454E-01
 8.378835917E-01 2.839324251E-02 -1.955669444E-01
 8.259057999E-01 3.010196984E-02 -2.067849655E-01
 8.126823902E-01 3.195786104E-02 -2.241937492E-01
 7.994959950E-01 3.374634683E-02 -2.367006075E-01
 7.870801687E-01 3.538076580E-02 -2.437228388E-01
 7.745022178E-01 3.702006862E-02 -2.607624804E-01
 7.618443966E-01 3.859883919E-02 -2.623740425E-01
 7.485822439E-01 4.026958346E-02 -2.821736550E-01
 7.343276739E-01 4.200596735E-02 -3.009833170E-01
 7.234264016E-01 4.327727109E-02 -3.060591485E-01
 7.124109864E-01 4.455032200E-02 -3.173548118E-01
 7.007924318E-01 4.587050527E-02 -3.352249643E-01
 6.869452596E-01 4.736342281E-02 -3.443176023E-01
 6.738357544E-01 4.874145985E-02 -3.597693219E-01
 6.641318798E-01 4.972575977E-02 -3.668110817E-01
 6.528781056E-01 5.084492639E-02 -3.873557598E-01
 6.415705681E-01 5.188822001E-02 -3.881928630E-01
 6.298156977E-01 5.296140537E-02 -4.073409790E-01
 6.188389659E-01 5.389437824E-02 -4.134860668E-01
 6.077810526E-01 5.480081961E-02 -4.256735497E-01
 5.948837399E-01 5.578661710E-02 -4.373454712E-01
 5.832010508E-01 5.661330000E-02 -4.437448344E-01
 5.697377324E-01 5.749944970E-02 -4.548838097E-01
 5.573596358E-01 5.823662132E-02 -4.614098140E-01
 5.452156067E-01 5.889730155E-02 -4.684101686E-01
 5.346559882E-01 5.942478776E-02 -4.799836971E-01
 5.229445696E-01 5.991373211E-02 -4.748405837E-01
 5.100200772E-01 6.040371209E-02 -4.830185649E-01
 4.988814592E-01 6.075067818E-02 -4.804784136E-01
 4.856925905E-01 6.110831723E-02 -4.874696128E-01
 4.724143744E-01 6.137079373E-02 -4.879944128E-01
 4.579722881E-01 6.155081093E-02 -4.812452376E-01
 4.441834390E-01 6.166388094E-02 -4.884211453E-01
 4.310301244E-01 6.166068092E-02 -4.786531252E-01
 4.181358516E-01 6.161174923E-02 -4.805963269E-01
 4.059473276E-01 6.149242446E-02 -4.802282279E-01
 3.937357664E-01 6.129218265E-02 -4.702539084E-01
 3.815935254E-01 6.105594337E-02 -4.739791840E-01
 3.704038262E-01 6.076208875E-02 -4.660513490E-01
 3.572138846E-01 6.035358831E-02 -4.606394922E-01
 3.449448645E-01 5.991367623E-02 -4.566111831E-01
 3.324318826E-01 5.940137804E-02 -4.534534292E-01
 3.214792609E-01 5.889507756E-02 -4.478700799E-01
 3.088628054E-01 5.824364722E-02 -4.380204931E-01
 2.953628004E-01 5.749205500E-02 -4.369549656E-01
 2.812263072E-01 5.660307780E-02 -4.266332072E-01
 2.680536807E-01 5.570993945E-02 -4.214431197E-01
 2.558329999E-01 5.481341109E-02 -4.155662285E-01
 2.428309917E-01 5.378210917E-02 -4.080589712E-01
 2.299162596E-01 5.268042535E-02 -3.988877299E-01
 2.173082829E-01 5.153776705E-02 -3.944095492E-01
 2.055066377E-01 5.038819090E-02 -3.849990493E-01
 1.941688955E-01 4.922092706E-02 -3.751117461E-01
 1.817478091E-01 4.787737131E-02 -3.702289854E-01
 1.697643250E-01 4.649066553E-02 -3.588349320E-01
 1.584106833E-01 4.511739314E-02 -3.542962386E-01
 1.463483125E-01 4.355946556E-02 -3.448313076E-01
 1.356347948E-01 4.209863022E-02 -3.354936206E-01
 1.241993457E-01 4.045151919E-02 -3.272039159E-01
 1.126299873E-01 3.867567703E-02 -3.153930637E-01
 1.018695161E-01 3.693066537E-02 -3.078509870E-01
 9.190746397E-02 3.521433100E-02 -2.978372177E-01
 8.069717139E-02 3.314876929E-02 -2.831638473E-01
 6.851589680E-02 3.072672151E-02 -2.695028585E-01
 5.870079249E-02 2.860563807E-02 -2.569526136E-01
 4.879743233E-02 2.626457065E-02 -2.391259497E-01
 4.015523568E-02 2.403315343E-02 -2.214898355E-01
 3.298167512E-02 2.199142240E-02 -2.051941751E-01
 2.681448683E-02 2.005601861E-02 -1.773801037E-01
 2.150073275E-02 1.821542904E-02 -1.599845029E-01
 1.776479557E-02 1.679460518E-02 -1.298770407E-01
 1.425527874E-02 1.532574743E-02 -1.018320175E-01
 1.170381159E-02 1.415503304E-02 -7.037922543E-02
 9.425639175E-03 1.301618479E-02 -3.746036271E-02
 7.718462963E-03 1.207738556E-02 1.836207186E-03
 6.229979452E-03 1.119290665E-02 2.627406561E-02
 4.843911156E-03 1.029419992E-02 9.956354866E-02
 2.994223963E-03 8.931725286E-03 1.973601246E-01
 1.378846122E-03 7.516588084E-03 3.016948163E-01
 3.534006510E-06 6.012948696E-03 5.156611914E-01
 -1.303954050E-03 3.966893535E-03 8.015599563E-01
 -1.905018114E-03 2.336063655E-03 9.899653158E-01
 -2.103541745E-03 1.074009342E-03 1.102545180E+00
 -2.049109666E-03 -3.682529787E-04 1.119358752E+00
 -1.658338588E-03 -1.944095362E-03 1.036178642E+00
 -7.924912497E-04 -3.757549915E-03 8.747116029E-01
 5.954774679E-04 -5.649861414E-03 6.741976996E-01
 2.577499021E-03 -7.636812981E-03 4.966776951E-01
 4.318530671E-03 -9.047778323E-03 3.404832335E-01
 6.392739713E-03 -1.048449054E-02 2.669000283E-01
 7.935174741E-03 -1.144221798E-02 1.881466252E-01
 9.936154820E-03 -1.256928127E-02 1.466812060E-01
 1.226635464E-02 -1.376241911E-02 8.905441449E-02
 1.548837312E-02 -1.524334773E-02 4.125688110E-02
 1.851157099E-02 -1.649848558E-02 -8.153430613E-03
 2.243049815E-02 -1.798216254E-02 -3.617896351E-02
 2.779782005E-02 -1.980191842E-02 -6.923865904E-02
 3.351882473E-02 -2.154004015E-02 -1.013649921E-01
 4.105439410E-02 -2.359192260E-02 -1.193083520E-01
 4.853670672E-02 -2.543216944E-02 -1.409653587E-01
 5.768533424E-02 -2.747858129E-02 -1.529304078E-01
 6.636667997E-02 -2.924542874E-02 -1.717986953E-01
 7.657217234E-02 -3.116071783E-02 -1.775004546E-01
 8.659574389E-02 -3.291265294E-02 -1.913720828E-01
 9.669851512E-02 -3.455176577E-02 -1.996570508E-01
 1.074226201E-01 -3.618278354E-02 -2.080463056E-01
 1.186615527E-01 -3.778565675E-02 -2.162947436E-01
 1.300296932E-01 -3.931507096E-02 -2.263991111E-01
 1.406197697E-01 -4.065709934E-02 -2.356921791E-01
 1.516300142E-01 -4.197872430E-02 -2.443820974E-01
 1.637299657E-01 -4.335137829E-02 -2.545750199E-01
 1.753961742E-01 -4.459054768E-02 -2.622826413E-01
 1.872798800E-01 -4.578886926E-02 -2.740206766E-01
 1.978584081E-01 -4.678603634E-02 -2.820717244E-01
 2.091874927E-01 -4.780228809E-02 -2.940383675E-01
 2.215742618E-01 -4.883008823E-02 -3.034830572E-01
 2.345373631E-01 -4.981638491E-02 -3.120185132E-01
 2.471786290E-01 -5.070744082E-02 -3.258126516E-01
 2.600733042E-01 -5.151929706E-02 -3.345294599E-01
 2.712510526E-01 -5.215001479E-02 -3.436086526E-01
 2.842227221E-01 -5.280398577E-02 -3.558388374E-01
 2.972070575E-01 -5.335240066E-02 -3.642410841E-01
 3.100301325E-01 -5.378707871E-02 -3.702789215E-01
 3.216952384E-01 -5.410354584E-02 -3.796750926E-01
 3.343016207E-01 -5.435249209E-02 -3.906902311E-01
 3.451016843E-01 -5.445576459E-02 -3.922074234E-01
 3.563596010E-01 -5.447427928E-02 -3.914221707E-01
 3.673444986E-01 -5.442066491E-02 -3.981430740E-01
 3.778986931E-01 -5.427245051E-02 -3.979730648E-01
 3.890266120E-01 -5.402117595E-02 -3.977417285E-01
 4.017541707E-01 -5.358771980E-02 -3.840969010E-01
 4.140134752E-01 -5.307138711E-02 -3.815532599E-01
 4.269544482E-01 -5.238281190E-02 -3.688491104E-01
 4.395557940E-01 -5.156973004E-02 -3.500233063E-01
 4.519386888E-01 -5.066457018E-02 -3.338712973E-01
 4.640162587E-01 -4.967643321E-02 -3.166030145E-01
 4.764994085E-01 -4.853872582E-02 -2.932483708E-01
 4.877445400E-01 -4.743543267E-02 -2.743742892E-01
 5.004119277E-01 -4.609990492E-02 -2.495740649E-01
 5.142285824E-01 -4.452957213E-02 -2.173710886E-01
 5.282794833E-01 -4.286064208E-02 -1.902894116E-01
 5.421033502E-01 -4.113939032E-02 -1.602804429E-01
 5.555964112E-01 -3.941403702E-02 -1.351750984E-01
 5.684323311E-01 -3.773903474E-02 -1.133970898E-01
 5.816850066E-01 -3.593972698E-02 -7.982126485E-02
 5.934585333E-01 -3.438099101E-02 -6.984810002E-02
 6.056801677E-01 -3.271433339E-02 -4.604874328E-02
 6.197907329E-01 -3.077830188E-02 -2.424472023E-02
 6.342286468E-01 -2.877774648E-02 8.276659076E-04
 6.487150788E-01 -2.676613070E-02 2.626601093E-02
 6.621621847E-01 -2.495430037E-02 3.797213307E-02
 6.758258939E-01 -2.309069410E-02 5.978783463E-02
 6.884638071E-01 -2.139388025E-02 7.355095712E-02
 7.009498477E-01 -1.971415989E-02 9.220520201E-02
 7.151395679E-01 -1.780577935E-02 1.164297981E-01
 7.283357382E-01 -1.611095294E-02 1.269759316E-01
 7.399625778E-01 -1.462049875E-02 1.448921309E-01
 7.523788214E-01 -1.306275930E-02 1.616948945E-01
 7.648091316E-01 -1.158953086E-02 1.663914033E-01
 7.772209048E-01 -1.009684522E-02 1.864413333E-01
 7.885791063E-01 -8.757300675E-03 2.051524419E-01
 8.010928035E-01 -7.376126945E-03 2.143744696E-01
 8.120549321E-01 -6.189794745E-03 2.316835047E-01
 8.239005804E-01 -4.996360745E-03 2.406342830E-01
 8.363470435E-01 -3.782678396E-03 2.578352493E-01
 8.485394120E-01 -2.690766938E-03 2.701934919E-01
 8.606599569E-01 -1.705364441E-03 2.811004857E-01
 8.728661537E-01 -7.981611416E-04 2.952020291E-01
 8.854169846E-01 -1.293357400E-05 3.023844733E-01
 8.990013003E-01 6.875860272E-04 3.085574474E-01
 9.090796709E-01 1.107862685E-03 3.147039879E-01
 9.190621972E-01 1.424345421E-03 3.182217406E-01
 9.283573627E-01 1.628632424E-03 3.190803446E-01
 9.369565248E-01 1.746842870E-03 3.209158411E-01
 9.488676786E-01 1.798609155E-03 3.193163942E-01
 9.617515206E-01 1.711350633E-03 3.192991546E-01
 9.762744904E-01 1.430842560E-03 3.232019515E-01
 9.893704653E-01 1.021772856E-03 3.452780899E-01
 -5.000000000E-01 -1.000000000E+00 1.272021799E-02
 3.500000000E+00 -1.000000000E+00 7.610819184E-03
 3.500000000E+00 1.000000000E+00 -2.011918036E-02
 -5.000000000E-01 1.000000000E+00 -1.402666048E-03
 9.940167665E-01 1.615255431E-03 2.424140426E-01
 9.821301103E-01 3.826477914E-03 1.230472199E-01
 9.688496590E-01 6.259894697E-03 7.501792034E-02
 9.548699260E-01 8.855062304E-03 2.217108847E-02
 9.411889911E-01 1.135978615E-02 -7.021212894E-03
 9.288079143E-01 1.360555459E-02 -4.405351229E-02
 9.171188176E-01 1.572132716E-02 -8.033669621E-02
 9.050475657E-01 1.782105863E-02 -9.967221905E-02
 8.930590451E-01 1.985210087E-02 -1.242990309E-01
 8.809037805E-01 2.187519707E-02 -1.578141319E-01
 8.686599135E-01 2.380304597E-02 -1.620568317E-01
 8.560388684E-01 2.572288550E-02 -1.818527954E-01
 8.437451422E-01 2.755028289E-02 -1.922650392E-01
 8.318946958E-01 2.924760617E-02 -2.007437630E-01
 8.192940950E-01 3.102991544E-02 -2.166253134E-01
 8.060891926E-01 3.285210393E-02 -2.305532789E-01
 7.932880819E-01 3.456355631E-02 -2.389914710E-01
 7.807911932E-01 3.620041721E-02 -2.540483026E-01
 7.681733072E-01 3.780945390E-02 -2.585674782E-01
 7.552133203E-01 3.943421133E-02 -2.737924761E-01
 7.414549589E-01 4.113777541E-02 -2.921943844E-01
 7.288770378E-01 4.264161922E-02 -3.021873387E-01
 7.179186940E-01 4.391379654E-02 -3.112658389E-01
 7.066017091E-01 4.521041363E-02 -3.290183680E-01
 6.938688457E-01 4.661696404E-02 -3.387215707E-01
 6.803905070E-01 4.805244133E-02 -3.517088730E-01
 6.585049927E-01 5.028534308E-02 -3.806039372E-01
 6.472243369E-01 5.136657320E-02 -3.854747912E-01
 6.356931329E-01 5.242481269E-02 -3.993530814E-01
 6.243273318E-01 5.342789181E-02 -4.094732859E-01
 6.133100092E-01 5.434759893E-02 -4.211281965E-01
 6.013323963E-01 5.529371835E-02 -4.313449512E-01
 5.890423954E-01 5.619995855E-02 -4.410245315E-01
 5.764693916E-01 5.705637485E-02 -4.493833893E-01
 5.635486841E-01 5.786803551E-02 -4.578802278E-01
 5.512876213E-01 5.856696144E-02 -4.634662617E-01
 5.399357975E-01 5.916104466E-02 -4.774849169E-01
 5.288002789E-01 5.966925994E-02 -4.761006453E-01
 5.164823234E-01 6.015872210E-02 -4.789255319E-01
 5.044507682E-01 6.057719514E-02 -4.814768212E-01
 4.922870249E-01 6.092949770E-02 -4.851564507E-01
 4.790534824E-01 6.123955548E-02 -4.891309826E-01
 4.651933312E-01 6.146080233E-02 -4.825317245E-01
 4.510778636E-01 6.160734594E-02 -4.868174828E-01
 4.376067817E-01 6.166228093E-02 -4.813816735E-01
 4.245829880E-01 6.163621508E-02 -4.798271700E-01
 4.120415896E-01 6.155208685E-02 -4.814563784E-01
 3.998415470E-01 6.139230356E-02 -4.734466285E-01
 3.876646459E-01 6.117406301E-02 -4.731113807E-01
 3.759986758E-01 6.090901606E-02 -4.706223925E-01
 3.638088554E-01 6.055783853E-02 -4.626176545E-01
 3.510793746E-01 6.013363227E-02 -4.588994271E-01
 3.386883736E-01 5.965752713E-02 -4.543390105E-01
 3.269555718E-01 5.914822780E-02 -4.519697110E-01
 3.151710331E-01 5.856936239E-02 -4.424276776E-01
 3.021128029E-01 5.786785111E-02 -4.391903116E-01
 2.882945538E-01 5.704756640E-02 -4.305834293E-01
 2.746399939E-01 5.615650862E-02 -4.236747350E-01
 2.619433403E-01 5.526167527E-02 -4.191975870E-01
 2.493319958E-01 5.429776013E-02 -4.117238315E-01
 2.363736257E-01 5.323126726E-02 -4.029947015E-01
 2.236122712E-01 5.210909620E-02 -3.969289303E-01
 2.114074603E-01 5.096297897E-02 -3.888603930E-01
 1.998377666E-01 4.980455898E-02 -3.803335173E-01
 1.879583523E-01 4.854914919E-02 -3.734207979E-01
 1.757560670E-01 4.718401842E-02 -3.633143825E-01
 1.640875041E-01 4.580402933E-02 -3.582921062E-01
 1.523794979E-01 4.433842935E-02 -3.484434125E-01
 1.409915537E-01 4.282904789E-02 -3.411016128E-01
 1.299170703E-01 4.127507471E-02 -3.324859730E-01
 1.184146665E-01 3.956359811E-02 -3.205368419E-01
 1.072497517E-01 3.780317120E-02 -3.112913692E-01
 9.688849002E-02 3.607249819E-02 -3.052931494E-01
 8.630231768E-02 3.418155015E-02 -2.930974559E-01
 7.460653409E-02 3.193774540E-02 -2.789321416E-01
 5.374911241E-02 2.743510436E-02 -2.525080331E-01
 7.146942616E-02 -3.020307329E-02 -1.755260901E-01
 8.158395812E-02 -3.203668538E-02 -1.857051679E-01
 9.164712951E-02 -3.373220935E-02 -1.968411817E-01
 1.020605676E-01 -3.536727466E-02 -2.032265520E-01
 1.130420864E-01 -3.698422015E-02 -2.124060644E-01
 1.243456230E-01 -3.855036385E-02 -2.214594836E-01
 1.353247315E-01 -3.998608515E-02 -2.322964745E-01
 1.461248919E-01 -4.131791182E-02 -2.396316117E-01
 1.576799899E-01 -4.266505130E-02 -2.486692536E-01
 1.695630699E-01 -4.397096299E-02 -2.594173651E-01
 1.813380271E-01 -4.518970847E-02 -2.676591842E-01
 1.925691441E-01 -4.628745280E-02 -2.796413151E-01
 2.035229504E-01 -4.729416221E-02 -2.862303464E-01
 2.153808773E-01 -4.831618816E-02 -2.984542989E-01
 2.280558124E-01 -4.932323657E-02 -3.077568469E-01
 2.408579960E-01 -5.026191287E-02 -3.181500847E-01
 2.536259666E-01 -5.111336894E-02 -3.306853646E-01
 2.656621784E-01 -5.183465593E-02 -3.405439496E-01
 2.777368873E-01 -5.247700028E-02 -3.477879117E-01
 2.907148898E-01 -5.307819322E-02 -3.604429064E-01
 3.036185950E-01 -5.356973968E-02 -3.680533217E-01
 3.158626854E-01 -5.394531228E-02 -3.753724773E-01
 3.279984295E-01 -5.422801897E-02 -3.833258295E-01
 3.397016525E-01 -5.440412834E-02 -3.947739526E-01
 3.507306427E-01 -5.446502194E-02 -3.914415984E-01
 3.618520498E-01 -5.444747210E-02 -3.935706449E-01
 3.726215959E-01 -5.434655771E-02 -3.991304300E-01
 3.834626526E-01 -5.414681323E-02 -3.968952756E-01
 3.953903913E-01 -5.380444787E-02 -3.911228225E-01
 4.078838229E-01 -5.332955346E-02 -3.820304685E-01
 4.204839617E-01 -5.272709951E-02 -3.754019108E-01
 4.332551211E-01 -5.197627097E-02 -3.606608461E-01
 4.457472414E-01 -5.111715011E-02 -3.418218565E-01
 4.579774737E-01 -5.017050169E-02 -3.258003743E-01
 4.702578336E-01 -4.910757951E-02 -3.056272923E-01
 4.821219742E-01 -4.798707925E-02 -2.843575158E-01
 4.940782338E-01 -4.676766880E-02 -2.616895037E-01
 5.073202550E-01 -4.531473853E-02 -2.344526580E-01
 5.212540329E-01 -4.369510710E-02 -2.037612688E-01
 5.351914167E-01 -4.200001620E-02 -1.762224578E-01
 5.488498807E-01 -4.027671367E-02 -1.478589800E-01
 5.620143712E-01 -3.857653588E-02 -1.242234098E-01
 5.750586689E-01 -3.683938086E-02 -9.894757878E-02
 5.875717700E-01 -3.516035900E-02 -7.165626002E-02
 5.995693505E-01 -3.354766220E-02 -5.920817957E-02
 6.127354503E-01 -3.174631763E-02 -3.532685110E-02
 6.270096898E-01 -2.977802418E-02 -1.235042941E-02
 6.414718628E-01 -2.777193859E-02 1.291797428E-02
 6.554386318E-01 -2.586021554E-02 3.450188795E-02
 6.689940393E-01 -2.402249724E-02 4.795439544E-02
 6.821448505E-01 -2.224228717E-02 6.766696276E-02
 6.947068274E-01 -2.055402007E-02 8.223654691E-02
 7.080447078E-01 -1.875996962E-02 1.026651122E-01
 7.217376530E-01 -1.695836615E-02 1.240872761E-01
 7.341491580E-01 -1.536572585E-02 1.351167365E-01
 7.461706996E-01 -1.384162903E-02 1.526194525E-01
 7.585939765E-01 -1.232614508E-02 1.666415633E-01
 7.710150182E-01 -1.084318804E-02 1.745405102E-01
 7.829000056E-01 -9.427072946E-03 1.946565483E-01
 7.948359549E-01 -8.066713810E-03 2.107185815E-01
 8.065738678E-01 -6.782960845E-03 2.223347017E-01
 8.179777563E-01 -5.593077745E-03 2.361950260E-01
 8.301238120E-01 -4.389519570E-03 2.473312742E-01
 8.424432278E-01 -3.236722667E-03 2.641430311E-01
 8.545996845E-01 -2.198065689E-03 2.757594287E-01
 8.667630553E-01 -1.251762791E-03 2.868217989E-01
 8.791415691E-01 -4.055473578E-04 2.987448160E-01
 8.922091424E-01 3.373262266E-04 3.056340857E-01
 9.429121017E-01 1.772726013E-03 3.183434124E-01
 9.553095996E-01 1.754979894E-03 3.181924522E-01
 9.690130055E-01 1.571096596E-03 3.177330766E-01
 9.828224778E-01 1.226307708E-03 3.229393624E-01
 9.945836067E-01 7.697223336E-04 3.855643105E-01
 -5.000000000E-01 9.500000000E-01 -1.790903987E-03
 -5.000000000E-01 9.000000000E-01 -1.933664964E-03
 -5.000000000E-01 8.500000000E-01 -1.307177369E-03
 -5.000000000E-01 8.000000000E-01 -2.499679712E-05
 -5.000000000E-01 7.500000000E-01 1.969886017E-03
 -5.000000000E-01 7.000000000E-01 4.708072544E-03
 -5.000000000E-01 6.500000000E-01 8.193294076E-03
 -5.000000000E-01 6.000000000E-01 1.242233979E-02
 -5.000000000E-01 5.500000000E-01 1.752947866E-02
 -5.000000000E-01 5.000000000E-01 2.333368759E-02
 -5.000000000E-01 4.500000000E-01 3.002673403E-02
 -5.000000000E-01 4.000000000E-01 3.714207451E-02
 -5.000000000E-01 3.500000000E-01 4.504797792E-02
 -5.000000000E-01 3.000000000E-01 5.310859227E-02
 -5.000000000E-01 2.500000000E-01 6.119337219E-02
 -5.000000000E-01 2.000000000E-01 6.916856484E-02
 -5.000000000E-01 1.500000000E-01 7.621337575E-02
 -5.000000000E-01 1.000000000E-01 8.240026371E-02
 -5.000000000E-01 5.000000000E-02 8.714927900E-02
 -5.000000000E-01 2.752242878E-12 9.039711633E-02
 -5.000000000E-01 -5.000000000E-02 9.178554245E-02
 -5.000000000E-01 -1.000000000E-01 9.146898532E-02
 -5.000000000E-01 -1.500000000E-01 8.968638261E-02
 -5.000000000E-01 -2.000000000E-01 8.646149454E-02
 -5.000000000E-01 -2.500000000E-01 8.231682089E-02
 -5.000000000E-01 -3.000000000E-01 7.743079246E-02
 -5.000000000E-01 -3.500000000E-01 7.215196754E-02
 -5.000000000E-01 -4.000000000E-01 6.673348683E-02
 -5.000000000E-01 -4.500000000E-01 6.141297030E-02
 -5.000000000E-01 -5.000000000E-01 5.619837646E-02
 -5.000000000E-01 -5.500000000E-01 5.131256832E-02
 -5.000000000E-01 -6.000000000E-01 4.673704230E-02
 -5.000000000E-01 -6.500000000E-01 4.246840642E-02
 -5.000000000E-01 -7.000000000E-01 3.848124213E-02
 -5.000000000E-01 -7.500000000E-01 3.473215290E-02
 -5.000000000E-01 -8.000000000E-01 3.114747119E-02
 -5.000000000E-01 -8.500000000E-01 2.750411671E-02
 -5.000000000E-01 -9.000000000E-01 2.349836928E-02
 -5.000000000E-01 -9.500000000E-01 1.745692002E-02
 -4.500000000E-01 -1.000000000E+00 1.592331576E-02
 -4.000000000E-01 -1.000000000E+00 2.067646596E-02
 -3.500000000E-01 -1.000000000E+00 2.293633190E-02
 -3.000000000E-01 -1.000000000E+00 2.407572405E-02
 -2.500000000E-01 -1.000000000E+00 2.453657601E-02
 -2.000000000E-01 -1.000000000E+00 2.432239934E-02
 -1.500000000E-01 -1.000000000E+00 2.337856607E-02
 -1.000000000E-01 -1.000000000E+00 2.190414350E-02
 -5.000000000E-02 -1.000000000E+00 1.998107655E-02
 -9.424683256E-13 -1.000000000E+00 1.757756159E-02
 5.000000000E-02 -1.000000000E+00 1.494104140E-02
 1.000000000E-01 -1.000000000E+00 1.211287387E-02
 1.500000000E-01 -1.000000000E+00 9.222470296E-03
 2.000000000E-01 -1.000000000E+00 6.517843095E-03
 2.500000000E-01 -1.000000000E+00 3.916530964E-03
 3.000000000E-01 -1.000000000E+00 1.786925072E-03
 3.500000000E-01 -1.000000000E+00 9.847322263E-05
 4.000000000E-01 -1.000000000E+00 -1.020156578E-03
 4.500000000E-01 -1.000000000E+00 -1.521251959E-03
 5.000000000E-01 -1.000000000E+00 -1.314038487E-03
 5.500000000E-01 -1.000000000E+00 -4.081297854E-04
 6.000000000E-01 -1.000000000E+00 1.026716619E-03
 6.500000000E-01 -1.000000000E+00 3.008350426E-03
 7.000000000E-01 -1.000000000E+00 5.418727861E-03
 7.500000000E-01 -1.000000000E+00 8.183172728E-03
 8.000000000E-01 -1.000000000E+00 1.113136610E-02
 8.500000000E-01 -1.000000000E+00 1.426899206E-02
 9.000000000E-01 -1.000000000E+00 1.735264625E-02
 9.500000000E-01 -1.000000000E+00 2.031555990E-02
 1.000000000E+00 -1.000000000E+00 2.312309319E-02
 1.050000000E+00 -1.000000000E+00 2.561022244E-02
 1.100000000E+00 -1.000000000E+00 2.779427973E-02
 1.150000000E+00 -1.000000000E+00 2.969178535E-02
 1.200000000E+00 -1.000000000E+00 3.124480664E-02
 1.250000000E+00 -1.000000000E+00 3.243193616E-02
 1.300000000E+00 -1.000000000E+00 3.334077225E-02
 1.350000000E+00 -1.000000000E+00 3.390018950E-02
 1.400000000E+00 -1.000000000E+00 3.424713464E-02
 1.450000000E+00 -1.000000000E+00 3.431530184E-02
 1.500000000E+00 -1.000000000E+00 3.420556141E-02
 1.550000000E+00 -1.000000000E+00 3.391252488E-02
 1.600000000E+00 -1.000000000E+00 3.345953742E-02
 1.650000000E+00 -1.000000000E+00 3.296545889E-02
 1.700000000E+00 -1.000000000E+00 3.225764664E-02
 1.750000000E+00 -1.000000000E+00 3.163046418E-02
 1.800000000E+00 -1.000000000E+00 3.080855138E-02
 1.850000000E+00 -1.000000000E+00 3.001555575E-02
 1.900000000E+00 -1.000000000E+00 2.921971589E-02
 1.950000000E+00 -1.000000000E+00 2.840806858E-02
 2.000000000E+00 -1.000000000E+00 2.759682690E-02
 2.050000000E+00 -1.000000000E+00 2.679312386E-02
 2.100000000E+00 -1.000000000E+00 2.603257735E-02
 2.150000000E+00 -1.000000000E+00 2.528351119E-02
 2.200000000E+00 -1.000000000E+00 2.453038556E-02
 2.250000000E+00 -1.000000000E+00 2.386413669E-02
 2.300000000E+00 -1.000000000E+00 2.317081541E-02
 2.350000000E+00 -1.000000000E+00 2.262601381E-02
 2.400000000E+00 -1.000000000E+00 2.199946589E-02
 2.450000000E+00 -1.000000000E+00 2.148395297E-02
 2.500000000E+00 -1.000000000E+00 2.098787217E-02
 2.550000000E+00 -1.000000000E+00 2.052040407E-02
 2.600000000E+00 -1.000000000E+00 2.009681527E-02
 2.650000000E+00 -1.000000000E+00 1.972607809E-02
 2.700000000E+00 -1.000000000E+00 1.936693556E-02
 2.750000000E+00 -1.000000000E+00 1.900269082E-02
 2.800000000E+00 -1.000000000E+00 1.871670725E-02
 2.850000000E+00 -1.000000000E+00 1.838585798E-02
 2.900000000E+00 -1.000000000E+00 1.815516959E-02
 2.950000000E+00 -1.000000000E+00 1.787445263E-02
 3.000000000E+00 -1.000000000E+00 1.765527345E-02
 3.050000000E+00 -1.000000000E+00 1.734404567E-02
 3.100000000E+00 -1.000000000E+00 1.710081686E-02
 3.150000000E+00 -1.000000000E+00 1.671572054E-02
 3.200000000E+00 -1.000000000E+00 1.633112723E-02
 3.250000000E+00 -1.000000000E+00 1.577509823E-02
 3.300000000E+00 -1.000000000E+00 1.508924787E-02
 3.350000000E+00 -1.000000000E+00 1.412329329E-02
 3.400000000E+00 -1.000000000E+00 1.266081227E-02
 3.450000000E+00 -1.000000000E+00 1.026681118E-02
 3.500000000E+00 -9.500000000E-01 6.918891438E-03
 3.500000000E+00 -9.000000000E-01 8.285022589E-03
 3.500000000E+00 -8.500000000E-01 9.440216635E-03
 3.500000000E+00 -8.000000000E-01 1.077675858E-02
 3.500000000E+00 -7.500000000E-01 1.217811253E-02
 3.500000000E+00 -7.000000000E-01 1.352769086E-02
 3.500000000E+00 -6.500000000E-01 1.490753271E-02
 3.500000000E+00 -6.000000000E-01 1.637804645E-02
 3.500000000E+00 -5.500000000E-01 1.794823407E-02
 3.500000000E+00 -5.000000000E-01 1.961894558E-02
 3.500000000E+00 -4.500000000E-01 2.142884638E-02
 3.500000000E+00 -4.000000000E-01 2.335597349E-02
 3.500000000E+00 -3.500000000E-01 2.534157288E-02
 3.500000000E+00 -3.000000000E-01 2.708473373E-02
 3.500000000E+00 -2.500000000E-01 2.840979929E-02
 3.500000000E+00 -2.000000000E-01 2.891980270E-02
 3.500000000E+00 -1.500000000E-01 2.890016515E-02
 3.500000000E+00 -1.000000000E-01 2.804371906E-02
 3.500000000E+00 -5.000000000E-02 2.702151464E-02
 3.500000000E+00 -2.752242878E-12 2.638762816E-02
 3.500000000E+00 5.000000000E-02 2.586346376E-02
 3.500000000E+00 1.000000000E-01 2.504387525E-02
 3.500000000E+00 1.500000000E-01 2.355454725E-02
 3.500000000E+00 2.000000000E-01 2.130736171E-02
 3.500000000E+00 2.500000000E-01 1.856647054E-02
 3.500000000E+00 3.000000000E-01 1.573167108E-02
 3.500000000E+00 3.500000000E-01 1.298935365E-02
 3.500000000E+00 4.000000000E-01 1.050802859E-02
 3.500000000E+00 4.500000000E-01 8.207650820E-03
 3.500000000E+00 5.000000000E-01 6.078558405E-03
 3.500000000E+00 5.500000000E-01 4.306840054E-03
 3.500000000E+00 6.000000000E-01 3.223827447E-03
 3.500000000E+00 6.500000000E-01 2.743146115E-03
 3.500000000E+00 7.000000000E-01 2.684251356E-03
 3.500000000E+00 7.500000000E-01 2.333037559E-03
 3.500000000E+00 8.000000000E-01 -7.261396618E-05
 3.500000000E+00 8.500000000E-01 -4.797739953E-03
 3.500000000E+00 9.000000000E-01 -1.097023744E-02
 3.500000000E+00 9.500000000E-01 -1.973946288E-02
 3.450000000E+00 1.000000000E+00 -1.231739851E-02
 3.400000000E+00 1.000000000E+00 -5.734453801E-03
 3.350000000E+00 1.000000000E+00 -2.570239745E-03
 3.300000000E+00 1.000000000E+00 -1.041309440E-03
 3.250000000E+00 1.000000000E+00 -2.015322297E-04
 3.200000000E+00 1.000000000E+00 2.682144159E-04
 3.150000000E+00 1.000000000E+00 3.616284269E-04
 3.100000000E+00 1.000000000E+00 3.600986903E-04
 3.050000000E+00 1.000000000E+00 6.431008982E-05
 3.000000000E+00 1.000000000E+00 -8.062111767E-05
 2.950000000E+00 1.000000000E+00 -6.741085594E-04
 2.900000000E+00 1.000000000E+00 -1.132031386E-03
 2.850000000E+00 1.000000000E+00 -1.719593214E-03
 2.800000000E+00 1.000000000E+00 -2.418550141E-03
 2.750000000E+00 1.000000000E+00 -3.104904903E-03
 2.700000000E+00 1.000000000E+00 -3.907250442E-03
 2.650000000E+00 1.000000000E+00 -4.872929589E-03
 2.600000000E+00 1.000000000E+00 -5.677765875E-03
 2.550000000E+00 1.000000000E+00 -6.783980835E-03
 2.500000000E+00 1.000000000E+00 -7.753144718E-03
 2.450000000E+00 1.000000000E+00 -8.859368941E-03
 2.400000000E+00 1.000000000E+00 -1.014300617E-02
 2.350000000E+00 1.000000000E+00 -1.140479901E-02
 2.300000000E+00 1.000000000E+00 -1.275612226E-02
 2.250000000E+00 1.000000000E+00 -1.425158571E-02
 2.200000000E+00 1.000000000E+00 -1.583202458E-02
 2.150000000E+00 1.000000000E+00 -1.750354311E-02
 2.100000000E+00 1.000000000E+00 -1.931025096E-02
 2.050000000E+00 1.000000000E+00 -2.118756603E-02
 2.000000000E+00 1.000000000E+00 -2.329562264E-02
 1.950000000E+00 1.000000000E+00 -2.529300598E-02
 1.900000000E+00 1.000000000E+00 -2.784589779E-02
 1.850000000E+00 1.000000000E+00 -3.019452453E-02
 1.800000000E+00 1.000000000E+00 -3.297620900E-02
 1.750000000E+00 1.000000000E+00 -3.588998011E-02
 1.700000000E+00 1.000000000E+00 -3.895132919E-02
 1.650000000E+00 1.000000000E+00 -4.234857219E-02
 1.600000000E+00 1.000000000E+00 -4.591761438E-02
 1.550000000E+00 1.000000000E+00 -4.958171770E-02
 1.500000000E+00 1.000000000E+00 -5.387883077E-02
 1.450000000E+00 1.000000000E+00 -5.767038231E-02
 1.400000000E+00 1.000000000E+00 -6.256598644E-02
 1.350000000E+00 1.000000000E+00 -6.676885128E-02
 1.300000000E+00 1.000000000E+00 -7.189739617E-02
 1.250000000E+00 1.000000000E+00 -7.680756980E-02
 1.200000000E+00 1.000000000E+00 -8.212648986E-02
 1.150000000E+00 1.000000000E+00 -8.711900108E-02
 1.100000000E+00 1.000000000E+00 -9.203153159E-02
 1.050000000E+00 1.000000000E+00 -9.691927721E-02
 1.000000000E+00 1.000000000E+00 -1.016333759E-01
 9.500000000E-01 1.000000000E+00 -1.054613013E-01
 9.000000000E-01 1.000000000E+00 -1.083241273E-01
 8.500000000E-01 1.000000000E+00 -1.117141225E-01
 8.000000000E-01 1.000000000E+00 -1.127621074E-01
 7.500000000E-01 1.000000000E+00 -1.146786805E-01
 7.000000000E-01 1.000000000E+00 -1.143385010E-01
 6.500000000E-01 1.000000000E+00 -1.132864898E-01
 6.000000000E-01 1.000000000E+00 -1.113272985E-01
 5.500000000E-01 1.000000000E+00 -1.079000851E-01
 5.000000000E-01 1.000000000E+00 -1.040126108E-01
 4.500000000E-01 1.000000000E+00 -9.859722386E-02
 4.000000000E-01 1.000000000E+00 -9.312188131E-02
 3.500000000E-01 1.000000000E+00 -8.629289301E-02
 3.000000000E-01 1.000000000E+00 -7.926021643E-02
 2.500000000E-01 1.000000000E+00 -7.174039128E-02
 2.000000000E-01 1.000000000E+00 -6.416577224E-02
 1.500000000E-01 1.000000000E+00 -5.641045124E-02
 1.000000000E-01 1.000000000E+00 -4.866053260E-02
 5.000000000E-02 1.000000000E+00 -4.146795429E-02
 1.733724275E-12 1.000000000E+00 -3.441807082E-02
 -5.000000000E-02 1.000000000E+00 -2.843773461E-02
 -1.000000000E-01 1.000000000E+00 -2.254019098E-02
 -1.500000000E-01 1.000000000E+00 -1.760325834E-02
 -2.000000000E-01 1.000000000E+00 -1.305474957E-02
 -2.500000000E-01 1.000000000E+00 -9.633915699E-03
 -3.000000000E-01 1.000000000E+00 -6.803727591E-03
 -3.500000000E-01 1.000000000E+00 -4.675341367E-03
 -4.000000000E-01 1.000000000E+00 -3.112093135E-03
 -4.500000000E-01 1.000000000E+00 -1.916527248E-03
 9.867575900E-01 -5.288253661E-03 3.259026091E-01
 8.953648164E-01 -5.742259973E-03 2.992997758E-01
 8.098280969E-01 -1.123311874E-02 2.236813009E-01
 7.375119519E-01 -1.981812318E-02 1.382892647E-01
 6.663679763E-01 -2.989272515E-02 4.345137199E-02
 5.972434278E-01 -3.930914811E-02 -6.226343547E-02
 5.324142115E-01 -4.812864320E-02 -1.784989706E-01
 4.669435674E-01 -5.454144281E-02 -3.030022363E-01
 4.113676471E-01 -5.850107352E-02 -3.703107655E-01
 3.537585633E-01 -5.920604693E-02 -3.828277547E-01
 3.002161778E-01 -5.853035133E-02 -3.579727352E-01
 2.373118410E-01 -5.551297763E-02 -3.085951116E-01
 1.770481484E-01 -4.966687512E-02 -2.582343696E-01