TITLE     = "Visualization of the solution"
VARIABLES = "x"
"y"
"Pressure_Coefficient"
ZONE T="Zone"
 STRANDID=0, SOLUTIONTIME=0
 Nodes=11960, Elements=23340, ZONETYPE=FEQuadrilateral
 DATAPACKING=POINT
 DT=(DOUBLE DOUBLE DOUBLE )
 9.998319745E-01 5.078648101E-04 2.544908561E-01
 9.874702692E-01 2.813134342E-03 1.923208189E-01
 9.745644927E-01 5.254803225E-03 1.187535206E-01
 9.572654963E-01 8.409935050E-03 7.305477801E-02
 9.416701794E-01 1.128960215E-02 3.505828787E-02
 9.262396097E-01 1.417132281E-02 -5.831231043E-03
 9.141171575E-01 1.641574875E-02 -3.367824416E-02
 9.017450809E-01 1.870919205E-02 -7.031691827E-02
 8.896073699E-01 2.088116109E-02 -9.445660837E-02
 8.772971630E-01 2.301971614E-02 -1.101949443E-01
 8.646701574E-01 2.518960834E-02 -1.296431648E-01
 8.523727655E-01 2.728177793E-02 -1.512409841E-01
 8.403193355E-01 2.930706553E-02 -1.816774675E-01
 8.293539286E-01 3.105309233E-02 -1.871656670E-01
 8.178499341E-01 3.286835551E-02 -2.003276918E-01
 8.055189848E-01 3.478684276E-02 -2.189991666E-01
 7.929520607E-01 3.668171540E-02 -2.310521883E-01
 7.806736827E-01 3.850201517E-02 -2.411852122E-01
 7.688600421E-01 4.026050121E-02 -2.675229622E-01
 7.572460771E-01 4.191299900E-02 -2.765915826E-01
 7.444180250E-01 4.371320456E-02 -2.931618001E-01
 7.311276793E-01 4.553073272E-02 -3.089619133E-01
 7.206960320E-01 4.693610966E-02 -3.265591131E-01
 7.098170519E-01 4.836254939E-02 -3.454193596E-01
 6.982608438E-01 4.980385676E-02 -3.515947020E-01
 6.849667430E-01 5.143249035E-02 -3.696528971E-01
 6.720770597E-01 5.295203626E-02 -3.861869100E-01
 6.621077061E-01 5.407845601E-02 -3.927211829E-01
 6.507146358E-01 5.535298958E-02 -4.174770465E-01
 6.390286684E-01 5.657691136E-02 -4.295448850E-01
 6.274709105E-01 5.772792548E-02 -4.391482792E-01
 6.161602139E-01 5.881392956E-02 -4.601787266E-01
 6.053824425E-01 5.975427106E-02 -4.591417610E-01
 5.932199955E-01 6.078631803E-02 -4.753163649E-01
 5.817782283E-01 6.168441102E-02 -4.875254399E-01
 5.685702562E-01 6.261835247E-02 -4.888617666E-01
 5.564498901E-01 6.343270838E-02 -5.071592658E-01
 5.443682075E-01 6.413082778E-02 -5.048423973E-01
 5.335752964E-01 6.471858919E-02 -5.153283060E-01
 5.222270489E-01 6.525862962E-02 -5.202065685E-01
 5.100017786E-01 6.575066596E-02 -5.176183031E-01
 4.989007413E-01 6.615261734E-02 -5.238573813E-01
 4.858871400E-01 6.653045118E-02 -5.248490872E-01
 4.725630283E-01 6.682277471E-02 -5.227780150E-01
 4.586078823E-01 6.703808904E-02 -5.209236380E-01
 4.455038607E-01 6.716255099E-02 -5.224449344E-01
 4.326824844E-01 6.718770415E-02 -5.136194087E-01
 4.201043546E-01 6.716186553E-02 -5.148708028E-01
 4.076710939E-01 6.705584377E-02 -5.101456265E-01
 3.953941166E-01 6.689072400E-02 -5.077356905E-01
 3.830582201E-01 6.665614992E-02 -5.056305198E-01
 3.715093732E-01 6.636770815E-02 -4.970920811E-01
 3.587124944E-01 6.599922478E-02 -4.973360762E-01
 3.461576402E-01 6.555619091E-02 -4.920828427E-01
 3.330511153E-01 6.501404196E-02 -4.828770396E-01
 3.220280707E-01 6.452243030E-02 -4.834896544E-01
 3.093584776E-01 6.387693435E-02 -4.783033985E-01
 2.961289883E-01 6.312009692E-02 -4.706343287E-01
 2.821238339E-01 6.223371997E-02 -4.627234606E-01
 2.700185478E-01 6.141024828E-02 -4.613983892E-01
 2.580885589E-01 6.051864475E-02 -4.533304952E-01
 2.457169592E-01 5.952806398E-02 -4.484033828E-01
 2.332017273E-01 5.844530091E-02 -4.430558909E-01
 2.210257649E-01 5.730899423E-02 -4.359403642E-01
 2.091237754E-01 5.611616373E-02 -4.259442748E-01
 1.974269450E-01 5.487562343E-02 -4.185912053E-01
 1.848847121E-01 5.345970020E-02 -4.132640967E-01
 1.729334593E-01 5.201069266E-02 -4.029834880E-01
 1.613548100E-01 5.052249506E-02 -3.940533714E-01
 1.493694782E-01 4.888541624E-02 -3.875019114E-01
 1.386040300E-01 4.731182009E-02 -3.735333082E-01
 1.267998219E-01 4.549284652E-02 -3.663605480E-01
 1.153204963E-01 4.359241948E-02 -3.545624523E-01
 1.048067138E-01 4.173405468E-02 -3.393780832E-01
 9.501231462E-02 3.989640996E-02 -3.257335981E-01
 8.397109807E-02 3.768272325E-02 -3.109923038E-01
 7.251622528E-02 3.519839421E-02 -2.936871900E-01
 6.281328201E-02 3.292329982E-02 -2.712838029E-01
 5.311914533E-02 3.044934012E-02 -2.490254183E-01
 4.458295926E-02 2.806860954E-02 -2.245140664E-01
 3.724992275E-02 2.584012784E-02 -1.955356100E-01
 3.066663444E-02 2.365602739E-02 -1.657720679E-01
 2.509574033E-02 2.163033187E-02 -1.390858074E-01
 2.101026475E-02 2.000769787E-02 -1.004489065E-01
 1.715886407E-02 1.834127679E-02 -6.684495628E-02
 1.411672682E-02 1.690677181E-02 -1.954480191E-02
 1.132579241E-02 1.547218952E-02 1.597139619E-02
 9.300222620E-03 1.433974411E-02 5.852192482E-02
 7.503408007E-03 1.324580424E-02 9.639403367E-02
 5.859071855E-03 1.214770880E-02 1.752860809E-01
 3.702419112E-03 1.052910928E-02 2.771703929E-01
 1.830414985E-03 8.848123252E-03 3.698994542E-01
 2.695849398E-04 7.094368804E-03 6.130389924E-01
 -1.217263867E-03 4.669234157E-03 8.726260430E-01
 -1.822471619E-03 2.847870113E-03 1.022416953E+00
 -1.994441263E-03 1.388729783E-03 1.101302319E+00
 -1.872402965E-03 -1.622338896E-04 1.097182823E+00
 -1.445299829E-03 -1.712828060E-03 1.000067354E+00
 -5.393512547E-04 -3.552261740E-03 8.460098048E-01
 8.125121240E-04 -5.422220565E-03 6.500140792E-01
 2.715045353E-03 -7.384930272E-03 4.760142288E-01
 4.461808130E-03 -8.851477876E-03 3.349952690E-01
 6.423153915E-03 -1.026964188E-02 2.575198625E-01
 8.023660630E-03 -1.130372472E-02 1.783342688E-01
 1.002462674E-02 -1.247887313E-02 1.330031158E-01
 1.232052222E-02 -1.370317396E-02 7.547641185E-02
 1.548393629E-02 -1.522359997E-02 2.669491916E-02
 1.831352338E-02 -1.645684801E-02 -2.515998919E-02
 2.196387202E-02 -1.790547371E-02 -5.149793338E-02
 2.718855813E-02 -1.977805421E-02 -8.251557481E-02
 3.282804042E-02 -2.158537321E-02 -1.197173285E-01
 3.968279064E-02 -2.356361598E-02 -1.376138651E-01
 4.719539732E-02 -2.551664598E-02 -1.590581828E-01
 5.591362342E-02 -2.756976523E-02 -1.733330246E-01
 6.457473338E-02 -2.942486852E-02 -1.891837303E-01
 7.449751347E-02 -3.138207644E-02 -1.978144715E-01
 8.447972685E-02 -3.319683671E-02 -2.061768692E-01
 9.477300942E-02 -3.494551405E-02 -2.173685374E-01
 1.058023721E-01 -3.668788075E-02 -2.256982571E-01
 1.171526238E-01 -3.836295381E-02 -2.339806172E-01
 1.288839281E-01 -3.999025375E-02 -2.442705300E-01
 1.397586018E-01 -4.140245169E-02 -2.515620639E-01
 1.508590430E-01 -4.276849702E-02 -2.609987189E-01
 1.630333662E-01 -4.418132454E-02 -2.707637004E-01
 1.747966111E-01 -4.546019435E-02 -2.793379223E-01
 1.868763268E-01 -4.669803753E-02 -2.895548834E-01
 1.976974308E-01 -4.774031788E-02 -2.996554523E-01
 2.091377079E-01 -4.877025262E-02 -3.078769358E-01
 2.216777503E-01 -4.982854798E-02 -3.197960244E-01
 2.344062030E-01 -5.080525205E-02 -3.265115329E-01
 2.469455898E-01 -5.170331150E-02 -3.416780899E-01
 2.594910860E-01 -5.250337347E-02 -3.503649262E-01
 2.708744407E-01 -5.315089226E-02 -3.588588944E-01
 2.837985456E-01 -5.380272120E-02 -3.686668015E-01
 2.962748110E-01 -5.433757603E-02 -3.782419394E-01
 3.092972636E-01 -5.479168519E-02 -3.858052666E-01
 3.213516176E-01 -5.511919782E-02 -3.946834579E-01
 3.340140581E-01 -5.535425991E-02 -3.996064057E-01
 3.450928032E-01 -5.547275022E-02 -4.069297628E-01
 3.566358685E-01 -5.550369993E-02 -4.136465088E-01
 3.674651384E-01 -5.540563166E-02 -4.040221314E-01
 3.785279095E-01 -5.525099486E-02 -4.120473767E-01
 3.902440071E-01 -5.496104062E-02 -4.051155124E-01
 4.032120407E-01 -5.450776219E-02 -3.946330458E-01
 4.159239829E-01 -5.396155268E-02 -3.945500850E-01
 4.287950695E-01 -5.324817821E-02 -3.798454067E-01
 4.410687387E-01 -5.242761225E-02 -3.598898693E-01
 4.530672729E-01 -5.152668059E-02 -3.440982662E-01
 4.649026096E-01 -5.053670332E-02 -3.256463245E-01
 4.771814346E-01 -4.940299317E-02 -3.033225785E-01
 4.887164533E-01 -4.825321957E-02 -2.833554188E-01
 5.011222959E-01 -4.691666737E-02 -2.554122806E-01
 5.147123933E-01 -4.536128417E-02 -2.259109268E-01
 5.279394388E-01 -4.378351942E-02 -2.024357614E-01
 5.412197113E-01 -4.211388528E-02 -1.723117566E-01
 5.536696911E-01 -4.050365835E-02 -1.473879700E-01
 5.669057369E-01 -3.875823319E-02 -1.244491615E-01
 5.794905424E-01 -3.703926504E-02 -9.440859000E-02
 5.916211009E-01 -3.539443016E-02 -7.937544740E-02
 6.039696336E-01 -3.366813064E-02 -5.087213436E-02
 6.180340052E-01 -3.172108158E-02 -2.983446691E-02
 6.324927211E-01 -2.973160334E-02 -1.310207781E-02
 6.468282342E-01 -2.770940028E-02 1.474088078E-02
 6.597479582E-01 -2.590801567E-02 3.356514072E-02
 6.730147600E-01 -2.407661453E-02 5.069713795E-02
 6.853154302E-01 -2.239010669E-02 6.637764649E-02
 6.975179911E-01 -2.071624435E-02 8.531334658E-02
 7.117055058E-01 -1.878847927E-02 1.066838613E-01
 7.246346474E-01 -1.709390990E-02 1.171207112E-01
 7.366304398E-01 -1.552122179E-02 1.346478631E-01
 7.494961619E-01 -1.384968217E-02 1.546671855E-01
 7.618209124E-01 -1.230794657E-02 1.684029515E-01
 7.749029994E-01 -1.071128342E-02 1.847306499E-01
 7.867590785E-01 -9.331245907E-03 1.940102421E-01
 7.995589375E-01 -7.857168093E-03 2.118028683E-01
 8.102284074E-01 -6.659634411E-03 2.300514670E-01
 8.218001127E-01 -5.438872147E-03 2.434324014E-01
 8.349620104E-01 -4.170898814E-03 2.509492904E-01
 8.473921418E-01 -3.015540540E-03 2.695338728E-01
 8.596125245E-01 -2.001614776E-03 2.785202547E-01
 8.711749315E-01 -1.120569301E-03 2.916388817E-01
 8.829512000E-01 -3.379011468E-04 3.012775873E-01
 8.962179422E-01 3.863137390E-04 3.070569728E-01
 9.068333507E-01 8.396363701E-04 3.099789615E-01
 9.174019694E-01 1.199712860E-03 3.131217773E-01
 9.269695878E-01 1.432723599E-03 3.142615833E-01
 9.358920455E-01 1.570949913E-03 3.167510262E-01
 9.479750395E-01 1.641271170E-03 3.130005451E-01
 9.609544873E-01 1.577988383E-03 3.116205903E-01
 9.755805135E-01 1.338078640E-03 3.122484822E-01
 9.878084660E-01 9.848879417E-04 3.187262293E-01
 -5.000000000E-01 -1.000000000E+00 1.316345544E-02
 3.500000000E+00 -1.000000000E+00 7.843170790E-03
 3.500000000E+00 1.000000000E+00 -2.167351058E-02
 -5.000000000E-01 1.000000000E+00 -1.035969695E-03
 9.936511219E-01 1.660499576E-03 3.003395486E-01
 9.810173810E-01 4.033968784E-03 1.516022401E-01
 9.659149945E-01 6.832369138E-03 9.429815279E-02
 9.494678378E-01 9.849768598E-03 5.403684681E-02
 9.339548945E-01 1.273046248E-02 1.257385148E-02
 9.201783836E-01 1.529353578E-02 -1.976872627E-02
 9.079311192E-01 1.756247040E-02 -5.474987104E-02
 8.956762254E-01 1.979517657E-02 -8.322377315E-02
 8.834522665E-01 2.195043862E-02 -1.011014893E-01
 8.709836602E-01 2.410466224E-02 -1.191504097E-01
 8.585214615E-01 2.623569313E-02 -1.405425427E-01
 8.463460505E-01 2.829442173E-02 -1.693830776E-01
 8.348366320E-01 3.018007893E-02 -1.825477169E-01
 8.236019313E-01 3.196072392E-02 -1.931384291E-01
 8.116844594E-01 3.382759914E-02 -2.109688255E-01
 7.992355227E-01 3.573427908E-02 -2.245472096E-01
 7.868128717E-01 3.759186529E-02 -2.341685915E-01
 7.747668624E-01 3.938125819E-02 -2.570685241E-01
 7.630530596E-01 4.108675011E-02 -2.710574070E-01
 7.508320510E-01 4.281310178E-02 -2.850344347E-01
 7.377728522E-01 4.462196864E-02 -2.999565541E-01
 7.259118557E-01 4.623342119E-02 -3.184288621E-01
 7.152565420E-01 4.764932953E-02 -3.382974502E-01
 7.040389478E-01 4.908320308E-02 -3.470652238E-01
 6.916137934E-01 5.061817355E-02 -3.606410926E-01
 6.785219014E-01 5.219226331E-02 -3.786896104E-01
 6.564111710E-01 5.471572280E-02 -4.083540266E-01
 6.448716521E-01 5.596495047E-02 -4.234667289E-01
 6.332497895E-01 5.715241842E-02 -4.332074223E-01
 6.218155622E-01 5.827092752E-02 -4.524803661E-01
 6.107713282E-01 5.928410031E-02 -4.573253642E-01
 5.993012190E-01 6.027029455E-02 -4.676510848E-01
 5.874991119E-01 6.123536453E-02 -4.841691105E-01
 5.751742423E-01 6.215138175E-02 -4.854728343E-01
 5.625100732E-01 6.302553043E-02 -5.010889143E-01
 5.504090488E-01 6.378176808E-02 -5.031293903E-01
 5.389717519E-01 6.442470849E-02 -5.116385389E-01
 5.279011726E-01 6.498860940E-02 -5.195730052E-01
 5.161144137E-01 6.550464779E-02 -5.165736171E-01
 5.044512600E-01 6.595164165E-02 -5.232543642E-01
 4.923939407E-01 6.634153426E-02 -5.251226661E-01
 4.792250842E-01 6.667661294E-02 -5.241064672E-01
 4.655854553E-01 6.693043187E-02 -5.210035104E-01
 4.520558715E-01 6.710032001E-02 -5.226988359E-01
 4.390931726E-01 6.717512757E-02 -5.163183137E-01
 4.263934195E-01 6.717478484E-02 -5.151508216E-01
 4.138877243E-01 6.710885465E-02 -5.118999802E-01
 4.015326053E-01 6.697328389E-02 -5.091730488E-01
 3.892261684E-01 6.677343696E-02 -5.066641665E-01
 3.772837967E-01 6.651192904E-02 -5.008669312E-01
 3.651109338E-01 6.618346646E-02 -4.981300293E-01
 3.524350673E-01 6.577770784E-02 -4.955350169E-01
 3.396043777E-01 6.528511643E-02 -4.847847330E-01
 3.275395930E-01 6.476823613E-02 -4.853951231E-01
 3.156932741E-01 6.419968233E-02 -4.815669098E-01
 3.027437329E-01 6.349851564E-02 -4.750588530E-01
 2.891264111E-01 6.267690845E-02 -4.648635178E-01
 2.760711908E-01 6.182198413E-02 -4.629486092E-01
 2.640535533E-01 6.096444651E-02 -4.571271304E-01
 2.519027591E-01 6.002335437E-02 -4.514036323E-01
 2.394593433E-01 5.898668244E-02 -4.457217159E-01
 2.271137461E-01 5.787714757E-02 -4.396551642E-01
 2.150747702E-01 5.671257898E-02 -4.301649025E-01
 2.032753602E-01 5.549589358E-02 -4.230381730E-01
 1.911558285E-01 5.416766182E-02 -4.165556196E-01
 1.789090857E-01 5.273519643E-02 -4.075730605E-01
 1.671441346E-01 5.126659386E-02 -3.990868858E-01
 1.553621441E-01 4.970395565E-02 -3.904617809E-01
 1.439867541E-01 4.809861816E-02 -3.807740290E-01
 1.327019259E-01 4.640233330E-02 -3.710153776E-01
 1.210601591E-01 4.454263300E-02 -3.596583432E-01
 1.100636050E-01 4.266323708E-02 -3.493373622E-01
 8.949170634E-02 3.878956661E-02 -3.217953031E-01
 7.824366167E-02 3.644055873E-02 -3.037203900E-01
 6.953612342E-02 -3.040347248E-02 -1.945321312E-01
 7.948862016E-02 -3.228945658E-02 -2.037525956E-01
 8.962636814E-02 -3.407117538E-02 -2.121435638E-01
 1.002876908E-01 -3.581669740E-02 -2.216883105E-01
 1.114774980E-01 -3.752541728E-02 -2.301098557E-01
 1.230182759E-01 -3.917660378E-02 -2.390943121E-01
 1.343212649E-01 -4.069635272E-02 -2.495583526E-01
 1.453088224E-01 -4.208547436E-02 -2.559165514E-01
 1.569462046E-01 -4.347491078E-02 -2.649534135E-01
 1.689149886E-01 -4.482075945E-02 -2.758659376E-01
 1.808364689E-01 -4.607911594E-02 -2.841291281E-01
 1.922868788E-01 -4.721917771E-02 -2.955380348E-01
 2.034175694E-01 -4.825528525E-02 -3.035132404E-01
 2.154077291E-01 -4.929940030E-02 -3.126429541E-01
 2.280419767E-01 -5.031690001E-02 -3.240345463E-01
 2.406758964E-01 -5.125428177E-02 -3.330828800E-01
 2.532183379E-01 -5.210334249E-02 -3.464649850E-01
 2.651827633E-01 -5.282713287E-02 -3.554259544E-01
 2.773364931E-01 -5.347680673E-02 -3.622630896E-01
 2.900366783E-01 -5.407014862E-02 -3.736570558E-01
 3.027860373E-01 -5.456463061E-02 -3.815675499E-01
 3.153244406E-01 -5.495544150E-02 -3.906736726E-01
 3.276828378E-01 -5.523672886E-02 -3.970796861E-01
 3.395534307E-01 -5.541350506E-02 -4.042615797E-01
 3.508643359E-01 -5.548822507E-02 -4.093321318E-01
 3.620505035E-01 -5.545466579E-02 -4.126363422E-01
 3.729965240E-01 -5.532831326E-02 -4.048110516E-01
 3.843859583E-01 -5.510601774E-02 -4.094535783E-01
 3.967280239E-01 -5.473440140E-02 -3.996407561E-01
 4.095680118E-01 -5.423465744E-02 -3.929369835E-01
 4.223595262E-01 -5.360486545E-02 -3.889075524E-01
 4.349319041E-01 -5.283789523E-02 -3.719462492E-01
 4.470680058E-01 -5.197714642E-02 -3.520087691E-01
 4.589849412E-01 -5.103169195E-02 -3.354037160E-01
 4.710420221E-01 -4.996984825E-02 -3.152159609E-01
 4.829489440E-01 -4.882810637E-02 -2.937430658E-01
 4.949193746E-01 -4.758494347E-02 -2.703126925E-01
 5.079173446E-01 -4.613897577E-02 -2.408725413E-01
 5.213259161E-01 -4.457240179E-02 -2.140211097E-01
 5.345795751E-01 -4.294870235E-02 -1.884730469E-01
 5.474447012E-01 -4.130877182E-02 -1.599809396E-01
 5.602877140E-01 -3.963094577E-02 -1.354914452E-01
 5.731981397E-01 -3.789874911E-02 -1.113704021E-01
 5.855558217E-01 -3.621684760E-02 -8.540847069E-02
 5.977953672E-01 -3.453128040E-02 -6.698668706E-02
 6.110018194E-01 -3.269460611E-02 -3.968519643E-02
 6.252633631E-01 -3.072634246E-02 -2.041729234E-02
 6.396604776E-01 -2.872050181E-02 -1.229433715E-03
 6.532880962E-01 -2.680870797E-02 2.465795531E-02
 6.663813591E-01 -2.499231510E-02 4.245749241E-02
 6.791650951E-01 -2.323336061E-02 5.885229996E-02
 6.914167106E-01 -2.155317552E-02 7.493702295E-02
 7.046117485E-01 -1.975236181E-02 9.491145395E-02
 7.181700766E-01 -1.794119459E-02 1.139845853E-01
 7.306325436E-01 -1.630756585E-02 1.253225662E-01
 7.430633008E-01 -1.468545198E-02 1.434519943E-01
 7.556585371E-01 -1.307881437E-02 1.617583521E-01
 7.683619559E-01 -1.150961500E-02 1.761819605E-01
 7.808310390E-01 -1.002126466E-02 1.911570586E-01
 7.931590080E-01 -8.594207000E-03 2.014782845E-01
 8.048936725E-01 -7.258401252E-03 2.204797934E-01
 8.160142601E-01 -6.049253279E-03 2.362834712E-01
 8.283810616E-01 -4.804885481E-03 2.478822892E-01
 8.411770761E-01 -3.593219677E-03 2.587100719E-01
 8.535023332E-01 -2.508577658E-03 2.747912389E-01
 8.653937280E-01 -1.561092038E-03 2.843371564E-01
 8.770630658E-01 -7.292352238E-04 2.958524719E-01
 8.895845711E-01 2.420629608E-05 3.037978418E-01
 9.015256464E-01 6.129750545E-04 3.114805002E-01
 9.121176600E-01 1.019674615E-03 3.119551448E-01
 9.419335425E-01 1.606110542E-03 3.129704085E-01
 9.544647634E-01 1.609629777E-03 3.114280995E-01
 9.682675004E-01 1.458033512E-03 3.101755890E-01
 9.816944897E-01 1.161483291E-03 3.168750555E-01
 9.938202202E-01 7.463763759E-04 3.700248907E-01
 -5.000000000E-01 9.500000000E-01 -1.282679996E-03
 -5.000000000E-01 9.000000000E-01 -1.215586821E-03
 -5.000000000E-01 8.500000000E-01 -4.319700458E-04
 -5.000000000E-01 8.000000000E-01 1.073546619E-03
 -5.000000000E-01 7.500000000E-01 3.285199710E-03
 -5.000000000E-01 7.000000000E-01 6.265995755E-03
 -5.000000000E-01 6.500000000E-01 1.008066215E-02
 -5.000000000E-01 6.000000000E-01 1.467629140E-02
 -5.000000000E-01 5.500000000E-01 2.016691447E-02
 -5.000000000E-01 5.000000000E-01 2.646071285E-02
 -5.000000000E-01 4.500000000E-01 3.356799628E-02
 -5.000000000E-01 4.000000000E-01 4.128141646E-02
 -5.000000000E-01 3.500000000E-01 4.969156332E-02
 -5.000000000E-01 3.000000000E-01 5.816946796E-02
 -5.000000000E-01 2.500000000E-01 6.687165732E-02
 -5.000000000E-01 2.000000000E-01 7.513683352E-02
 -5.000000000E-01 1.500000000E-01 8.258594214E-02
 -5.000000000E-01 1.000000000E-01 8.893746669E-02
 -5.000000000E-01 5.000000000E-02 9.385591222E-02
 -5.000000000E-01 2.752242878E-12 9.702395887E-02
 -5.000000000E-01 -5.000000000E-02 9.827013480E-02
 -5.000000000E-01 -1.000000000E-01 9.768680591E-02
 -5.000000000E-01 -1.500000000E-01 9.544359147E-02
 -5.000000000E-01 -2.000000000E-01 9.190124750E-02
 -5.000000000E-01 -2.500000000E-01 8.718444554E-02
 -5.000000000E-01 -3.000000000E-01 8.184721712E-02
 -5.000000000E-01 -3.500000000E-01 7.619315594E-02
 -5.000000000E-01 -4.000000000E-01 7.024446688E-02
 -5.000000000E-01 -4.500000000E-01 6.452336804E-02
 -5.000000000E-01 -5.000000000E-01 5.894866102E-02
 -5.000000000E-01 -5.500000000E-01 5.374861300E-02
 -5.000000000E-01 -6.000000000E-01 4.881758340E-02
 -5.000000000E-01 -6.500000000E-01 4.430518850E-02
 -5.000000000E-01 -7.000000000E-01 4.004043579E-02
 -5.000000000E-01 -7.500000000E-01 3.615374898E-02
 -5.000000000E-01 -8.000000000E-01 3.232441377E-02
 -5.000000000E-01 -8.500000000E-01 2.857776335E-02
 -5.000000000E-01 -9.000000000E-01 2.425059416E-02
 -5.000000000E-01 -9.500000000E-01 1.806540518E-02
 -4.500000000E-01 -1.000000000E+00 1.654909832E-02
 -4.000000000E-01 -1.000000000E+00 2.140086312E-02
 -3.500000000E-01 -1.000000000E+00 2.372401970E-02
 -3.000000000E-01 -1.000000000E+00 2.487685645E-02
 -2.500000000E-01 -1.000000000E+00 2.525577321E-02
 -2.000000000E-01 -1.000000000E+00 2.496292614E-02
 -1.500000000E-01 -1.000000000E+00 2.391876992E-02
 -1.000000000E-01 -1.000000000E+00 2.227631262E-02
 -5.000000000E-02 -1.000000000E+00 2.013146102E-02
 -9.424683256E-13 -1.000000000E+00 1.756679393E-02
 5.000000000E-02 -1.000000000E+00 1.468502699E-02
 1.000000000E-01 -1.000000000E+00 1.162691858E-02
 1.500000000E-01 -1.000000000E+00 8.542581615E-03
 2.000000000E-01 -1.000000000E+00 5.538953297E-03
 2.500000000E-01 -1.000000000E+00 2.731676591E-03
 3.000000000E-01 -1.000000000E+00 3.403208811E-04
 3.500000000E-01 -1.000000000E+00 -1.555564670E-03
 4.000000000E-01 -1.000000000E+00 -2.813285976E-03
 4.500000000E-01 -1.000000000E+00 -3.453162250E-03
 5.000000000E-01 -1.000000000E+00 -3.390910887E-03
 5.500000000E-01 -1.000000000E+00 -2.632674096E-03
 6.000000000E-01 -1.000000000E+00 -1.264840089E-03
 6.500000000E-01 -1.000000000E+00 6.541723387E-04
 7.000000000E-01 -1.000000000E+00 3.132422311E-03
 7.500000000E-01 -1.000000000E+00 5.932110266E-03
 8.000000000E-01 -1.000000000E+00 8.971719925E-03
 8.500000000E-01 -1.000000000E+00 1.214275100E-02
 9.000000000E-01 -1.000000000E+00 1.529989512E-02
 9.500000000E-01 -1.000000000E+00 1.836367960E-02
 1.000000000E+00 -1.000000000E+00 2.128349602E-02
 1.050000000E+00 -1.000000000E+00 2.388685502E-02
 1.100000000E+00 -1.000000000E+00 2.618874960E-02
 1.150000000E+00 -1.000000000E+00 2.820848606E-02
 1.200000000E+00 -1.000000000E+00 2.985877987E-02
 1.250000000E+00 -1.000000000E+00 3.120302305E-02
 1.300000000E+00 -1.000000000E+00 3.223505824E-02
 1.350000000E+00 -1.000000000E+00 3.291980858E-02
 1.400000000E+00 -1.000000000E+00 3.339811209E-02
 1.450000000E+00 -1.000000000E+00 3.356588879E-02
 1.500000000E+00 -1.000000000E+00 3.355789136E-02
 1.550000000E+00 -1.000000000E+00 3.335700100E-02
 1.600000000E+00 -1.000000000E+00 3.300890763E-02
 1.650000000E+00 -1.000000000E+00 3.253243622E-02
 1.700000000E+00 -1.000000000E+00 3.196847874E-02
 1.750000000E+00 -1.000000000E+00 3.133247902E-02
 1.800000000E+00 -1.000000000E+00 3.063943471E-02
 1.850000000E+00 -1.000000000E+00 2.990369864E-02
 1.900000000E+00 -1.000000000E+00 2.916125142E-02
 1.950000000E+00 -1.000000000E+00 2.839035955E-02
 2.000000000E+00 -1.000000000E+00 2.764169155E-02
 2.050000000E+00 -1.000000000E+00 2.687158337E-02
 2.100000000E+00 -1.000000000E+00 2.614338010E-02
 2.150000000E+00 -1.000000000E+00 2.543946951E-02
 2.200000000E+00 -1.000000000E+00 2.475366728E-02
 2.250000000E+00 -1.000000000E+00 2.410778612E-02
 2.300000000E+00 -1.000000000E+00 2.346101115E-02
 2.350000000E+00 -1.000000000E+00 2.288621122E-02
 2.400000000E+00 -1.000000000E+00 2.238040518E-02
 2.450000000E+00 -1.000000000E+00 2.180703412E-02
 2.500000000E+00 -1.000000000E+00 2.138273353E-02
 2.550000000E+00 -1.000000000E+00 2.091147718E-02
 2.600000000E+00 -1.000000000E+00 2.049603279E-02
 2.650000000E+00 -1.000000000E+00 2.014756350E-02
 2.700000000E+00 -1.000000000E+00 1.981170884E-02
 2.750000000E+00 -1.000000000E+00 1.948635124E-02
 2.800000000E+00 -1.000000000E+00 1.922034939E-02
 2.850000000E+00 -1.000000000E+00 1.895678048E-02
 2.900000000E+00 -1.000000000E+00 1.870789155E-02
 2.950000000E+00 -1.000000000E+00 1.844921737E-02
 3.000000000E+00 -1.000000000E+00 1.822326451E-02
 3.050000000E+00 -1.000000000E+00 1.795672744E-02
 3.100000000E+00 -1.000000000E+00 1.768321160E-02
 3.150000000E+00 -1.000000000E+00 1.733486492E-02
 3.200000000E+00 -1.000000000E+00 1.690181890E-02
 3.250000000E+00 -1.000000000E+00 1.636954158E-02
 3.300000000E+00 -1.000000000E+00 1.565878707E-02
 3.350000000E+00 -1.000000000E+00 1.468027239E-02
 3.400000000E+00 -1.000000000E+00 1.316204738E-02
 3.450000000E+00 -1.000000000E+00 1.065382986E-02
 3.500000000E+00 -9.500000000E-01 7.115490664E-03
 3.500000000E+00 -9.000000000E-01 8.427546868E-03
 3.500000000E+00 -8.500000000E-01 9.945259926E-03
 3.500000000E+00 -8.000000000E-01 1.131573365E-02
 3.500000000E+00 -7.500000000E-01 1.259623102E-02
 3.500000000E+00 -7.000000000E-01 1.407587053E-02
 3.500000000E+00 -6.500000000E-01 1.557644262E-02
 3.500000000E+00 -6.000000000E-01 1.712514692E-02
 3.500000000E+00 -5.500000000E-01 1.880756305E-02
 3.500000000E+00 -5.000000000E-01 2.063631306E-02
 3.500000000E+00 -4.500000000E-01 2.255216948E-02
 3.500000000E+00 -4.000000000E-01 2.466183575E-02
 3.500000000E+00 -3.500000000E-01 2.678553384E-02
 3.500000000E+00 -3.000000000E-01 2.879861846E-02
 3.500000000E+00 -2.500000000E-01 3.028544270E-02
 3.500000000E+00 -2.000000000E-01 3.099377586E-02
 3.500000000E+00 -1.500000000E-01 3.031334873E-02
 3.500000000E+00 -1.000000000E-01 2.929174243E-02
 3.500000000E+00 -5.000000000E-02 2.831592663E-02
 3.500000000E+00 -2.752242878E-12 2.775883808E-02
 3.500000000E+00 5.000000000E-02 2.746090586E-02
 3.500000000E+00 1.000000000E-01 2.694320682E-02
 3.500000000E+00 1.500000000E-01 2.565039778E-02
 3.500000000E+00 2.000000000E-01 2.324794863E-02
 3.500000000E+00 2.500000000E-01 2.037208646E-02
 3.500000000E+00 3.000000000E-01 1.728215620E-02
 3.500000000E+00 3.500000000E-01 1.436376012E-02
 3.500000000E+00 4.000000000E-01 1.170283464E-02
 3.500000000E+00 4.500000000E-01 9.246303333E-03
 3.500000000E+00 5.000000000E-01 6.960711856E-03
 3.500000000E+00 5.500000000E-01 5.108292909E-03
 3.500000000E+00 6.000000000E-01 3.838842006E-03
 3.500000000E+00 6.500000000E-01 3.348034063E-03
 3.500000000E+00 7.000000000E-01 3.219341503E-03
 3.500000000E+00 7.500000000E-01 2.527229596E-03
 3.500000000E+00 8.000000000E-01 1.953464728E-04
 3.500000000E+00 8.500000000E-01 -5.012049091E-03
 3.500000000E+00 9.000000000E-01 -1.234519719E-02
 3.500000000E+00 9.500000000E-01 -2.151406421E-02
 3.450000000E+00 1.000000000E+00 -1.309827170E-02
 3.400000000E+00 1.000000000E+00 -5.846180372E-03
 3.350000000E+00 1.000000000E+00 -2.307833620E-03
 3.300000000E+00 1.000000000E+00 -5.550636132E-04
 3.250000000E+00 1.000000000E+00 1.306973807E-04
 3.200000000E+00 1.000000000E+00 7.319362276E-04
 3.150000000E+00 1.000000000E+00 8.916596029E-04
 3.100000000E+00 1.000000000E+00 7.899405396E-04
 3.050000000E+00 1.000000000E+00 6.547417617E-04
 3.000000000E+00 1.000000000E+00 2.735422867E-04
 2.950000000E+00 1.000000000E+00 1.868757542E-04
 2.900000000E+00 1.000000000E+00 -6.474618675E-04
 2.850000000E+00 1.000000000E+00 -9.964362842E-04
 2.800000000E+00 1.000000000E+00 -1.809982345E-03
 2.750000000E+00 1.000000000E+00 -2.578828270E-03
 2.700000000E+00 1.000000000E+00 -3.316458771E-03
 2.650000000E+00 1.000000000E+00 -4.256215077E-03
 2.600000000E+00 1.000000000E+00 -5.230095963E-03
 2.550000000E+00 1.000000000E+00 -6.187471011E-03
 2.500000000E+00 1.000000000E+00 -7.396826084E-03
 2.450000000E+00 1.000000000E+00 -8.495528393E-03
 2.400000000E+00 1.000000000E+00 -9.656815271E-03
 2.350000000E+00 1.000000000E+00 -1.096670763E-02
 2.300000000E+00 1.000000000E+00 -1.238772840E-02
 2.250000000E+00 1.000000000E+00 -1.382393619E-02
 2.200000000E+00 1.000000000E+00 -1.540839587E-02
 2.150000000E+00 1.000000000E+00 -1.710448053E-02
 2.100000000E+00 1.000000000E+00 -1.889898090E-02
 2.050000000E+00 1.000000000E+00 -2.088075955E-02
 2.000000000E+00 1.000000000E+00 -2.294855283E-02
 1.950000000E+00 1.000000000E+00 -2.510337931E-02
 1.900000000E+00 1.000000000E+00 -2.756384740E-02
 1.850000000E+00 1.000000000E+00 -3.011751165E-02
 1.800000000E+00 1.000000000E+00 -3.296932132E-02
 1.750000000E+00 1.000000000E+00 -3.595118288E-02
 1.700000000E+00 1.000000000E+00 -3.917925153E-02
 1.650000000E+00 1.000000000E+00 -4.231410027E-02
 1.600000000E+00 1.000000000E+00 -4.610639487E-02
 1.550000000E+00 1.000000000E+00 -4.980741679E-02
 1.500000000E+00 1.000000000E+00 -5.450586323E-02
 1.450000000E+00 1.000000000E+00 -5.869936509E-02
 1.400000000E+00 1.000000000E+00 -6.329782558E-02
 1.350000000E+00 1.000000000E+00 -6.836337174E-02
 1.300000000E+00 1.000000000E+00 -7.266861704E-02
 1.250000000E+00 1.000000000E+00 -7.891770329E-02
 1.200000000E+00 1.000000000E+00 -8.380445875E-02
 1.150000000E+00 1.000000000E+00 -8.934656211E-02
 1.100000000E+00 1.000000000E+00 -9.486766961E-02
 1.050000000E+00 1.000000000E+00 -9.956696200E-02
 1.000000000E+00 1.000000000E+00 -1.051906836E-01
 9.500000000E-01 1.000000000E+00 -1.086830824E-01
 9.000000000E-01 1.000000000E+00 -1.133496345E-01
 8.500000000E-01 1.000000000E+00 -1.158414922E-01
 8.000000000E-01 1.000000000E+00 -1.188254724E-01
 7.500000000E-01 1.000000000E+00 -1.194564980E-01
 7.000000000E-01 1.000000000E+00 -1.199635761E-01
 6.500000000E-01 1.000000000E+00 -1.191354961E-01
 6.000000000E-01 1.000000000E+00 -1.172168913E-01
 5.500000000E-01 1.000000000E+00 -1.138657712E-01
 5.000000000E-01 1.000000000E+00 -1.096438479E-01
 4.500000000E-01 1.000000000E+00 -1.042861678E-01
 4.000000000E-01 1.000000000E+00 -9.775277895E-02
 3.500000000E-01 1.000000000E+00 -9.149697985E-02
 3.000000000E-01 1.000000000E+00 -8.321648404E-02
 2.500000000E-01 1.000000000E+00 -7.569750917E-02
 2.000000000E-01 1.000000000E+00 -6.722180123E-02
 1.500000000E-01 1.000000000E+00 -5.910940502E-02
 1.000000000E-01 1.000000000E+00 -5.068271063E-02
 5.000000000E-02 1.000000000E+00 -4.324069556E-02
 1.733724275E-12 1.000000000E+00 -3.556940572E-02
 -5.000000000E-02 1.000000000E+00 -2.909328952E-02
 -1.000000000E-01 1.000000000E+00 -2.287202687E-02
 -1.500000000E-01 1.000000000E+00 -1.763794429E-02
 -2.000000000E-01 1.000000000E+00 -1.308409458E-02
 -2.500000000E-01 1.000000000E+00 -9.289147342E-03
 -3.000000000E-01 1.000000000E+00 -6.399558881E-03
 -3.500000000E-01 1.000000000E+00 -4.102011947E-03
 -4.000000000E-01 1.000000000E+00 -2.568767950E-03
 -4.500000000E-01 1.000000000E+00 -1.474236338E-03
 1.973710485E+00 -9.540471593E-01 2.766619637E-02
 1.977885754E+00 9.493497848E-01 -2.270684132E-02
 9.104494481E-01 -3.300629915E-03 3.056144028E-01
 8.320557037E-01 -9.869679950E-03 2.450110012E-01
 7.536122797E-01 -1.888956074E-02 1.555387888E-01
 9.904233092E-01 -3.990281050E-03 2.952303859E-01
 6.829676328E-01 -2.811686228E-02 6.201640977E-02
 6.150359821E-01 -3.743457670E-02 -3.578579269E-02
 5.458302240E-01 -4.820381379E-02 -1.606968189E-01
 4.805841090E-01 -5.391292433E-02 -2.904536261E-01
 4.258693082E-01 -5.911169631E-02 -3.710772901E-01
 3.647385170E-01 -6.009107645E-02 -3.987358296E-01
 3.121270365E-01 -6.014335890E-02 -3.791781722E-01