TITLE     = "Visualization of the solution"
VARIABLES = "x"
"y"
"Pressure_Coefficient"
ZONE T="Zone"
 STRANDID=0, SOLUTIONTIME=0
 Nodes=12376, Elements=24170, ZONETYPE=FEQuadrilateral
 DATAPACKING=POINT
 DT=(DOUBLE DOUBLE DOUBLE )
 9.996551871E-01 5.066946032E-04 2.505236558E-01
 9.865024090E-01 3.042608732E-03 1.596807480E-01
 9.730377793E-01 5.560613237E-03 1.072423615E-01
 9.563602209E-01 8.710504510E-03 5.782209151E-02
 9.410789013E-01 1.158561185E-02 2.311444608E-02
 9.269246459E-01 1.428855956E-02 -2.090183176E-02
 9.149051309E-01 1.651764475E-02 -4.478775461E-02
 9.023765326E-01 1.881002821E-02 -6.684173119E-02
 8.902213573E-01 2.102319896E-02 -8.724838814E-02
 8.781216741E-01 2.324664406E-02 -1.257510302E-01
 8.656486273E-01 2.542970888E-02 -1.482407700E-01
 8.529298306E-01 2.755724825E-02 -1.462265541E-01
 8.409986496E-01 2.962740324E-02 -1.875437112E-01
 8.296135664E-01 3.147802502E-02 -1.938439683E-01
 8.180404902E-01 3.334737569E-02 -2.090193318E-01
 8.057341576E-01 3.530254215E-02 -2.295103544E-01
 7.930800319E-01 3.723980486E-02 -2.389300574E-01
 7.810789347E-01 3.905940056E-02 -2.507320116E-01
 7.692097425E-01 4.086028412E-02 -2.811933099E-01
 7.575283051E-01 4.252219945E-02 -2.808929462E-01
 7.449344993E-01 4.432671145E-02 -3.000927198E-01
 7.317339778E-01 4.617052525E-02 -3.189276025E-01
 7.213603854E-01 4.758564755E-02 -3.341909388E-01
 7.104759216E-01 4.903067276E-02 -3.469549134E-01
 6.991671324E-01 5.049908534E-02 -3.640283035E-01
 6.860474944E-01 5.213436484E-02 -3.780350158E-01
 6.734983325E-01 5.365031585E-02 -3.969403516E-01
 6.633244753E-01 5.482281744E-02 -4.036208221E-01
 6.519768238E-01 5.610627308E-02 -4.204746119E-01
 6.408367157E-01 5.731920153E-02 -4.364972534E-01
 6.293443441E-01 5.850917846E-02 -4.555978728E-01
 6.179473400E-01 5.958705768E-02 -4.495129012E-01
 6.075271368E-01 6.058204919E-02 -4.712829442E-01
 5.955231786E-01 6.164653599E-02 -4.861719919E-01
 5.840353370E-01 6.258895993E-02 -4.952716180E-01
 5.707270503E-01 6.359188259E-02 -5.025216216E-01
 5.583207607E-01 6.445954740E-02 -5.146515719E-01
 5.460288525E-01 6.523115933E-02 -5.224733666E-01
 5.350223780E-01 6.584811211E-02 -5.232813158E-01
 5.234150887E-01 6.644946337E-02 -5.319577194E-01
 5.108948946E-01 6.700298190E-02 -5.340735129E-01
 4.998436272E-01 6.743136793E-02 -5.369729963E-01
 4.867459834E-01 6.785188615E-02 -5.364074324E-01
 4.736214876E-01 6.819927692E-02 -5.401337904E-01
 4.596637189E-01 6.846760958E-02 -5.412457177E-01
 4.461239874E-01 6.862732768E-02 -5.380016416E-01
 4.332924485E-01 6.870234013E-02 -5.345753723E-01
 4.204493165E-01 6.871164590E-02 -5.382850513E-01
 4.079364240E-01 6.862189621E-02 -5.273116783E-01
 3.953463137E-01 6.848911941E-02 -5.312424966E-01
 3.830268681E-01 6.826528907E-02 -5.236638194E-01
 3.713994622E-01 6.800133735E-02 -5.186057492E-01
 3.582885265E-01 6.764326990E-02 -5.185879724E-01
 3.456826806E-01 6.722117215E-02 -5.156199148E-01
 3.327802420E-01 6.670838594E-02 -5.129334832E-01
 3.219625950E-01 6.620994210E-02 -5.038251616E-01
 3.095920384E-01 6.558574736E-02 -4.998325014E-01
 2.964631021E-01 6.484241784E-02 -4.920779703E-01
 2.826597393E-01 6.399151683E-02 -4.929369846E-01
 2.701227069E-01 6.311975420E-02 -4.855525156E-01
 2.582052648E-01 6.221703440E-02 -4.770783259E-01
 2.457495183E-01 6.120331585E-02 -4.718027531E-01
 2.331467271E-01 6.009261310E-02 -4.640078657E-01
 2.208050489E-01 5.892924219E-02 -4.608200140E-01
 2.088625282E-01 5.770333484E-02 -4.484198138E-01
 1.971526891E-01 5.644087493E-02 -4.452869762E-01
 1.847413927E-01 5.499318987E-02 -4.348292185E-01
 1.729601622E-01 5.353058130E-02 -4.260270136E-01
 1.613218188E-01 5.199712887E-02 -4.188605448E-01
 1.495246589E-01 5.033103749E-02 -4.086007117E-01
 1.387322843E-01 4.870919138E-02 -3.965610999E-01
 1.272093207E-01 4.687020928E-02 -3.845361288E-01
 1.159858331E-01 4.496515542E-02 -3.755407878E-01
 1.054359004E-01 4.305044934E-02 -3.603936769E-01
 9.553115070E-02 4.113699123E-02 -3.471167171E-01
 8.465697616E-02 3.889274597E-02 -3.316124180E-01
 7.313936204E-02 3.631753474E-02 -3.070786956E-01
 6.336564571E-02 3.395259380E-02 -2.892988612E-01
 5.359103158E-02 3.138587624E-02 -2.642448128E-01
 4.473835975E-02 2.884786949E-02 -2.368098164E-01
 3.727838770E-02 2.650981396E-02 -2.085315937E-01
 3.060843796E-02 2.421662025E-02 -1.739622929E-01
 2.497974597E-02 2.210140601E-02 -1.469835336E-01
 2.087446488E-02 2.041497454E-02 -1.066554781E-01
 1.691505685E-02 1.864382997E-02 -7.412701479E-02
 1.389575657E-02 1.717358083E-02 -2.691336467E-02
 1.117499638E-02 1.572180539E-02 1.255929984E-02
 9.189303964E-03 1.457525603E-02 4.997896369E-02
 7.429777645E-03 1.346940361E-02 8.509823013E-02
 5.798693281E-03 1.234588772E-02 1.605079121E-01
 3.662332427E-03 1.069232542E-02 2.604330283E-01
 1.835185685E-03 9.002430364E-03 3.575691540E-01
 3.099557944E-04 7.241842803E-03 5.920289158E-01
 -1.164504676E-03 4.790712614E-03 8.492585350E-01
 -1.780560822E-03 2.944378415E-03 9.998446332E-01
 -1.975233667E-03 1.465157489E-03 1.089615189E+00
 -1.879496849E-03 -1.858989417E-04 1.112037470E+00
 -1.431748387E-03 -1.939202426E-03 1.022696158E+00
 -4.526982084E-04 -4.010349512E-03 8.964830593E-01
 1.043881406E-03 -6.136011332E-03 7.046900693E-01
 3.131260863E-03 -8.354000747E-03 5.371136604E-01
 5.004758947E-03 -9.983265772E-03 3.855711116E-01
 7.157112472E-03 -1.160252281E-02 3.086384296E-01
 8.821899071E-03 -1.272093505E-02 2.200875635E-01
 1.091808453E-02 -1.401401125E-02 1.871971994E-01
 1.331826486E-02 -1.536311675E-02 1.198943548E-01
 1.661452278E-02 -1.704522781E-02 6.454782059E-02
 1.965275034E-02 -1.845272444E-02 6.035895788E-03
 2.358805202E-02 -2.011487260E-02 -2.850322555E-02
 2.901265770E-02 -2.218465135E-02 -6.322108341E-02
 3.481069952E-02 -2.417961881E-02 -1.075996281E-01
 4.185586050E-02 -2.637015842E-02 -1.356543813E-01
 4.952032864E-02 -2.851741947E-02 -1.614858467E-01
 5.850150809E-02 -3.080313094E-02 -1.796548918E-01
 6.731656939E-02 -3.285279870E-02 -2.031753020E-01
 7.764373720E-02 -3.505240381E-02 -2.136021862E-01
 8.771533519E-02 -3.704101965E-02 -2.320434265E-01
 9.817443043E-02 -3.894385695E-02 -2.395169054E-01
 1.093320921E-01 -4.084614664E-02 -2.532232456E-01
 1.207327768E-01 -4.265930131E-02 -2.653289445E-01
 1.323786080E-01 -4.438051954E-02 -2.736789219E-01
 1.430650949E-01 -4.587190971E-02 -2.859318798E-01
 1.542254388E-01 -4.733182490E-02 -2.938619579E-01
 1.662473232E-01 -4.881704599E-02 -3.061552602E-01
 1.779424697E-01 -5.016672239E-02 -3.170986902E-01
 1.896986961E-01 -5.143379420E-02 -3.264384877E-01
 2.003263980E-01 -5.250867084E-02 -3.371005348E-01
 2.117475271E-01 -5.358826742E-02 -3.468494413E-01
 2.241220474E-01 -5.467711389E-02 -3.602832461E-01
 2.366650850E-01 -5.567250028E-02 -3.688459545E-01
 2.488122135E-01 -5.655086413E-02 -3.796833009E-01
 2.610952854E-01 -5.734477192E-02 -3.882985321E-01
 2.721442878E-01 -5.798196793E-02 -3.980223036E-01
 2.848285139E-01 -5.862675607E-02 -4.093397600E-01
 2.971568406E-01 -5.914787203E-02 -4.200937548E-01
 3.100096285E-01 -5.956622213E-02 -4.244506598E-01
 3.216820657E-01 -5.984062329E-02 -4.271723339E-01
 3.342869878E-01 -6.004997343E-02 -4.370541975E-01
 3.450780511E-01 -6.012538821E-02 -4.420152867E-01
 3.565109372E-01 -6.009852141E-02 -4.409942609E-01
 3.674052656E-01 -5.997508019E-02 -4.401044728E-01
 3.781849146E-01 -5.975929648E-02 -4.374528516E-01
 3.897450864E-01 -5.942328647E-02 -4.333614591E-01
 4.027298391E-01 -5.890716612E-02 -4.233189457E-01
 4.150819182E-01 -5.828610435E-02 -4.118394281E-01
 4.279250801E-01 -5.750850588E-02 -3.975511478E-01
 4.402828813E-01 -5.663434416E-02 -3.815855538E-01
 4.527078867E-01 -5.563034117E-02 -3.604995936E-01
 4.646970034E-01 -5.455765873E-02 -3.411972202E-01
 4.770240486E-01 -5.333051831E-02 -3.119541679E-01
 4.886956513E-01 -5.210813135E-02 -2.945259962E-01
 5.011775494E-01 -5.068243667E-02 -2.601639595E-01
 5.149782300E-01 -4.905330762E-02 -2.375200941E-01
 5.283022523E-01 -4.738888890E-02 -2.102766220E-01
 5.413084030E-01 -4.568562657E-02 -1.793910943E-01
 5.544151068E-01 -4.392800480E-02 -1.548372414E-01
 5.675377846E-01 -4.212187231E-02 -1.288554373E-01
 5.806139112E-01 -4.029149562E-02 -1.062778810E-01
 5.928548574E-01 -3.852916136E-02 -7.807394172E-02
 6.054735780E-01 -3.671588749E-02 -5.747965706E-02
 6.194432378E-01 -3.469768912E-02 -3.455834656E-02
 6.336541176E-01 -3.261886910E-02 -7.022607600E-03
 6.481553912E-01 -3.053904325E-02 9.446088178E-03
 6.613908410E-01 -2.863703854E-02 2.719933772E-02
 6.747432947E-01 -2.670639567E-02 4.818857107E-02
 6.870804429E-01 -2.492361516E-02 6.793624017E-02
 6.993734241E-01 -2.317156643E-02 8.463906656E-02
 7.138547301E-01 -2.112771943E-02 1.041759827E-01
 7.268726826E-01 -1.931520179E-02 1.219668760E-01
 7.386925220E-01 -1.770637371E-02 1.348704848E-01
 7.516000271E-01 -1.596305147E-02 1.524743065E-01
 7.638311386E-01 -1.432469115E-02 1.732211961E-01
 7.770689130E-01 -1.264105737E-02 1.839144885E-01
 7.891052961E-01 -1.113943849E-02 1.986043312E-01
 8.016102910E-01 -9.604932740E-03 2.169064090E-01
 8.125851154E-01 -8.308688179E-03 2.329492251E-01
 8.240591288E-01 -7.018303964E-03 2.468336615E-01
 8.370925188E-01 -5.667358637E-03 2.538579587E-01
 8.492019773E-01 -4.422964994E-03 2.766165500E-01
 8.614808321E-01 -3.292077221E-03 2.870808136E-01
 8.730069399E-01 -2.324375557E-03 2.991341615E-01
 8.848180771E-01 -1.448352123E-03 3.077131823E-01
 8.978454471E-01 -6.034263060E-04 3.180215114E-01
 9.081456065E-01 -5.266432709E-05 3.243114185E-01
 9.188061357E-01 4.090477014E-04 3.269686291E-01
 9.284396172E-01 7.381934556E-04 3.302714865E-01
 9.377454519E-01 9.640284698E-04 3.337573341E-01
 9.495310783E-01 1.139303553E-03 3.340026680E-01
 9.626742005E-01 1.183468383E-03 3.350157344E-01
 9.769963026E-01 1.066617551E-03 3.428648616E-01
 9.887759686E-01 8.262587944E-04 3.623400712E-01
 -5.000000000E-01 -1.000000000E+00 1.371626476E-02
 3.500000000E+00 -1.000000000E+00 8.220764620E-03
 3.500000000E+00 1.000000000E+00 -2.320180133E-02
 -5.000000000E-01 1.000000000E+00 -9.395424889E-04
 9.930787981E-01 1.774651668E-03 2.492136444E-01
 9.797700942E-01 4.301610985E-03 1.332115338E-01
 9.646990001E-01 7.135558873E-03 7.929492929E-02
 9.487195611E-01 1.014805818E-02 3.954303597E-02
 9.340017736E-01 1.293708570E-02 -1.949575246E-03
 9.209148884E-01 1.540310215E-02 -3.319146785E-02
 9.086408317E-01 1.766383648E-02 -5.506382424E-02
 8.962989450E-01 1.991661359E-02 -7.517144996E-02
 8.841715157E-01 2.213492151E-02 -1.114629481E-01
 8.718851507E-01 2.433817647E-02 -1.384897146E-01
 8.592892289E-01 2.649347857E-02 -1.414109835E-01
 8.469642401E-01 2.859232575E-02 -1.725536293E-01
 8.353061080E-01 3.055271413E-02 -1.887776054E-01
 8.238270283E-01 3.241270036E-02 -2.012335221E-01
 8.118873239E-01 3.432495892E-02 -2.208799706E-01
 7.994070947E-01 3.627117351E-02 -2.328761176E-01
 7.870794833E-01 3.814960271E-02 -2.432764897E-01
 7.751443386E-01 3.995984234E-02 -2.705983020E-01
 7.633690238E-01 4.169124179E-02 -2.777071296E-01
 7.512314022E-01 4.342445545E-02 -2.910599146E-01
 7.383342385E-01 4.524861835E-02 -3.092601165E-01
 7.265471816E-01 4.687808640E-02 -3.270895851E-01
 7.159181535E-01 4.830816016E-02 -3.401303462E-01
 7.048215270E-01 4.976487905E-02 -3.569625134E-01
 6.926073134E-01 5.131672509E-02 -3.705693585E-01
 6.797729135E-01 5.289234035E-02 -3.878191523E-01
 6.684114039E-01 5.423656665E-02 -3.991490012E-01
 6.576506495E-01 5.546454526E-02 -4.120098092E-01
 6.464067698E-01 5.671273731E-02 -4.293103635E-01
 6.350905299E-01 5.791418999E-02 -4.493280613E-01
 6.236458421E-01 5.904811807E-02 -4.475219270E-01
 6.127372384E-01 6.008455344E-02 -4.635844895E-01
 6.015251577E-01 6.111429259E-02 -4.792479328E-01
 5.897792578E-01 6.211774796E-02 -4.921486089E-01
 5.773811936E-01 6.309042126E-02 -4.976838487E-01
 5.645239055E-01 6.402571499E-02 -5.095588666E-01
 5.521748066E-01 6.484535336E-02 -5.183409427E-01
 5.405256152E-01 6.553963572E-02 -5.215620219E-01
 5.292187333E-01 6.614878774E-02 -5.296899292E-01
 5.171549916E-01 6.672622263E-02 -5.314053406E-01
 5.053692609E-01 6.721717492E-02 -5.374610981E-01
 4.932948053E-01 6.764162704E-02 -5.360978703E-01
 4.801837355E-01 6.802558154E-02 -5.395605546E-01
 4.666426033E-01 6.833344325E-02 -5.410275677E-01
 4.528938532E-01 6.854746863E-02 -5.386970926E-01
 4.397082180E-01 6.866483390E-02 -5.353547571E-01
 4.268708825E-01 6.870699301E-02 -5.383045000E-01
 4.141928703E-01 6.866677105E-02 -5.303927823E-01
 4.016413689E-01 6.855550781E-02 -5.310810182E-01
 3.891865909E-01 6.837720424E-02 -5.261636217E-01
 3.772131652E-01 6.813331321E-02 -5.212837066E-01
 3.648439944E-01 6.782230362E-02 -5.189134440E-01
 3.519856036E-01 6.743222103E-02 -5.178067262E-01
 3.392314613E-01 6.696477905E-02 -5.133188835E-01
 3.273714185E-01 6.645916402E-02 -5.082991248E-01
 3.157773167E-01 6.589784473E-02 -5.027627146E-01
 3.030275702E-01 6.521408260E-02 -4.957208583E-01
 2.895614207E-01 6.441696733E-02 -4.931138399E-01
 2.763912231E-01 6.355563551E-02 -4.886956947E-01
 2.641639858E-01 6.266839430E-02 -4.810311385E-01
 2.519773915E-01 6.171017513E-02 -4.751723847E-01
 2.394481227E-01 6.064796448E-02 -4.677094548E-01
 2.269758880E-01 5.951092765E-02 -4.634215724E-01
 2.148337886E-01 5.831628852E-02 -4.532261125E-01
 2.030076087E-01 5.707210489E-02 -4.489687718E-01
 1.909470409E-01 5.571703240E-02 -4.394767740E-01
 1.788507774E-01 5.426188558E-02 -4.300531034E-01
 1.671409905E-01 5.276385508E-02 -4.236777201E-01
 1.554232389E-01 5.116408318E-02 -4.127806117E-01
 1.441284716E-01 4.952011444E-02 -4.035779720E-01
 1.329708025E-01 4.778970033E-02 -3.907343514E-01
 1.215975769E-01 4.591768235E-02 -3.806324359E-01
 1.107108667E-01 4.400780238E-02 -3.705737640E-01
 9.009406343E-02 4.001486860E-02 -3.426491999E-01
 7.889816910E-02 3.760514036E-02 -3.235931134E-01
 5.847833864E-02 3.266923502E-02 -2.844912439E-01
 7.248015329E-02 -3.395260125E-02 -2.119702070E-01
 8.267953619E-02 -3.604671173E-02 -2.235229274E-01
 9.294488281E-02 -3.799243830E-02 -2.371262186E-01
 1.037532613E-01 -3.989500180E-02 -2.456050507E-01
 1.150324345E-01 -4.175272398E-02 -2.597917151E-01
 1.265556924E-01 -4.351991042E-02 -2.706849560E-01
 1.377218515E-01 -4.512621462E-02 -2.803260907E-01
 1.486452669E-01 -4.660186730E-02 -2.900149807E-01
 1.602363810E-01 -4.807443544E-02 -2.992062518E-01
 1.720948964E-01 -4.949188419E-02 -3.122286773E-01
 1.838205829E-01 -5.080025829E-02 -3.220861436E-01
 1.950125471E-01 -5.197123252E-02 -3.325406957E-01
 2.060369626E-01 -5.304846913E-02 -3.413420204E-01
 2.179347873E-01 -5.413269065E-02 -3.522251776E-01
 2.303935662E-01 -5.517480709E-02 -3.654730339E-01
 2.427386492E-01 -5.611168221E-02 -3.743382335E-01
 2.549537495E-01 -5.694781803E-02 -3.840230594E-01
 2.666197866E-01 -5.766336992E-02 -3.938450119E-01
 2.784864008E-01 -5.830436200E-02 -4.018633754E-01
 2.909926772E-01 -5.888731405E-02 -4.148594871E-01
 3.035832345E-01 -5.935704708E-02 -4.227394635E-01
 3.158458471E-01 -5.970342271E-02 -4.276081337E-01
 3.279845268E-01 -5.994529836E-02 -4.299826283E-01
 3.396825194E-01 -6.008768082E-02 -4.419724188E-01
 3.507944942E-01 -6.011195481E-02 -4.410937291E-01
 3.619581014E-01 -6.003680080E-02 -4.412405069E-01
 3.727950901E-01 -5.986718833E-02 -4.385124334E-01
 3.839650005E-01 -5.959129147E-02 -4.347012425E-01
 3.962374628E-01 -5.916522630E-02 -4.277336581E-01
 4.089058787E-01 -5.859663524E-02 -4.185581592E-01
 4.215034992E-01 -5.789730512E-02 -4.045017563E-01
 4.341039807E-01 -5.707142502E-02 -3.904454808E-01
 4.464953840E-01 -5.613234267E-02 -3.714510816E-01
 4.587024450E-01 -5.509399995E-02 -3.514436926E-01
 4.708605260E-01 -5.394408852E-02 -3.279238154E-01
 4.828598499E-01 -5.271932483E-02 -3.021150005E-01
 4.949366003E-01 -5.139528401E-02 -2.793616660E-01
 5.080778897E-01 -4.986787215E-02 -2.473015301E-01
 5.216402411E-01 -4.822109826E-02 -2.248874785E-01
 5.348053277E-01 -4.653725773E-02 -1.963478575E-01
 5.478617549E-01 -4.480681568E-02 -1.669595133E-01
 5.609764457E-01 -4.302493855E-02 -1.421083953E-01
 5.740758479E-01 -4.120668396E-02 -1.172891479E-01
 5.867343843E-01 -3.941032849E-02 -9.385603149E-02
 5.991642177E-01 -3.762252443E-02 -6.690771004E-02
 6.124584079E-01 -3.570678830E-02 -4.600761690E-02
 6.265486777E-01 -3.365827911E-02 -2.208996756E-02
 6.409047544E-01 -3.157895617E-02 2.673077198E-03
 6.547731161E-01 -2.958804090E-02 1.860184766E-02
 6.680670679E-01 -2.767171711E-02 3.710038711E-02
 6.809118688E-01 -2.581500541E-02 5.779065513E-02
 6.932269335E-01 -2.404759079E-02 7.650097498E-02
 7.066140771E-01 -2.214964293E-02 9.371652462E-02
 7.203637064E-01 -2.022146061E-02 1.135542566E-01
 7.327826023E-01 -1.851078775E-02 1.293374501E-01
 7.451462746E-01 -1.683471259E-02 1.430072070E-01
 7.577155828E-01 -1.514387131E-02 1.614608743E-01
 7.704500258E-01 -1.348287426E-02 1.799307345E-01
 7.830871046E-01 -1.189024793E-02 1.916270579E-01
 7.953577936E-01 -1.037218561E-02 2.065257604E-01
 8.070977032E-01 -8.956810459E-03 2.254020594E-01
 8.183221221E-01 -7.663496071E-03 2.393289384E-01
 8.305758238E-01 -6.342831301E-03 2.514444058E-01
 8.431472480E-01 -5.045161815E-03 2.634285222E-01
 8.553414047E-01 -3.857521107E-03 2.823522143E-01
 8.672438860E-01 -2.808226389E-03 2.934992705E-01
 8.789125085E-01 -1.886363840E-03 3.033604634E-01
 8.913317621E-01 -1.025889214E-03 3.118549473E-01
 9.029955268E-01 -3.280453166E-04 3.232609019E-01
 9.134758711E-01 1.781916872E-04 3.264436825E-01
 9.436382651E-01 1.051666011E-03 3.322006532E-01
 9.561026394E-01 1.161385968E-03 3.333577357E-01
 9.698352516E-01 1.125042967E-03 3.365580063E-01
 9.828861356E-01 9.464381728E-04 3.491994923E-01
 9.942155778E-01 6.664766988E-04 4.104685749E-01
 -5.000000000E-01 9.500000000E-01 -1.127793564E-03
 -5.000000000E-01 9.000000000E-01 -9.906702016E-04
 -5.000000000E-01 8.500000000E-01 -1.184998394E-04
 -5.000000000E-01 8.000000000E-01 1.494090071E-03
 -5.000000000E-01 7.500000000E-01 3.857980070E-03
 -5.000000000E-01 7.000000000E-01 7.007229922E-03
 -5.000000000E-01 6.500000000E-01 1.104038987E-02
 -5.000000000E-01 6.000000000E-01 1.590163518E-02
 -5.000000000E-01 5.500000000E-01 2.169819515E-02
 -5.000000000E-01 5.000000000E-01 2.833206731E-02
 -5.000000000E-01 4.500000000E-01 3.583608965E-02
 -5.000000000E-01 4.000000000E-01 4.399433092E-02
 -5.000000000E-01 3.500000000E-01 5.290582984E-02
 -5.000000000E-01 3.000000000E-01 6.184047595E-02
 -5.000000000E-01 2.500000000E-01 7.110881685E-02
 -5.000000000E-01 2.000000000E-01 7.972747285E-02
 -5.000000000E-01 1.500000000E-01 8.773886113E-02
 -5.000000000E-01 1.000000000E-01 9.446073668E-02
 -5.000000000E-01 5.000000000E-02 9.971022130E-02
 -5.000000000E-01 2.752242878E-12 1.028822059E-01
 -5.000000000E-01 -5.000000000E-02 1.043270825E-01
 -5.000000000E-01 -1.000000000E-01 1.037546895E-01
 -5.000000000E-01 -1.500000000E-01 1.013762128E-01
 -5.000000000E-01 -2.000000000E-01 9.750515113E-02
 -5.000000000E-01 -2.500000000E-01 9.247276471E-02
 -5.000000000E-01 -3.000000000E-01 8.678499849E-02
 -5.000000000E-01 -3.500000000E-01 8.064015879E-02
 -5.000000000E-01 -4.000000000E-01 7.433519003E-02
 -5.000000000E-01 -4.500000000E-01 6.813641907E-02
 -5.000000000E-01 -5.000000000E-01 6.219010214E-02
 -5.000000000E-01 -5.500000000E-01 5.656016580E-02
 -5.000000000E-01 -6.000000000E-01 5.132376511E-02
 -5.000000000E-01 -6.500000000E-01 4.645607496E-02
 -5.000000000E-01 -7.000000000E-01 4.195723547E-02
 -5.000000000E-01 -7.500000000E-01 3.773183127E-02
 -5.000000000E-01 -8.000000000E-01 3.379464751E-02
 -5.000000000E-01 -8.500000000E-01 2.975037531E-02
 -5.000000000E-01 -9.000000000E-01 2.531270449E-02
 -5.000000000E-01 -9.500000000E-01 1.883637823E-02
 -4.500000000E-01 -1.000000000E+00 1.719572247E-02
 -4.000000000E-01 -1.000000000E+00 2.232618215E-02
 -3.500000000E-01 -1.000000000E+00 2.464639183E-02
 -3.000000000E-01 -1.000000000E+00 2.575445173E-02
 -2.500000000E-01 -1.000000000E+00 2.615977056E-02
 -2.000000000E-01 -1.000000000E+00 2.563060719E-02
 -1.500000000E-01 -1.000000000E+00 2.446622584E-02
 -1.000000000E-01 -1.000000000E+00 2.262454051E-02
 -5.000000000E-02 -1.000000000E+00 2.019347740E-02
 -9.424683256E-13 -1.000000000E+00 1.736887989E-02
 5.000000000E-02 -1.000000000E+00 1.418657632E-02
 1.000000000E-01 -1.000000000E+00 1.081223060E-02
 1.500000000E-01 -1.000000000E+00 7.338032692E-03
 2.000000000E-01 -1.000000000E+00 4.006526745E-03
 2.500000000E-01 -1.000000000E+00 9.169553827E-04
 3.000000000E-01 -1.000000000E+00 -1.674671896E-03
 3.500000000E-01 -1.000000000E+00 -3.925420362E-03
 4.000000000E-01 -1.000000000E+00 -5.342943400E-03
 4.500000000E-01 -1.000000000E+00 -6.044346714E-03
 5.000000000E-01 -1.000000000E+00 -5.971145322E-03
 5.500000000E-01 -1.000000000E+00 -5.212010657E-03
 6.000000000E-01 -1.000000000E+00 -3.758865894E-03
 6.500000000E-01 -1.000000000E+00 -1.734423697E-03
 7.000000000E-01 -1.000000000E+00 9.604032653E-04
 7.500000000E-01 -1.000000000E+00 3.987069569E-03
 8.000000000E-01 -1.000000000E+00 7.299225776E-03
 8.500000000E-01 -1.000000000E+00 1.064559492E-02
 9.000000000E-01 -1.000000000E+00 1.415892690E-02
 9.500000000E-01 -1.000000000E+00 1.742507419E-02
 1.000000000E+00 -1.000000000E+00 2.061862211E-02
 1.050000000E+00 -1.000000000E+00 2.352881300E-02
 1.100000000E+00 -1.000000000E+00 2.610422742E-02
 1.150000000E+00 -1.000000000E+00 2.833889242E-02
 1.200000000E+00 -1.000000000E+00 3.015022202E-02
 1.250000000E+00 -1.000000000E+00 3.169342281E-02
 1.300000000E+00 -1.000000000E+00 3.283210523E-02
 1.350000000E+00 -1.000000000E+00 3.366591390E-02
 1.400000000E+00 -1.000000000E+00 3.422116553E-02
 1.450000000E+00 -1.000000000E+00 3.449507231E-02
 1.500000000E+00 -1.000000000E+00 3.456212785E-02
 1.550000000E+00 -1.000000000E+00 3.440294261E-02
 1.600000000E+00 -1.000000000E+00 3.409656485E-02
 1.650000000E+00 -1.000000000E+00 3.365862528E-02
 1.700000000E+00 -1.000000000E+00 3.309090116E-02
 1.750000000E+00 -1.000000000E+00 3.246790646E-02
 1.800000000E+00 -1.000000000E+00 3.184262509E-02
 1.850000000E+00 -1.000000000E+00 3.105638631E-02
 1.900000000E+00 -1.000000000E+00 3.034438378E-02
 1.950000000E+00 -1.000000000E+00 2.953466737E-02
 2.000000000E+00 -1.000000000E+00 2.875597723E-02
 2.050000000E+00 -1.000000000E+00 2.800557480E-02
 2.100000000E+00 -1.000000000E+00 2.725966814E-02
 2.150000000E+00 -1.000000000E+00 2.652654698E-02
 2.200000000E+00 -1.000000000E+00 2.584204421E-02
 2.250000000E+00 -1.000000000E+00 2.517712879E-02
 2.300000000E+00 -1.000000000E+00 2.454632229E-02
 2.350000000E+00 -1.000000000E+00 2.395563161E-02
 2.400000000E+00 -1.000000000E+00 2.338119438E-02
 2.450000000E+00 -1.000000000E+00 2.285623955E-02
 2.500000000E+00 -1.000000000E+00 2.238686128E-02
 2.550000000E+00 -1.000000000E+00 2.193939770E-02
 2.600000000E+00 -1.000000000E+00 2.152196278E-02
 2.650000000E+00 -1.000000000E+00 2.115868585E-02
 2.700000000E+00 -1.000000000E+00 2.080276079E-02
 2.750000000E+00 -1.000000000E+00 2.050659303E-02
 2.800000000E+00 -1.000000000E+00 2.021478504E-02
 2.850000000E+00 -1.000000000E+00 1.995260745E-02
 2.900000000E+00 -1.000000000E+00 1.970016963E-02
 2.950000000E+00 -1.000000000E+00 1.945892996E-02
 3.000000000E+00 -1.000000000E+00 1.920967700E-02
 3.050000000E+00 -1.000000000E+00 1.892545817E-02
 3.100000000E+00 -1.000000000E+00 1.862105683E-02
 3.150000000E+00 -1.000000000E+00 1.827828398E-02
 3.200000000E+00 -1.000000000E+00 1.781597389E-02
 3.250000000E+00 -1.000000000E+00 1.727343058E-02
 3.300000000E+00 -1.000000000E+00 1.652147345E-02
 3.350000000E+00 -1.000000000E+00 1.543096644E-02
 3.400000000E+00 -1.000000000E+00 1.380726790E-02
 3.450000000E+00 -1.000000000E+00 1.113531814E-02
 3.500000000E+00 -9.500000000E-01 7.388283128E-03
 3.500000000E+00 -9.000000000E-01 8.944106881E-03
 3.500000000E+00 -8.500000000E-01 1.033226668E-02
 3.500000000E+00 -8.000000000E-01 1.183689910E-02
 3.500000000E+00 -7.500000000E-01 1.324504398E-02
 3.500000000E+00 -7.000000000E-01 1.475410374E-02
 3.500000000E+00 -6.500000000E-01 1.634656338E-02
 3.500000000E+00 -6.000000000E-01 1.799127438E-02
 3.500000000E+00 -5.500000000E-01 1.986358467E-02
 3.500000000E+00 -5.000000000E-01 2.178605496E-02
 3.500000000E+00 -4.500000000E-01 2.390003505E-02
 3.500000000E+00 -4.000000000E-01 2.606353710E-02
 3.500000000E+00 -3.500000000E-01 2.831607198E-02
 3.500000000E+00 -3.000000000E-01 3.042280370E-02
 3.500000000E+00 -2.500000000E-01 3.193693424E-02
 3.500000000E+00 -2.000000000E-01 3.283607828E-02
 3.500000000E+00 -1.500000000E-01 3.277393617E-02
 3.500000000E+00 -1.000000000E-01 3.214009335E-02
 3.500000000E+00 -5.000000000E-02 3.121724768E-02
 3.500000000E+00 -2.752242878E-12 3.056542862E-02
 3.500000000E+00 5.000000000E-02 2.984001750E-02
 3.500000000E+00 1.000000000E-01 2.888606781E-02
 3.500000000E+00 1.500000000E-01 2.711373154E-02
 3.500000000E+00 2.000000000E-01 2.453651031E-02
 3.500000000E+00 2.500000000E-01 2.147467201E-02
 3.500000000E+00 3.000000000E-01 1.829658198E-02
 3.500000000E+00 3.500000000E-01 1.526231800E-02
 3.500000000E+00 4.000000000E-01 1.240802993E-02
 3.500000000E+00 4.500000000E-01 9.791888754E-03
 3.500000000E+00 5.000000000E-01 7.447617034E-03
 3.500000000E+00 5.500000000E-01 5.473462290E-03
 3.500000000E+00 6.000000000E-01 4.173420817E-03
 3.500000000E+00 6.500000000E-01 3.651650991E-03
 3.500000000E+00 7.000000000E-01 3.465917472E-03
 3.500000000E+00 7.500000000E-01 3.108965152E-03
 3.500000000E+00 8.000000000E-01 3.800894900E-04
 3.500000000E+00 8.500000000E-01 -5.282952904E-03
 3.500000000E+00 9.000000000E-01 -1.280855576E-02
 3.500000000E+00 9.500000000E-01 -2.290336244E-02
 3.450000000E+00 1.000000000E+00 -1.395894196E-02
 3.400000000E+00 1.000000000E+00 -6.221414414E-03
 3.350000000E+00 1.000000000E+00 -2.422310234E-03
 3.300000000E+00 1.000000000E+00 -5.266738696E-04
 3.250000000E+00 1.000000000E+00 1.864940043E-04
 3.200000000E+00 1.000000000E+00 9.946653766E-04
 3.150000000E+00 1.000000000E+00 8.533995425E-04
 3.100000000E+00 1.000000000E+00 1.112083370E-03
 3.050000000E+00 1.000000000E+00 9.243212049E-04
 3.000000000E+00 1.000000000E+00 5.656774879E-04
 2.950000000E+00 1.000000000E+00 1.110301353E-04
 2.900000000E+00 1.000000000E+00 -3.207128930E-04
 2.850000000E+00 1.000000000E+00 -1.106291848E-03
 2.800000000E+00 1.000000000E+00 -1.701035988E-03
 2.750000000E+00 1.000000000E+00 -2.503429637E-03
 2.700000000E+00 1.000000000E+00 -3.280737976E-03
 2.650000000E+00 1.000000000E+00 -4.279278275E-03
 2.600000000E+00 1.000000000E+00 -5.088581396E-03
 2.550000000E+00 1.000000000E+00 -6.303608701E-03
 2.500000000E+00 1.000000000E+00 -7.224993576E-03
 2.450000000E+00 1.000000000E+00 -8.556994465E-03
 2.400000000E+00 1.000000000E+00 -9.771691595E-03
 2.350000000E+00 1.000000000E+00 -1.120325616E-02
 2.300000000E+00 1.000000000E+00 -1.265875002E-02
 2.250000000E+00 1.000000000E+00 -1.424143793E-02
 2.200000000E+00 1.000000000E+00 -1.597610026E-02
 2.150000000E+00 1.000000000E+00 -1.759982920E-02
 2.100000000E+00 1.000000000E+00 -1.956093844E-02
 2.050000000E+00 1.000000000E+00 -2.152083289E-02
 2.000000000E+00 1.000000000E+00 -2.371007600E-02
 1.950000000E+00 1.000000000E+00 -2.612957648E-02
 1.900000000E+00 1.000000000E+00 -2.858564907E-02
 1.850000000E+00 1.000000000E+00 -3.128631481E-02
 1.800000000E+00 1.000000000E+00 -3.409389289E-02
 1.750000000E+00 1.000000000E+00 -3.724259824E-02
 1.700000000E+00 1.000000000E+00 -4.036286229E-02
 1.650000000E+00 1.000000000E+00 -4.412556019E-02
 1.600000000E+00 1.000000000E+00 -4.798111638E-02
 1.550000000E+00 1.000000000E+00 -5.217308328E-02
 1.500000000E+00 1.000000000E+00 -5.634981224E-02
 1.450000000E+00 1.000000000E+00 -6.099142402E-02
 1.400000000E+00 1.000000000E+00 -6.575528502E-02
 1.350000000E+00 1.000000000E+00 -7.097461049E-02
 1.300000000E+00 1.000000000E+00 -7.634045582E-02
 1.250000000E+00 1.000000000E+00 -8.184637385E-02
 1.200000000E+00 1.000000000E+00 -8.734085146E-02
 1.150000000E+00 1.000000000E+00 -9.327588281E-02
 1.100000000E+00 1.000000000E+00 -9.912341933E-02
 1.050000000E+00 1.000000000E+00 -1.034355798E-01
 1.000000000E+00 1.000000000E+00 -1.089389142E-01
 9.500000000E-01 1.000000000E+00 -1.138164145E-01
 9.000000000E-01 1.000000000E+00 -1.176097872E-01
 8.500000000E-01 1.000000000E+00 -1.210740562E-01
 8.000000000E-01 1.000000000E+00 -1.230692377E-01
 7.500000000E-01 1.000000000E+00 -1.242659326E-01
 7.000000000E-01 1.000000000E+00 -1.251523711E-01
 6.500000000E-01 1.000000000E+00 -1.234143532E-01
 6.000000000E-01 1.000000000E+00 -1.219537818E-01
 5.500000000E-01 1.000000000E+00 -1.182975627E-01
 5.000000000E-01 1.000000000E+00 -1.137273168E-01
 4.500000000E-01 1.000000000E+00 -1.084321964E-01
 4.000000000E-01 1.000000000E+00 -1.019543249E-01
 3.500000000E-01 1.000000000E+00 -9.468281876E-02
 3.000000000E-01 1.000000000E+00 -8.679499130E-02
 2.500000000E-01 1.000000000E+00 -7.844689239E-02
 2.000000000E-01 1.000000000E+00 -6.972331509E-02
 1.500000000E-01 1.000000000E+00 -6.138552174E-02
 1.000000000E-01 1.000000000E+00 -5.286947583E-02
 5.000000000E-02 1.000000000E+00 -4.475043935E-02
 1.733724275E-12 1.000000000E+00 -3.698669223E-02
 -5.000000000E-02 1.000000000E+00 -2.987696636E-02
 -1.000000000E-01 1.000000000E+00 -2.363189564E-02
 -1.500000000E-01 1.000000000E+00 -1.805723966E-02
 -2.000000000E-01 1.000000000E+00 -1.331842424E-02
 -2.500000000E-01 1.000000000E+00 -9.365658772E-03
 -3.000000000E-01 1.000000000E+00 -6.295481171E-03
 -3.500000000E-01 1.000000000E+00 -3.995382365E-03
 -4.000000000E-01 1.000000000E+00 -2.438212662E-03
 -4.500000000E-01 1.000000000E+00 -1.370728968E-03
 1.976885560E+00 -9.610697479E-01 2.883493673E-02
 1.975434423E+00 9.568569186E-01 -2.364114706E-02
 9.058017988E-01 -4.650961224E-03 3.168079609E-01
 9.858165780E-01 -3.214148305E-03 3.549035293E-01
 8.347770524E-01 -1.148977966E-02 2.488428134E-01
 7.538172462E-01 -2.031582507E-02 1.537529499E-01
 6.844355624E-01 -3.077926254E-02 6.175159461E-02
 6.162813878E-01 -4.166717818E-02 -4.035578520E-02
 5.453430775E-01 -5.089866759E-02 -1.702713263E-01
 4.806814788E-01 -5.812029053E-02 -2.994480148E-01
 4.251499581E-01 -6.254186083E-02 -3.903894046E-01