TITLE     = "Visualization of the solution"
VARIABLES = "x"
"y"
"Pressure_Coefficient"
ZONE T="Zone"
 STRANDID=0, SOLUTIONTIME=0
 Nodes=12232, Elements=23884, ZONETYPE=FEQuadrilateral
 DATAPACKING=POINT
 DT=(DOUBLE DOUBLE DOUBLE )
 1.000325322E+00 5.207997747E-04 2.673138744E-01
 9.855291843E-01 3.369918559E-03 1.644993663E-01
 9.730504751E-01 5.833386909E-03 1.035205949E-01
 9.584510922E-01 8.710385300E-03 5.026522808E-02
 9.448335767E-01 1.135367434E-02 1.543007925E-02
 9.329369068E-01 1.367733721E-02 -3.098570872E-02
 9.215434194E-01 1.578042470E-02 -3.704441282E-02
 9.100875854E-01 1.798777655E-02 -8.720144660E-02
 8.987258077E-01 2.004994825E-02 -1.086377569E-01
 8.867137432E-01 2.217224613E-02 -1.245320887E-01
 8.749688268E-01 2.424409613E-02 -1.656196833E-01
 8.626919985E-01 2.622674219E-02 -1.647573766E-01
 8.503128290E-01 2.821851894E-02 -1.776924550E-01
 8.389745951E-01 3.003193624E-02 -2.049395211E-01
 8.271450400E-01 3.181334212E-02 -2.078548578E-01
 8.143317699E-01 3.372182325E-02 -2.173100863E-01
 8.015567660E-01 3.562209383E-02 -2.407900371E-01
 7.894986272E-01 3.734850883E-02 -2.558127076E-01
 7.767132521E-01 3.910437971E-02 -2.583754011E-01
 7.649146318E-01 4.072652012E-02 -2.739506609E-01
 7.519589067E-01 4.246937111E-02 -2.915886458E-01
 7.381119132E-01 4.426896572E-02 -3.026157460E-01
 7.272228599E-01 4.567153379E-02 -3.217108518E-01
 7.157932520E-01 4.708554223E-02 -3.298129692E-01
 7.040373683E-01 4.852381721E-02 -3.505672540E-01
 6.904712915E-01 5.008563772E-02 -3.572603019E-01
 6.773813367E-01 5.156333745E-02 -3.727012030E-01
 6.666057706E-01 5.274484679E-02 -3.879809523E-01
 6.548853517E-01 5.397567153E-02 -3.994991554E-01
 6.437511444E-01 5.510891229E-02 -4.161062501E-01
 6.315393448E-01 5.627476051E-02 -4.251141860E-01
 6.199848056E-01 5.732510611E-02 -4.337006348E-01
 6.092560291E-01 5.826522037E-02 -4.457176818E-01
 5.969493389E-01 5.928773805E-02 -4.621665926E-01
 5.849701166E-01 6.019921228E-02 -4.683209351E-01
 5.711294413E-01 6.117983535E-02 -4.819410921E-01
 5.580090880E-01 6.200981513E-02 -4.861904030E-01
 5.448635817E-01 6.277333945E-02 -4.966257828E-01
 5.334182382E-01 6.336554140E-02 -5.013092897E-01
 5.212163925E-01 6.392836571E-02 -5.075787703E-01
 5.083958507E-01 6.443041563E-02 -5.099551116E-01
 4.974575043E-01 6.479911506E-02 -5.116868989E-01
 4.841828346E-01 6.516826898E-02 -5.125637337E-01
 4.710821211E-01 6.545860320E-02 -5.168826837E-01
 4.569875896E-01 6.566490978E-02 -5.140949910E-01
 4.428577423E-01 6.578943133E-02 -5.166616906E-01
 4.296765924E-01 6.581290811E-02 -5.159340448E-01
 4.162826240E-01 6.573794782E-02 -5.068558031E-01
 4.037970304E-01 6.561999768E-02 -5.089641792E-01
 3.907549381E-01 6.540609896E-02 -5.031961573E-01
 3.787119091E-01 6.515199691E-02 -5.023255014E-01
 3.672343493E-01 6.484644860E-02 -4.990992795E-01
 3.537736535E-01 6.439970434E-02 -4.899299128E-01
 3.413933516E-01 6.393764913E-02 -4.887337504E-01
 3.288175464E-01 6.339284033E-02 -4.861605503E-01
 3.184514344E-01 6.288469583E-02 -4.795247471E-01
 3.062779903E-01 6.222600490E-02 -4.720153201E-01
 2.935057282E-01 6.147225574E-02 -4.671020971E-01
 2.796103060E-01 6.056822836E-02 -4.627505209E-01
 2.673690617E-01 5.969455093E-02 -4.573960303E-01
 2.554810643E-01 5.877087638E-02 -4.477497193E-01
 2.430260926E-01 5.774020776E-02 -4.424413784E-01
 2.303493917E-01 5.660886690E-02 -4.348850375E-01
 2.183113247E-01 5.546240509E-02 -4.281851372E-01
 2.065899819E-01 5.427443981E-02 -4.240931775E-01
 1.951682121E-01 5.302776024E-02 -4.096817987E-01
 1.830318272E-01 5.164755881E-02 -4.064723334E-01
 1.713672727E-01 5.022786930E-02 -3.983384311E-01
 1.597919017E-01 4.873009771E-02 -3.888669400E-01
 1.481975913E-01 4.714326188E-02 -3.801325438E-01
 1.375674903E-01 4.560457170E-02 -3.716967928E-01
 1.264365613E-01 4.389792681E-02 -3.623263730E-01
 1.152674556E-01 4.207762331E-02 -3.503591198E-01
 1.048018560E-01 4.027680308E-02 -3.417870591E-01
 9.520772099E-02 3.851421550E-02 -3.297167733E-01
 8.445668966E-02 3.642266989E-02 -3.194271611E-01
 7.299566269E-02 3.401894867E-02 -3.044102927E-01
 6.320883334E-02 3.180555254E-02 -2.885906545E-01
 5.365105346E-02 2.946600877E-02 -2.733927050E-01
 4.465429857E-02 2.706918679E-02 -2.578586053E-01
 3.683426231E-02 2.478075586E-02 -2.352613411E-01
 3.000362962E-02 2.257847413E-02 -2.126596172E-01
 2.420145832E-02 2.053006366E-02 -1.975196510E-01
 1.994916797E-02 1.887207851E-02 -1.664593799E-01
 1.598405093E-02 1.718146540E-02 -1.462057255E-01
 1.307630260E-02 1.582090370E-02 -1.149291730E-01
 1.053483225E-02 1.452081650E-02 -8.460816868E-02
 8.639922366E-03 1.345328987E-02 -5.095055180E-02
 6.898876280E-03 1.239924133E-02 -2.828263047E-02
 5.288850982E-03 1.131473482E-02 4.648114647E-02
 3.228019224E-03 9.740948677E-03 1.356145455E-01
 1.516112359E-03 8.170154877E-03 2.401664458E-01
 7.039689808E-05 6.512830965E-03 4.727111476E-01
 -1.305538928E-03 4.280456807E-03 7.255810981E-01
 -1.946171164E-03 2.504096599E-03 9.065804036E-01
 -2.184741432E-03 1.087403158E-03 1.043133266E+00
 -2.167804167E-03 -6.454066606E-04 1.108532720E+00
 -1.750559430E-03 -2.652435098E-03 1.102559481E+00
 -7.717959234E-04 -4.973059986E-03 9.770790720E-01
 8.135131793E-04 -7.437099237E-03 8.158650277E-01
 3.009039210E-03 -9.984518401E-03 6.476164070E-01
 4.984965548E-03 -1.186050102E-02 5.085229856E-01
 7.311567664E-03 -1.377666276E-02 4.151071878E-01
 9.035270661E-03 -1.505016442E-02 3.228474732E-01
 1.115368400E-02 -1.649099030E-02 2.722120459E-01
 1.367050689E-02 -1.805800945E-02 1.993544665E-01
 1.699019223E-02 -1.994216442E-02 1.320153508E-01
 2.020688727E-02 -2.159773745E-02 6.627165374E-02
 2.438180521E-02 -2.357601747E-02 1.617421775E-02
 2.987968922E-02 -2.592592500E-02 -3.980753175E-02
 3.564148396E-02 -2.814730071E-02 -9.288526796E-02
 4.281792417E-02 -3.064499795E-02 -1.293089310E-01
 5.032040179E-02 -3.301749378E-02 -1.689126783E-01
 5.902661756E-02 -3.551281244E-02 -1.953280503E-01
 6.761439145E-02 -3.776290640E-02 -2.222662102E-01
 7.804806530E-02 -4.027474672E-02 -2.445238591E-01
 8.787606657E-02 -4.244211689E-02 -2.605414097E-01
 9.836768359E-02 -4.459689930E-02 -2.796337102E-01
 1.094826534E-01 -4.670282453E-02 -2.919349887E-01
 1.209335998E-01 -4.872642085E-02 -3.072165948E-01
 1.324709058E-01 -5.062069744E-02 -3.185760408E-01
 1.426814049E-01 -5.219611526E-02 -3.319743823E-01
 1.537874043E-01 -5.380697176E-02 -3.439696622E-01
 1.656458825E-01 -5.541880056E-02 -3.565707380E-01
 1.771612167E-01 -5.687475577E-02 -3.674175759E-01
 1.887043118E-01 -5.823884904E-02 -3.788963640E-01
 1.990788877E-01 -5.938276276E-02 -3.891539839E-01
 2.101541162E-01 -6.052921712E-02 -4.019547270E-01
 2.222328484E-01 -6.167449430E-02 -4.099341242E-01
 2.341324538E-01 -6.271305680E-02 -4.210462857E-01
 2.460184246E-01 -6.366150081E-02 -4.331512311E-01
 2.584413588E-01 -6.455600262E-02 -4.467850902E-01
 2.694173157E-01 -6.524480879E-02 -4.541569765E-01
 2.819275856E-01 -6.594069302E-02 -4.666684553E-01
 2.941112220E-01 -6.649918854E-02 -4.734556705E-01
 3.069611192E-01 -6.697524339E-02 -4.822649005E-01
 3.185446560E-01 -6.729422510E-02 -4.889752895E-01
 3.310278952E-01 -6.751330197E-02 -4.890473844E-01
 3.414444923E-01 -6.762205064E-02 -5.003066381E-01
 3.527756333E-01 -6.761631370E-02 -4.946676030E-01
 3.638366759E-01 -6.752783060E-02 -5.015156991E-01
 3.745825291E-01 -6.733463705E-02 -5.020641766E-01
 3.860417008E-01 -6.699125469E-02 -4.872987668E-01
 3.989339769E-01 -6.649482995E-02 -4.826402159E-01
 4.109305739E-01 -6.589441001E-02 -4.712153610E-01
 4.238128960E-01 -6.511072814E-02 -4.558844039E-01
 4.364005625E-01 -6.420115381E-02 -4.351832989E-01
 4.493742883E-01 -6.314405054E-02 -4.176823810E-01
 4.617595673E-01 -6.200324744E-02 -3.942116348E-01
 4.742456973E-01 -6.072865427E-02 -3.649674484E-01
 4.861979187E-01 -5.943603069E-02 -3.470073891E-01
 4.986416996E-01 -5.797882751E-02 -3.190948929E-01
 5.122453570E-01 -5.627879500E-02 -2.884270879E-01
 5.255978107E-01 -5.448827520E-02 -2.469624584E-01
 5.384983420E-01 -5.275334045E-02 -2.306156412E-01
 5.520181060E-01 -5.082463473E-02 -1.940663213E-01
 5.650702715E-01 -4.893199354E-02 -1.685991243E-01
 5.783184767E-01 -4.697125778E-02 -1.418633505E-01
 5.913813114E-01 -4.502595589E-02 -1.240828780E-01
 6.040798426E-01 -4.306298494E-02 -9.331947219E-02
 6.172958016E-01 -4.100641981E-02 -6.636313912E-02
 6.311872602E-01 -3.884577379E-02 -4.158125003E-02
 6.451298594E-01 -3.670853376E-02 -2.733877610E-02
 6.583268642E-01 -3.464839235E-02 -4.274459376E-03
 6.717082262E-01 -3.252812475E-02 2.477921935E-02
 6.845203638E-01 -3.056697175E-02 3.447676095E-02
 6.968861222E-01 -2.865171432E-02 5.544163058E-02
 7.118647695E-01 -2.633482777E-02 7.820607750E-02
 7.250076532E-01 -2.432932891E-02 9.522215444E-02
 7.365429997E-01 -2.259155177E-02 1.086432751E-01
 7.492790222E-01 -2.064084075E-02 1.373265677E-01
 7.623037100E-01 -1.872506365E-02 1.518743668E-01
 7.759032249E-01 -1.679594256E-02 1.634060649E-01
 7.882732749E-01 -1.505203266E-02 1.795296660E-01
 8.009166718E-01 -1.327402703E-02 2.010958263E-01
 8.119001389E-01 -1.176719554E-02 2.198220699E-01
 8.231025338E-01 -1.029385347E-02 2.346043638E-01
 8.354123235E-01 -8.743261918E-03 2.500794199E-01
 8.476621509E-01 -7.270107511E-03 2.665580309E-01
 8.598451614E-01 -5.889246706E-03 2.820591333E-01
 8.709853292E-01 -4.710320849E-03 2.965100687E-01
 8.825593591E-01 -3.588924883E-03 3.088484087E-01
 8.951179385E-01 -2.486582380E-03 3.222813257E-01
 9.052174091E-01 -1.714034704E-03 3.315821518E-01
 9.156916738E-01 -1.030354644E-03 3.358025966E-01
 9.252973795E-01 -4.886622191E-04 3.416657945E-01
 9.348812103E-01 -5.580335346E-05 3.476224568E-01
 9.470726848E-01 3.642840020E-04 3.503339753E-01
 9.613092542E-01 6.589850527E-04 3.527946838E-01
 9.763771892E-01 7.642941200E-04 3.609370059E-01
 9.895440936E-01 6.777733797E-04 3.866542412E-01
 -5.000000000E-01 -1.000000000E+00 1.252584660E-02
 3.500000000E+00 -1.000000000E+00 7.268001780E-03
 3.500000000E+00 1.000000000E+00 -2.024695089E-02
 -5.000000000E-01 1.000000000E+00 5.851909325E-04
 9.929272532E-01 1.945359167E-03 2.307286999E-01
 9.792898297E-01 4.601652734E-03 1.321551302E-01
 9.657507837E-01 7.271886105E-03 7.545997576E-02
 9.516423345E-01 1.003202982E-02 3.307470027E-02
 9.388852417E-01 1.251550578E-02 -1.247544636E-02
 9.272401631E-01 1.472888095E-02 -2.860742684E-02
 9.158155024E-01 1.688410062E-02 -6.748343250E-02
 9.044066966E-01 1.901886240E-02 -9.794454013E-02
 8.927197754E-01 2.111109719E-02 -1.146016073E-01
 8.808412850E-01 2.320817113E-02 -1.509888051E-01
 8.688304126E-01 2.523541916E-02 -1.610015960E-01
 8.565024137E-01 2.722263057E-02 -1.696064042E-01
 8.446437120E-01 2.912522759E-02 -1.954836196E-01
 8.330598176E-01 3.092263918E-02 -2.043105879E-01
 8.207384050E-01 3.276758268E-02 -2.105499821E-01
 8.079442680E-01 3.467195854E-02 -2.308299149E-01
 7.955276966E-01 3.648530133E-02 -2.497681594E-01
 7.831059396E-01 3.822644427E-02 -2.543045612E-01
 7.708139420E-01 3.991544992E-02 -2.668175267E-01
 7.584367692E-01 4.159794562E-02 -2.839677762E-01
 7.450354099E-01 4.336916842E-02 -2.953512273E-01
 7.326673865E-01 4.497024976E-02 -3.139103293E-01
 7.215080559E-01 4.637853801E-02 -3.241629454E-01
 7.099153101E-01 4.780467972E-02 -3.434909887E-01
 6.972543299E-01 4.930472746E-02 -3.522798537E-01
 6.839263141E-01 5.082448758E-02 -3.642134076E-01
 6.719935536E-01 5.215409212E-02 -3.815183601E-01
 6.607455611E-01 5.336025916E-02 -3.929240891E-01
 6.493182480E-01 5.454229191E-02 -4.095460319E-01
 6.376452446E-01 5.569183640E-02 -4.199274393E-01
 6.257620752E-01 5.679993331E-02 -4.284268081E-01
 6.146204174E-01 5.779516324E-02 -4.403900091E-01
 6.031026840E-01 5.877647921E-02 -4.554009439E-01
 5.909597278E-01 5.974347517E-02 -4.655887662E-01
 5.780497789E-01 6.068952382E-02 -4.757232363E-01
 5.645692647E-01 6.159482524E-02 -4.830324446E-01
 5.514363348E-01 6.239157729E-02 -4.909506664E-01
 5.391409099E-01 6.306944042E-02 -4.993015025E-01
 5.273173153E-01 6.364695355E-02 -5.057395136E-01
 5.148061216E-01 6.417939067E-02 -5.073140033E-01
 5.029266775E-01 6.461476535E-02 -5.123543312E-01
 4.908201694E-01 6.498369202E-02 -5.114960575E-01
 4.776324779E-01 6.531343609E-02 -5.163802257E-01
 4.640348554E-01 6.556175649E-02 -5.147760201E-01
 4.499226660E-01 6.572717056E-02 -5.153941180E-01
 4.362671673E-01 6.580116972E-02 -5.175500679E-01
 4.229796082E-01 6.577542797E-02 -5.089029181E-01
 4.100398272E-01 6.567897275E-02 -5.095630114E-01
 3.972759843E-01 6.551304832E-02 -5.047791446E-01
 3.847334236E-01 6.527904794E-02 -5.027878128E-01
 3.729731292E-01 6.499922276E-02 -5.026959837E-01
 3.605040014E-01 6.462307647E-02 -4.928312311E-01
 3.475835025E-01 6.416867673E-02 -4.902321569E-01
 3.351054490E-01 6.366524473E-02 -4.864288076E-01
 3.236344904E-01 6.313876808E-02 -4.838478652E-01
 3.123647124E-01 6.255535036E-02 -4.757642989E-01
 2.998918593E-01 6.184913032E-02 -4.707539687E-01
 2.865580171E-01 6.102024205E-02 -4.642519616E-01
 2.734896839E-01 6.013138965E-02 -4.601036732E-01
 2.614250630E-01 5.923271365E-02 -4.520880954E-01
 2.492535785E-01 5.825554207E-02 -4.458781280E-01
 2.366877422E-01 5.717453733E-02 -4.381483726E-01
 2.243303582E-01 5.603563599E-02 -4.316063280E-01
 2.124506533E-01 5.486842245E-02 -4.269966398E-01
 2.008790970E-01 5.365110002E-02 -4.156825907E-01
 1.891000196E-01 5.233765952E-02 -4.088915289E-01
 1.771995500E-01 5.093771406E-02 -4.030014091E-01
 1.655795872E-01 4.947898351E-02 -3.932541015E-01
 1.539947465E-01 4.793667980E-02 -3.838149667E-01
 1.428825408E-01 4.637391679E-02 -3.765781700E-01
 1.320020258E-01 4.475124925E-02 -3.677222050E-01
 1.208520085E-01 4.298777506E-02 -3.554979203E-01
 1.100346558E-01 4.117721319E-02 -3.504161899E-01
 8.983220533E-02 3.746844269E-02 -3.275313715E-01
 7.872617617E-02 3.522080928E-02 -3.136580386E-01
 7.283122838E-02 -3.901882656E-02 -2.335466634E-01
 9.312187508E-02 -4.351950809E-02 -2.724418805E-01
 1.039251685E-01 -4.564986192E-02 -2.863038092E-01
 1.152081266E-01 -4.771462269E-02 -2.995730456E-01
 1.267022528E-01 -4.967355914E-02 -3.140273349E-01
 1.375761554E-01 -5.140840635E-02 -3.268217551E-01
 1.482344046E-01 -5.300154351E-02 -3.370695742E-01
 1.597166434E-01 -5.461288616E-02 -3.494431132E-01
 1.714035496E-01 -5.614677817E-02 -3.633862339E-01
 1.829327643E-01 -5.755680241E-02 -3.739704009E-01
 1.938915998E-01 -5.881080590E-02 -3.849714371E-01
 2.046165019E-01 -5.995598994E-02 -3.942352146E-01
 2.161934823E-01 -6.110185571E-02 -4.056867441E-01
 2.281826511E-01 -6.219377555E-02 -4.156290807E-01
 2.400754392E-01 -6.318727881E-02 -4.266994670E-01
 2.522298917E-01 -6.410875171E-02 -4.393088208E-01
 2.639293373E-01 -6.490040570E-02 -4.529310086E-01
 2.756724507E-01 -6.559275091E-02 -4.577527677E-01
 2.880194038E-01 -6.621994078E-02 -4.712354642E-01
 3.005361706E-01 -6.673721597E-02 -4.769193422E-01
 3.127528876E-01 -6.713473424E-02 -4.871683844E-01
 3.247862756E-01 -6.740376353E-02 -4.890248895E-01
 3.362361938E-01 -6.756767631E-02 -4.949144053E-01
 3.471100628E-01 -6.761918217E-02 -4.983484778E-01
 3.583061546E-01 -6.757207215E-02 -4.965084214E-01
 3.692096025E-01 -6.743123382E-02 -5.024941502E-01
 3.803121150E-01 -6.716294587E-02 -4.955268012E-01
 3.924878389E-01 -6.674304232E-02 -4.819404445E-01
 4.049322754E-01 -6.619461998E-02 -4.789281153E-01
 4.173717350E-01 -6.550256908E-02 -4.632970142E-01
 4.301067293E-01 -6.465594098E-02 -4.471781983E-01
 4.428874254E-01 -6.367260218E-02 -4.256455341E-01
 4.555669278E-01 -6.257364899E-02 -4.075047213E-01
 4.680026323E-01 -6.136595085E-02 -3.810491799E-01
 4.802218080E-01 -6.008234248E-02 -3.549113743E-01
 4.924198091E-01 -5.870742910E-02 -3.337546924E-01
 5.054435283E-01 -5.712881126E-02 -3.037774056E-01
 5.189215839E-01 -5.538353510E-02 -2.705206228E-01
 5.320480764E-01 -5.362080783E-02 -2.355259962E-01
 5.452582240E-01 -5.178898759E-02 -2.148283714E-01
 5.585441887E-01 -4.987831414E-02 -1.810666044E-01
 5.716943741E-01 -4.795162566E-02 -1.553331549E-01
 5.848498940E-01 -4.599860683E-02 -1.314042432E-01
 5.977305770E-01 -4.404447041E-02 -1.107853782E-01
 6.106878221E-01 -4.203470238E-02 -8.007311624E-02
 6.242415309E-01 -3.992609680E-02 -5.404930218E-02
 6.381585598E-01 -3.777715378E-02 -3.266952498E-02
 6.517283618E-01 -3.567846306E-02 -1.674410839E-02
 6.650175452E-01 -3.358825855E-02 8.264567312E-03
 6.781142950E-01 -3.154754825E-02 3.269866008E-02
 6.907032430E-01 -2.960934304E-02 4.393163760E-02
 7.043754458E-01 -2.749327105E-02 6.561991186E-02
 7.184362113E-01 -2.533207834E-02 8.775107108E-02
 7.307753265E-01 -2.346044034E-02 1.030915706E-01
 7.429110110E-01 -2.161619626E-02 1.200858941E-01
 7.557913661E-01 -1.968295220E-02 1.453889707E-01
 7.691034675E-01 -1.776050311E-02 1.590663149E-01
 7.820882499E-01 -1.592398761E-02 1.711758009E-01
 7.945949733E-01 -1.416302985E-02 1.888057675E-01
 8.064084053E-01 -1.252061129E-02 2.103894397E-01
 8.175013363E-01 -1.103052450E-02 2.273693937E-01
 8.292574286E-01 -9.518557694E-03 2.417477418E-01
 8.415372372E-01 -8.006684715E-03 2.579586706E-01
 8.537536561E-01 -6.579677109E-03 2.741717791E-01
 8.654152453E-01 -5.299783777E-03 2.896661330E-01
 8.767723441E-01 -4.149622866E-03 3.023568797E-01
 8.888386488E-01 -3.037753631E-03 3.145361559E-01
 9.001676738E-01 -2.100308542E-03 3.290834425E-01
 9.104545414E-01 -1.372194674E-03 3.349146985E-01
 9.409769475E-01 1.542403243E-04 3.473209899E-01
 9.541909695E-01 5.116345274E-04 3.500110513E-01
 9.688432217E-01 7.116395864E-04 3.555138889E-01
 9.829606414E-01 7.210337499E-04 3.705476896E-01
 9.949347079E-01 5.992865772E-04 4.326191491E-01
 -5.000000000E-01 9.500000000E-01 9.345487277E-04
 -5.000000000E-01 9.000000000E-01 1.776994826E-03
 -5.000000000E-01 8.500000000E-01 3.043540958E-03
 -5.000000000E-01 8.000000000E-01 4.959908906E-03
 -5.000000000E-01 7.500000000E-01 7.511647011E-03
 -5.000000000E-01 7.000000000E-01 1.087034972E-02
 -5.000000000E-01 6.500000000E-01 1.507495692E-02
 -5.000000000E-01 6.000000000E-01 1.995324166E-02
 -5.000000000E-01 5.500000000E-01 2.590387977E-02
 -5.000000000E-01 5.000000000E-01 3.258700202E-02
 -5.000000000E-01 4.500000000E-01 4.007854768E-02
 -5.000000000E-01 4.000000000E-01 4.838089332E-02
 -5.000000000E-01 3.500000000E-01 5.712678858E-02
 -5.000000000E-01 3.000000000E-01 6.618296279E-02
 -5.000000000E-01 2.500000000E-01 7.532579557E-02
 -5.000000000E-01 2.000000000E-01 8.410131730E-02
 -5.000000000E-01 1.500000000E-01 9.198556607E-02
 -5.000000000E-01 1.000000000E-01 9.866983089E-02
 -5.000000000E-01 5.000000000E-02 1.037787673E-01
 -5.000000000E-01 2.752242878E-12 1.069339395E-01
 -5.000000000E-01 -5.000000000E-02 1.078690587E-01
 -5.000000000E-01 -1.000000000E-01 1.070607266E-01
 -5.000000000E-01 -1.500000000E-01 1.041448724E-01
 -5.000000000E-01 -2.000000000E-01 9.980284777E-02
 -5.000000000E-01 -2.500000000E-01 9.426963583E-02
 -5.000000000E-01 -3.000000000E-01 8.790185806E-02
 -5.000000000E-01 -3.500000000E-01 8.115397548E-02
 -5.000000000E-01 -4.000000000E-01 7.427977973E-02
 -5.000000000E-01 -4.500000000E-01 6.746725506E-02
 -5.000000000E-01 -5.000000000E-01 6.106084537E-02
 -5.000000000E-01 -5.500000000E-01 5.496459955E-02
 -5.000000000E-01 -6.000000000E-01 4.938436915E-02
 -5.000000000E-01 -6.500000000E-01 4.425442511E-02
 -5.000000000E-01 -7.000000000E-01 3.960669795E-02
 -5.000000000E-01 -7.500000000E-01 3.525250969E-02
 -5.000000000E-01 -8.000000000E-01 3.128267157E-02
 -5.000000000E-01 -8.500000000E-01 2.733212958E-02
 -5.000000000E-01 -9.000000000E-01 2.313303375E-02
 -5.000000000E-01 -9.500000000E-01 1.714676718E-02
 -4.500000000E-01 -1.000000000E+00 1.564198970E-02
 -4.000000000E-01 -1.000000000E+00 2.019054127E-02
 -3.500000000E-01 -1.000000000E+00 2.211612293E-02
 -3.000000000E-01 -1.000000000E+00 2.280176740E-02
 -2.500000000E-01 -1.000000000E+00 2.274870553E-02
 -2.000000000E-01 -1.000000000E+00 2.177019432E-02
 -1.500000000E-01 -1.000000000E+00 2.015870117E-02
 -1.000000000E-01 -1.000000000E+00 1.765531277E-02
 -5.000000000E-02 -1.000000000E+00 1.465274904E-02
 -9.424683256E-13 -1.000000000E+00 1.097712707E-02
 5.000000000E-02 -1.000000000E+00 6.979929567E-03
 1.000000000E-01 -1.000000000E+00 2.714454140E-03
 1.500000000E-01 -1.000000000E+00 -1.452802193E-03
 2.000000000E-01 -1.000000000E+00 -5.597925625E-03
 2.500000000E-01 -1.000000000E+00 -9.396749536E-03
 3.000000000E-01 -1.000000000E+00 -1.272072237E-02
 3.500000000E-01 -1.000000000E+00 -1.545276738E-02
 4.000000000E-01 -1.000000000E+00 -1.742032950E-02
 4.500000000E-01 -1.000000000E+00 -1.857773541E-02
 5.000000000E-01 -1.000000000E+00 -1.885372282E-02
 5.500000000E-01 -1.000000000E+00 -1.826329423E-02
 6.000000000E-01 -1.000000000E+00 -1.684898291E-02
 6.500000000E-01 -1.000000000E+00 -1.466033251E-02
 7.000000000E-01 -1.000000000E+00 -1.186944100E-02
 7.500000000E-01 -1.000000000E+00 -8.508814618E-03
 8.000000000E-01 -1.000000000E+00 -4.810823119E-03
 8.500000000E-01 -1.000000000E+00 -9.797781245E-04
 9.000000000E-01 -1.000000000E+00 3.027576246E-03
 9.500000000E-01 -1.000000000E+00 6.910255180E-03
 1.000000000E+00 -1.000000000E+00 1.068711728E-02
 1.050000000E+00 -1.000000000E+00 1.414445009E-02
 1.100000000E+00 -1.000000000E+00 1.722487799E-02
 1.150000000E+00 -1.000000000E+00 2.004684919E-02
 1.200000000E+00 -1.000000000E+00 2.249011956E-02
 1.250000000E+00 -1.000000000E+00 2.451635504E-02
 1.300000000E+00 -1.000000000E+00 2.615319957E-02
 1.350000000E+00 -1.000000000E+00 2.748968547E-02
 1.400000000E+00 -1.000000000E+00 2.845306818E-02
 1.450000000E+00 -1.000000000E+00 2.914391662E-02
 1.500000000E+00 -1.000000000E+00 2.962663251E-02
 1.550000000E+00 -1.000000000E+00 2.977656863E-02
 1.600000000E+00 -1.000000000E+00 2.984702420E-02
 1.650000000E+00 -1.000000000E+00 2.970175288E-02
 1.700000000E+00 -1.000000000E+00 2.942566134E-02
 1.750000000E+00 -1.000000000E+00 2.909385705E-02
 1.800000000E+00 -1.000000000E+00 2.861916341E-02
 1.850000000E+00 -1.000000000E+00 2.814978929E-02
 1.900000000E+00 -1.000000000E+00 2.755289041E-02
 1.950000000E+00 -1.000000000E+00 2.699207593E-02
 2.000000000E+00 -1.000000000E+00 2.642549751E-02
 2.050000000E+00 -1.000000000E+00 2.581793660E-02
 2.100000000E+00 -1.000000000E+00 2.528680450E-02
 2.150000000E+00 -1.000000000E+00 2.464834109E-02
 2.200000000E+00 -1.000000000E+00 2.416240824E-02
 2.250000000E+00 -1.000000000E+00 2.354241903E-02
 2.300000000E+00 -1.000000000E+00 2.304860009E-02
 2.350000000E+00 -1.000000000E+00 2.255982965E-02
 2.400000000E+00 -1.000000000E+00 2.212494929E-02
 2.450000000E+00 -1.000000000E+00 2.171590105E-02
 2.500000000E+00 -1.000000000E+00 2.132486535E-02
 2.550000000E+00 -1.000000000E+00 2.094659660E-02
 2.600000000E+00 -1.000000000E+00 2.063033238E-02
 2.650000000E+00 -1.000000000E+00 2.033792634E-02
 2.700000000E+00 -1.000000000E+00 2.003375036E-02
 2.750000000E+00 -1.000000000E+00 1.980075357E-02
 2.800000000E+00 -1.000000000E+00 1.955291864E-02
 2.850000000E+00 -1.000000000E+00 1.933081715E-02
 2.900000000E+00 -1.000000000E+00 1.913306934E-02
 2.950000000E+00 -1.000000000E+00 1.891530920E-02
 3.000000000E+00 -1.000000000E+00 1.868885448E-02
 3.050000000E+00 -1.000000000E+00 1.845419215E-02
 3.100000000E+00 -1.000000000E+00 1.812581218E-02
 3.150000000E+00 -1.000000000E+00 1.783520400E-02
 3.200000000E+00 -1.000000000E+00 1.730916757E-02
 3.250000000E+00 -1.000000000E+00 1.675138783E-02
 3.300000000E+00 -1.000000000E+00 1.595578361E-02
 3.350000000E+00 -1.000000000E+00 1.480917203E-02
 3.400000000E+00 -1.000000000E+00 1.312376534E-02
 3.450000000E+00 -1.000000000E+00 1.035415663E-02
 3.500000000E+00 -9.500000000E-01 6.434140571E-03
 3.500000000E+00 -9.000000000E-01 7.968958176E-03
 3.500000000E+00 -8.500000000E-01 9.338363231E-03
 3.500000000E+00 -8.000000000E-01 1.083574971E-02
 3.500000000E+00 -7.500000000E-01 1.233083580E-02
 3.500000000E+00 -7.000000000E-01 1.386158214E-02
 3.500000000E+00 -6.500000000E-01 1.548832423E-02
 3.500000000E+00 -6.000000000E-01 1.723571218E-02
 3.500000000E+00 -5.500000000E-01 1.920144956E-02
 3.500000000E+00 -5.000000000E-01 2.124245248E-02
 3.500000000E+00 -4.500000000E-01 2.353150601E-02
 3.500000000E+00 -4.000000000E-01 2.586794676E-02
 3.500000000E+00 -3.500000000E-01 2.833414608E-02
 3.500000000E+00 -3.000000000E-01 3.062393825E-02
 3.500000000E+00 -2.500000000E-01 3.251818249E-02
 3.500000000E+00 -2.000000000E-01 3.371768054E-02
 3.500000000E+00 -1.500000000E-01 3.409007346E-02
 3.500000000E+00 -1.000000000E-01 3.373999321E-02
 3.500000000E+00 -5.000000000E-02 3.304457300E-02
 3.500000000E+00 -2.752242878E-12 3.250474130E-02
 3.500000000E+00 5.000000000E-02 3.177740172E-02
 3.500000000E+00 1.000000000E-01 3.061258480E-02
 3.500000000E+00 1.500000000E-01 2.883725072E-02
 3.500000000E+00 2.000000000E-01 2.618974022E-02
 3.500000000E+00 2.500000000E-01 2.317912694E-02
 3.500000000E+00 3.000000000E-01 1.997669292E-02
 3.500000000E+00 3.500000000E-01 1.696129005E-02
 3.500000000E+00 4.000000000E-01 1.413895947E-02
 3.500000000E+00 4.500000000E-01 1.140209645E-02
 3.500000000E+00 5.000000000E-01 9.098701718E-03
 3.500000000E+00 5.500000000E-01 6.998608036E-03
 3.500000000E+00 6.000000000E-01 5.582192019E-03
 3.500000000E+00 6.500000000E-01 4.819531523E-03
 3.500000000E+00 7.000000000E-01 4.506644842E-03
 3.500000000E+00 7.500000000E-01 3.904722234E-03
 3.500000000E+00 8.000000000E-01 1.682950565E-03
 3.500000000E+00 8.500000000E-01 -3.772044481E-03
 3.500000000E+00 9.000000000E-01 -1.107186043E-02
 3.500000000E+00 9.500000000E-01 -2.026497383E-02
 3.450000000E+00 1.000000000E+00 -1.143685006E-02
 3.400000000E+00 1.000000000E+00 -4.184999568E-03
 3.350000000E+00 1.000000000E+00 -5.389771902E-04
 3.300000000E+00 1.000000000E+00 9.389651991E-04
 3.250000000E+00 1.000000000E+00 2.008220672E-03
 3.200000000E+00 1.000000000E+00 2.416357719E-03
 3.150000000E+00 1.000000000E+00 2.713159401E-03
 3.100000000E+00 1.000000000E+00 2.597914033E-03
 3.050000000E+00 1.000000000E+00 2.454404189E-03
 3.000000000E+00 1.000000000E+00 2.052858587E-03
 2.950000000E+00 1.000000000E+00 1.662784487E-03
 2.900000000E+00 1.000000000E+00 1.078068470E-03
 2.850000000E+00 1.000000000E+00 5.565504732E-04
 2.800000000E+00 1.000000000E+00 -1.899580886E-04
 2.750000000E+00 1.000000000E+00 -8.174860323E-04
 2.700000000E+00 1.000000000E+00 -1.725640093E-03
 2.650000000E+00 1.000000000E+00 -2.480689739E-03
 2.600000000E+00 1.000000000E+00 -3.571944182E-03
 2.550000000E+00 1.000000000E+00 -4.521912449E-03
 2.500000000E+00 1.000000000E+00 -5.644172823E-03
 2.450000000E+00 1.000000000E+00 -6.701371184E-03
 2.400000000E+00 1.000000000E+00 -7.958760079E-03
 2.350000000E+00 1.000000000E+00 -9.152864012E-03
 2.300000000E+00 1.000000000E+00 -1.055166702E-02
 2.250000000E+00 1.000000000E+00 -1.213174593E-02
 2.200000000E+00 1.000000000E+00 -1.355219112E-02
 2.150000000E+00 1.000000000E+00 -1.553605364E-02
 2.100000000E+00 1.000000000E+00 -1.697335576E-02
 2.050000000E+00 1.000000000E+00 -1.904246820E-02
 2.000000000E+00 1.000000000E+00 -2.106878808E-02
 1.950000000E+00 1.000000000E+00 -2.317676324E-02
 1.900000000E+00 1.000000000E+00 -2.567810445E-02
 1.850000000E+00 1.000000000E+00 -2.819162456E-02
 1.800000000E+00 1.000000000E+00 -3.093112806E-02
 1.750000000E+00 1.000000000E+00 -3.397188155E-02
 1.700000000E+00 1.000000000E+00 -3.735015801E-02
 1.650000000E+00 1.000000000E+00 -4.048834955E-02
 1.600000000E+00 1.000000000E+00 -4.430638823E-02
 1.550000000E+00 1.000000000E+00 -4.769303423E-02
 1.500000000E+00 1.000000000E+00 -5.209805616E-02
 1.450000000E+00 1.000000000E+00 -5.673022566E-02
 1.400000000E+00 1.000000000E+00 -6.134586283E-02
 1.350000000E+00 1.000000000E+00 -6.625807444E-02
 1.300000000E+00 1.000000000E+00 -7.136081191E-02
 1.250000000E+00 1.000000000E+00 -7.663238837E-02
 1.200000000E+00 1.000000000E+00 -8.230708923E-02
 1.150000000E+00 1.000000000E+00 -8.747483057E-02
 1.100000000E+00 1.000000000E+00 -9.292265306E-02
 1.050000000E+00 1.000000000E+00 -9.774034486E-02
 1.000000000E+00 1.000000000E+00 -1.024930042E-01
 9.500000000E-01 1.000000000E+00 -1.068908731E-01
 9.000000000E-01 1.000000000E+00 -1.106871065E-01
 8.500000000E-01 1.000000000E+00 -1.137784226E-01
 8.000000000E-01 1.000000000E+00 -1.159427385E-01
 7.500000000E-01 1.000000000E+00 -1.170947523E-01
 7.000000000E-01 1.000000000E+00 -1.171545992E-01
 6.500000000E-01 1.000000000E+00 -1.163755009E-01
 6.000000000E-01 1.000000000E+00 -1.140186563E-01
 5.500000000E-01 1.000000000E+00 -1.107914970E-01
 5.000000000E-01 1.000000000E+00 -1.063138216E-01
 4.500000000E-01 1.000000000E+00 -1.010294264E-01
 4.000000000E-01 1.000000000E+00 -9.527783962E-02
 3.500000000E-01 1.000000000E+00 -8.739289808E-02
 3.000000000E-01 1.000000000E+00 -8.005153207E-02
 2.500000000E-01 1.000000000E+00 -7.183295026E-02
 2.000000000E-01 1.000000000E+00 -6.361275998E-02
 1.500000000E-01 1.000000000E+00 -5.547701490E-02
 1.000000000E-01 1.000000000E+00 -4.736642523E-02
 5.000000000E-02 1.000000000E+00 -3.949172901E-02
 1.733724275E-12 1.000000000E+00 -3.207384651E-02
 -5.000000000E-02 1.000000000E+00 -2.528199986E-02
 -1.000000000E-01 1.000000000E+00 -1.916802648E-02
 -1.500000000E-01 1.000000000E+00 -1.395322109E-02
 -2.000000000E-01 1.000000000E+00 -9.430724005E-03
 -2.500000000E-01 1.000000000E+00 -5.806824271E-03
 -3.000000000E-01 1.000000000E+00 -3.008063545E-03
 -3.500000000E-01 1.000000000E+00 -1.058669047E-03
 -4.000000000E-01 1.000000000E+00 1.723031191E-04
 -4.500000000E-01 1.000000000E+00 5.692102219E-04
 9.030189827E-01 -6.206495091E-03 3.236134002E-01
 8.268675508E-01 -1.506745101E-02 2.342443549E-01
 9.859977957E-01 -3.719640537E-03 3.744676017E-01
 7.529376000E-01 -2.617760371E-02 1.356137333E-01
 6.824115825E-01 -3.566520990E-02 3.280406180E-02
 6.148823307E-01 -4.724323924E-02 -7.282516757E-02
 5.494590100E-01 -5.706073767E-02 -1.994927532E-01
 4.899601360E-01 -6.565453314E-02 -3.287637622E-01
 4.336475031E-01 -6.987916688E-02 -4.291997228E-01
 3.774876314E-01 -7.233419336E-02 -4.848067916E-01
 3.215740114E-01 -7.256016862E-02 -4.774770103E-01
 2.611145545E-01 -6.959618113E-02 -4.397020780E-01
 2.068813109E-01 -6.480360688E-02 -3.893716216E-01