TITLE     = "Visualization of the solution"
VARIABLES = "x"
"y"
"Pressure_Coefficient"
ZONE T="Zone"
 STRANDID=0, SOLUTIONTIME=0
 Nodes=11903, Elements=23224, ZONETYPE=FEQuadrilateral
 DATAPACKING=POINT
 DT=(DOUBLE DOUBLE DOUBLE )
 9.997393489E-01 5.155015970E-04 2.652334981E-01
 9.877214432E-01 3.089884296E-03 2.128049821E-01
 9.749519825E-01 5.761725828E-03 1.436124028E-01
 9.589529634E-01 9.169611149E-03 7.790485318E-02
 9.442908764E-01 1.224347204E-02 3.753954069E-02
 9.302017689E-01 1.523010153E-02 -4.363823213E-03
 9.191212058E-01 1.758372039E-02 -4.514710402E-02
 9.079420567E-01 1.990308799E-02 -7.485575902E-02
 8.967673779E-01 2.218810283E-02 -1.102519496E-01
 8.852279186E-01 2.444066480E-02 -1.214405056E-01
 8.734959960E-01 2.674998157E-02 -1.613768448E-01
 8.611346483E-01 2.903861552E-02 -1.691101548E-01
 8.490650654E-01 3.127941862E-02 -1.980313455E-01
 8.382202983E-01 3.322785720E-02 -2.164893465E-01
 8.265919685E-01 3.525719792E-02 -2.338514497E-01
 8.136370778E-01 3.743520007E-02 -2.413611321E-01
 8.008171320E-01 3.958284482E-02 -2.631128713E-01
 7.881076932E-01 4.166344181E-02 -2.832313186E-01
 7.755455375E-01 4.366954416E-02 -3.054071157E-01
 7.636653781E-01 4.549025744E-02 -3.148655389E-01
 7.503110766E-01 4.750119522E-02 -3.333432467E-01
 7.363361716E-01 4.953766614E-02 -3.485181411E-01
 7.256525159E-01 5.107451603E-02 -3.713921998E-01
 7.143204212E-01 5.262814462E-02 -3.778556850E-01
 7.026095986E-01 5.421846360E-02 -4.024278352E-01
 6.889066696E-01 5.595941842E-02 -4.057083377E-01
 6.758574843E-01 5.760959908E-02 -4.332863892E-01
 6.654748917E-01 5.885571614E-02 -4.466637043E-01
 6.539092064E-01 6.018497422E-02 -4.589504272E-01
 6.420236230E-01 6.149178371E-02 -4.742469210E-01
 6.301339865E-01 6.272266060E-02 -4.834777420E-01
 6.184481978E-01 6.387619674E-02 -4.944852463E-01
 6.078304648E-01 6.487938017E-02 -5.061573156E-01
 5.954841971E-01 6.598649919E-02 -5.259306611E-01
 5.840258002E-01 6.692237407E-02 -5.328730680E-01
 5.705322623E-01 6.792968512E-02 -5.400553270E-01
 5.582289696E-01 6.877320260E-02 -5.487872635E-01
 5.460308194E-01 6.953141838E-02 -5.608127429E-01
 5.350744724E-01 7.012126595E-02 -5.560769368E-01
 5.235167146E-01 7.069715858E-02 -5.658160678E-01
 5.112668276E-01 7.120388746E-02 -5.576451474E-01
 5.003561974E-01 7.163701206E-02 -5.744650346E-01
 4.870213270E-01 7.202197611E-02 -5.654793578E-01
 4.735255539E-01 7.233858109E-02 -5.654909515E-01
 4.598893523E-01 7.256548107E-02 -5.620201506E-01
 4.466783404E-01 7.271777838E-02 -5.665721100E-01
 4.339725077E-01 7.276768982E-02 -5.616935789E-01
 4.212830961E-01 7.274149358E-02 -5.565497342E-01
 4.090895057E-01 7.265601307E-02 -5.548445724E-01
 3.968481719E-01 7.250545174E-02 -5.542182347E-01
 3.846510649E-01 7.228051126E-02 -5.514753859E-01
 3.728076816E-01 7.198893279E-02 -5.435522837E-01
 3.596200943E-01 7.160228491E-02 -5.422922431E-01
 3.467762172E-01 7.114005089E-02 -5.345455634E-01
 3.335571587E-01 7.059690356E-02 -5.324705515E-01
 3.223641217E-01 7.007160038E-02 -5.253504062E-01
 3.096427619E-01 6.942251325E-02 -5.272714431E-01
 2.963305116E-01 6.863845885E-02 -5.189808067E-01
 2.823850811E-01 6.773054600E-02 -5.160342389E-01
 2.701534331E-01 6.684348732E-02 -5.068010950E-01
 2.584544420E-01 6.593897939E-02 -5.056315250E-01
 2.459664494E-01 6.487327069E-02 -4.958960126E-01
 2.337375879E-01 6.375475973E-02 -4.904571418E-01
 2.214114368E-01 6.253411621E-02 -4.803513782E-01
 2.095538974E-01 6.128932163E-02 -4.774529355E-01
 1.977987587E-01 5.995406955E-02 -4.669516766E-01
 1.856578737E-01 5.848775432E-02 -4.596203062E-01
 1.738765389E-01 5.696545914E-02 -4.520725163E-01
 1.626421660E-01 5.540984124E-02 -4.385205762E-01
 1.507693231E-01 5.367364362E-02 -4.324637915E-01
 1.402689815E-01 5.202983320E-02 -4.204619139E-01
 1.285524666E-01 5.007053912E-02 -4.068025719E-01
 1.172811091E-01 4.805926606E-02 -3.943824970E-01
 1.068179309E-01 4.606186599E-02 -3.774767350E-01
 9.713200480E-02 4.409766197E-02 -3.633328394E-01
 8.615066111E-02 4.170712084E-02 -3.419916086E-01
 7.449291646E-02 3.896456212E-02 -3.209582236E-01
 6.453805417E-02 3.641839325E-02 -2.942657893E-01
 5.465317890E-02 3.366495669E-02 -2.601774229E-01
 4.602629691E-02 3.105516545E-02 -2.307649557E-01
 3.856786340E-02 2.858672105E-02 -1.947300595E-01
 3.194449097E-02 2.619617060E-02 -1.527773040E-01
 2.626137249E-02 2.394962683E-02 -1.159469888E-01
 2.208657190E-02 2.216594666E-02 -7.509275171E-02
 1.811900921E-02 2.032033168E-02 -3.599381764E-02
 1.497986075E-02 1.873636059E-02 1.404035273E-02
 1.203603297E-02 1.711892895E-02 6.169631176E-02
 9.862861596E-03 1.581199281E-02 1.106330652E-01
 7.995666005E-03 1.460306440E-02 1.484281985E-01
 6.272266619E-03 1.337907650E-02 2.355972222E-01
 4.029160365E-03 1.157917362E-02 3.387531398E-01
 2.099641133E-03 9.739700705E-03 4.322332974E-01
 5.153477541E-04 7.851420902E-03 6.741242316E-01
 -1.002304023E-03 5.206812639E-03 9.026407150E-01
 -1.597727998E-03 3.228162881E-03 1.054955385E+00
 -1.737163868E-03 1.659213332E-03 1.108999306E+00
 -1.573052141E-03 -5.527743269E-06 1.097683498E+00
 -1.102551934E-03 -1.608593273E-03 9.935978416E-01
 -1.301417797E-04 -3.548040288E-03 8.466136761E-01
 1.305282698E-03 -5.522946827E-03 6.468480265E-01
 3.250593785E-03 -7.550082169E-03 4.782588349E-01
 5.033019930E-03 -9.073203430E-03 3.422496597E-01
 7.065555546E-03 -1.057021320E-02 2.642835648E-01
 8.740134537E-03 -1.167476363E-02 1.863526819E-01
 1.084742602E-02 -1.293869782E-02 1.394062408E-01
 1.320246793E-02 -1.422208082E-02 8.269497780E-02
 1.653125323E-02 -1.585714333E-02 3.615617850E-02
 1.946154982E-02 -1.716710627E-02 -1.494252136E-02
 2.327677980E-02 -1.872263476E-02 -4.662127644E-02
 2.858390287E-02 -2.067399770E-02 -7.891159042E-02
 3.432111070E-02 -2.257720754E-02 -1.127053747E-01
 4.128259420E-02 -2.465013601E-02 -1.358648316E-01
 4.881478101E-02 -2.668644302E-02 -1.579355025E-01
 5.782333761E-02 -2.888705768E-02 -1.724875625E-01
 6.650241464E-02 -3.083049692E-02 -1.895108752E-01
 7.671590149E-02 -3.293753788E-02 -2.012319182E-01
 8.671042323E-02 -3.484348953E-02 -2.142715770E-01
 9.678626060E-02 -3.662227094E-02 -2.215520713E-01
 1.079404503E-01 -3.847146779E-02 -2.322048732E-01
 1.190110371E-01 -4.018828273E-02 -2.423707488E-01
 1.308189183E-01 -4.190566391E-02 -2.528671784E-01
 1.414261609E-01 -4.335351288E-02 -2.612629263E-01
 1.525830179E-01 -4.479955509E-02 -2.729952619E-01
 1.649683565E-01 -4.630536586E-02 -2.828444775E-01
 1.767220050E-01 -4.763991013E-02 -2.912922496E-01
 1.886612177E-01 -4.892359301E-02 -3.039293735E-01
 1.994790882E-01 -5.001015961E-02 -3.137625978E-01
 2.107137293E-01 -5.106534064E-02 -3.229976636E-01
 2.230143696E-01 -5.214508623E-02 -3.342043891E-01
 2.355649322E-01 -5.315285549E-02 -3.434051949E-01
 2.479126006E-01 -5.406429991E-02 -3.557596546E-01
 2.603069246E-01 -5.489097536E-02 -3.682996508E-01
 2.714749575E-01 -5.553797260E-02 -3.719213439E-01
 2.841565907E-01 -5.621328950E-02 -3.893052496E-01
 2.965767980E-01 -5.674448237E-02 -3.913141367E-01
 3.093569279E-01 -5.720864236E-02 -4.035791893E-01
 3.213410974E-01 -5.753544345E-02 -4.110508915E-01
 3.340270519E-01 -5.775927752E-02 -4.124099969E-01
 3.450027108E-01 -5.787310004E-02 -4.219861806E-01
 3.564668596E-01 -5.787816644E-02 -4.210366219E-01
 3.673391044E-01 -5.778886378E-02 -4.220512616E-01
 3.781365156E-01 -5.759789050E-02 -4.161141227E-01
 3.897120655E-01 -5.730176345E-02 -4.130354176E-01
 4.032344520E-01 -5.683107674E-02 -4.097290372E-01
 4.156643748E-01 -5.624568462E-02 -3.992953841E-01
 4.283742607E-01 -5.550560355E-02 -3.832577827E-01
 4.410048127E-01 -5.463009700E-02 -3.608178949E-01
 4.529893696E-01 -5.371693522E-02 -3.498757920E-01
 4.646818340E-01 -5.269620568E-02 -3.237184971E-01
 4.771986902E-01 -5.152429268E-02 -3.067798039E-01
 4.887009859E-01 -5.033482984E-02 -2.792530689E-01
 5.015212297E-01 -4.892981797E-02 -2.527022665E-01
 5.155444741E-01 -4.729894921E-02 -2.223019167E-01
 5.290368199E-01 -4.567104951E-02 -2.007503417E-01
 5.422692895E-01 -4.398616031E-02 -1.721660943E-01
 5.547577143E-01 -4.232758656E-02 -1.416398815E-01
 5.682737827E-01 -4.051738977E-02 -1.190061874E-01
 5.811986923E-01 -3.874996305E-02 -9.612498347E-02
 5.934706926E-01 -3.703233600E-02 -7.094226428E-02
 6.061226130E-01 -3.524186090E-02 -4.539641006E-02
 6.209505796E-01 -3.317442536E-02 -2.961374414E-02
 6.351979375E-01 -3.112583980E-02 6.346271971E-04
 6.502389908E-01 -2.899025939E-02 2.116812903E-02
 6.630576849E-01 -2.718476765E-02 3.720921611E-02
 6.761986017E-01 -2.530239150E-02 6.332950843E-02
 6.885967851E-01 -2.357628383E-02 7.681092461E-02
 7.009319663E-01 -2.187936381E-02 9.073414099E-02
 7.152909040E-01 -1.990850270E-02 1.091151169E-01
 7.281588316E-01 -1.813273132E-02 1.325872098E-01
 7.400799394E-01 -1.655399986E-02 1.440473891E-01
 7.535886168E-01 -1.478404645E-02 1.620381946E-01
 7.656790614E-01 -1.323610824E-02 1.768757067E-01
 7.790350914E-01 -1.157512516E-02 1.907474215E-01
 7.907921672E-01 -1.013617311E-02 2.075323950E-01
 8.033090234E-01 -8.629964665E-03 2.287103926E-01
 8.144941926E-01 -7.390984800E-03 2.347753090E-01
 8.257288933E-01 -6.160347257E-03 2.528789479E-01
 8.385021091E-01 -4.838860594E-03 2.688676901E-01
 8.511250019E-01 -3.657079767E-03 2.773022740E-01
 8.630221486E-01 -2.584131667E-03 2.970457741E-01
 8.746387362E-01 -1.677831402E-03 3.033692857E-01
 8.860205412E-01 -8.709266549E-04 3.162567485E-01
 8.990799785E-01 -1.030221974E-04 3.206305984E-01
 9.088642597E-01 3.915533307E-04 3.302754914E-01
 9.194298983E-01 7.967344718E-04 3.314226315E-01
 9.290508032E-01 1.072607236E-03 3.333557232E-01
 9.377332926E-01 1.251314301E-03 3.370201798E-01
 9.490681291E-01 1.376188360E-03 3.365186408E-01
 9.617146850E-01 1.377306064E-03 3.381833808E-01
 9.756255150E-01 1.213235315E-03 3.419620278E-01
 9.881715775E-01 9.128905367E-04 3.617945882E-01
 -5.000000000E-01 -1.000000000E+00 1.509993244E-02
 3.500000000E+00 -1.000000000E+00 9.034525590E-03
 3.500000000E+00 1.000000000E+00 -2.698264807E-02
 -5.000000000E-01 1.000000000E+00 -1.429217373E-03
 9.937303960E-01 1.802692947E-03 3.158746750E-01
 9.813367128E-01 4.425805062E-03 1.757144006E-01
 9.669524729E-01 7.465668488E-03 1.070436198E-01
 9.516219199E-01 1.070654159E-02 5.805967002E-02
 9.372463226E-01 1.373678679E-02 1.536491634E-02
 9.246614873E-01 1.640691096E-02 -2.717622023E-02
 9.135316312E-01 1.874340419E-02 -6.033148284E-02
 9.023547173E-01 2.104559541E-02 -9.553923446E-02
 8.909976482E-01 2.331438381E-02 -1.122121185E-01
 8.793619573E-01 2.559532318E-02 -1.465329310E-01
 8.673153222E-01 2.789429855E-02 -1.619287232E-01
 8.550998569E-01 3.015901707E-02 -1.850107971E-01
 8.436426818E-01 3.225363791E-02 -2.080059280E-01
 8.324061334E-01 3.424252756E-02 -2.264856001E-01
 8.201145232E-01 3.634619899E-02 -2.351637813E-01
 8.072271049E-01 3.850902244E-02 -2.528338772E-01
 7.944624126E-01 4.062314332E-02 -2.735149049E-01
 7.818266153E-01 4.266649298E-02 -2.957574457E-01
 7.696054578E-01 4.457990080E-02 -3.091617704E-01
 7.569882274E-01 4.649572633E-02 -3.247261070E-01
 7.433236241E-01 4.851943068E-02 -3.391426766E-01
 7.309943438E-01 5.030609109E-02 -3.625030171E-01
 7.199864686E-01 5.185133033E-02 -3.722353993E-01
 7.084650099E-01 5.342330411E-02 -3.944116733E-01
 6.957581341E-01 5.508894101E-02 -4.007105530E-01
 6.823820770E-01 5.678450875E-02 -4.202845515E-01
 6.706661880E-01 5.823265761E-02 -4.408932301E-01
 6.596920490E-01 5.952034518E-02 -4.526411457E-01
 6.479664147E-01 6.083837897E-02 -4.675919027E-01
 6.360788047E-01 6.210722215E-02 -4.782814671E-01
 6.242910922E-01 6.329942867E-02 -4.879906053E-01
 6.131393313E-01 6.437778845E-02 -5.009454275E-01
 6.016573310E-01 6.543293968E-02 -5.169648271E-01
 5.897549987E-01 6.645443663E-02 -5.311440322E-01
 5.772790313E-01 6.742602959E-02 -5.350765390E-01
 5.643806159E-01 6.835144386E-02 -5.445983430E-01
 5.521298945E-01 6.915231049E-02 -5.553190524E-01
 5.405526459E-01 6.982634217E-02 -5.570213862E-01
 5.292955935E-01 7.040921226E-02 -5.638153310E-01
 5.173917711E-01 7.095052302E-02 -5.572341131E-01
 5.058115125E-01 7.142044976E-02 -5.727608854E-01
 4.936887622E-01 7.182949409E-02 -5.684805879E-01
 4.802734405E-01 7.218027860E-02 -5.658357161E-01
 4.667074531E-01 7.245203108E-02 -5.625455609E-01
 4.532838464E-01 7.264162973E-02 -5.650494225E-01
 4.403254241E-01 7.274273410E-02 -5.639665506E-01
 4.276278019E-01 7.275459170E-02 -5.582353611E-01
 4.151863009E-01 7.269875333E-02 -5.556623451E-01
 4.029688388E-01 7.258073241E-02 -5.548465378E-01
 3.907496184E-01 7.239298150E-02 -5.530534532E-01
 3.787293732E-01 7.213472202E-02 -5.473012254E-01
 3.662138879E-01 7.179560885E-02 -5.434829088E-01
 3.531981558E-01 7.137116790E-02 -5.379340643E-01
 3.401666880E-01 7.086847723E-02 -5.325965266E-01
 3.279606402E-01 7.033425197E-02 -5.284780487E-01
 3.160034418E-01 6.974705681E-02 -5.283024908E-01
 3.029866368E-01 6.903048605E-02 -5.233201259E-01
 2.893577963E-01 6.818450242E-02 -5.171355390E-01
 2.762692571E-01 6.728701666E-02 -5.097244566E-01
 2.643039376E-01 6.639123335E-02 -5.084836878E-01
 2.522104457E-01 6.540612504E-02 -4.999975771E-01
 2.398520187E-01 6.431401521E-02 -4.938511535E-01
 2.275745124E-01 6.314443797E-02 -4.842934706E-01
 2.154826671E-01 6.191171892E-02 -4.800344990E-01
 2.036763281E-01 6.062169559E-02 -4.721430194E-01
 1.917283162E-01 5.922091193E-02 -4.634173760E-01
 1.797672063E-01 5.772660673E-02 -4.561411674E-01
 1.682593524E-01 5.618765019E-02 -4.452392938E-01
 1.567057446E-01 5.454174243E-02 -4.351989853E-01
 1.455191523E-01 5.285173841E-02 -4.287563598E-01
 1.344107240E-01 5.105018616E-02 -4.137483833E-01
 1.229167879E-01 4.906490259E-02 -4.001518283E-01
 1.120495200E-01 4.706056602E-02 -3.885291652E-01
 9.164133295E-02 4.290239140E-02 -3.564709153E-01
 8.032178879E-02 4.033584148E-02 -3.305989133E-01
 6.951548532E-02 3.769147769E-02 -3.091369503E-01
 5.959561653E-02 3.504167497E-02 -2.829222585E-01
 7.160915807E-02 -3.188401740E-02 -1.956647178E-01
 8.171316236E-02 -3.389051370E-02 -2.092708591E-01
 9.174834192E-02 -3.573288023E-02 -2.193917400E-01
 1.023633555E-01 -3.754686937E-02 -2.256049281E-01
 1.134757437E-01 -3.932987526E-02 -2.382140521E-01
 1.249149777E-01 -4.104697332E-02 -2.472215328E-01
 1.361225396E-01 -4.262958840E-02 -2.590189427E-01
 1.470045894E-01 -4.407653399E-02 -2.661744487E-01
 1.587756872E-01 -4.555246048E-02 -2.772795942E-01
 1.708451807E-01 -4.697263800E-02 -2.882722741E-01
 1.826916113E-01 -4.828175157E-02 -2.966569102E-01
 1.940701529E-01 -4.946687631E-02 -3.101414956E-01
 2.050964087E-01 -5.053775012E-02 -3.179534584E-01
 2.168640494E-01 -5.160521343E-02 -3.271544739E-01
 2.292896509E-01 -5.264897086E-02 -3.390161622E-01
 2.417387664E-01 -5.360857770E-02 -3.491482816E-01
 2.541097626E-01 -5.447763763E-02 -3.616922649E-01
 2.658909410E-01 -5.521447398E-02 -3.723800620E-01
 2.778157741E-01 -5.587563105E-02 -3.771030086E-01
 2.903666943E-01 -5.647888593E-02 -3.926257199E-01
 3.029668629E-01 -5.697656237E-02 -3.956396164E-01
 3.153490126E-01 -5.737204291E-02 -4.083655020E-01
 3.276840746E-01 -5.764736049E-02 -4.118068865E-01
 3.395148814E-01 -5.781618878E-02 -4.174396851E-01
 3.507347852E-01 -5.787563324E-02 -4.220764176E-01
 3.619029820E-01 -5.783351511E-02 -4.220801933E-01
 3.727378100E-01 -5.769337714E-02 -4.200462024E-01
 3.839242905E-01 -5.744982697E-02 -4.133074425E-01
 3.964732587E-01 -5.706642009E-02 -4.088904486E-01
 4.094494134E-01 -5.653838068E-02 -4.071505114E-01
 4.220193177E-01 -5.587564409E-02 -3.915170609E-01
 4.346895367E-01 -5.506785028E-02 -3.736978617E-01
 4.469970912E-01 -5.417351611E-02 -3.544109137E-01
 4.588356018E-01 -5.320657045E-02 -3.394452912E-01
 4.709402621E-01 -5.211024918E-02 -3.136371584E-01
 4.829498380E-01 -5.092956126E-02 -2.955234866E-01
 4.951111078E-01 -4.963232391E-02 -2.655713439E-01
 5.085328519E-01 -4.811438359E-02 -2.376642101E-01
 5.222906470E-01 -4.648499936E-02 -2.105443156E-01
 5.356530547E-01 -4.482860491E-02 -1.875734822E-01
 5.485135019E-01 -4.315687343E-02 -1.585929327E-01
 5.615157485E-01 -4.142248817E-02 -1.292758091E-01
 5.747362375E-01 -3.963367641E-02 -1.075920516E-01
 5.873346925E-01 -3.789114952E-02 -8.453221141E-02
 5.997966528E-01 -3.613709845E-02 -5.877310796E-02
 6.135365963E-01 -3.420814313E-02 -3.584614520E-02
 6.280742586E-01 -3.215013258E-02 -1.684125863E-02
 6.427184641E-01 -3.005804960E-02 1.153998245E-02
 6.566483378E-01 -2.808751352E-02 3.038668064E-02
 6.696281433E-01 -2.624357957E-02 4.817093440E-02
 6.823976934E-01 -2.443933766E-02 7.154212882E-02
 6.947643757E-01 -2.272782382E-02 8.434157091E-02
 7.081114352E-01 -2.089393325E-02 9.937746499E-02
 7.217248678E-01 -1.902061701E-02 1.197284446E-01
 7.341193855E-01 -1.734336559E-02 1.403830273E-01
 7.468342781E-01 -1.566902315E-02 1.521131644E-01
 7.596338391E-01 -1.401007734E-02 1.696491136E-01
 7.723570764E-01 -1.240561670E-02 1.838494685E-01
 7.849136293E-01 -1.085564913E-02 1.986606493E-01
 7.970505953E-01 -9.383068886E-03 2.165420647E-01
 8.089016080E-01 -8.010474732E-03 2.349642193E-01
 8.201115429E-01 -6.775666028E-03 2.422016353E-01
 8.321155012E-01 -5.499603925E-03 2.593400017E-01
 8.448135555E-01 -4.247970181E-03 2.746025751E-01
 8.570735753E-01 -3.120605717E-03 2.850523345E-01
 8.688304424E-01 -2.130981535E-03 3.015241253E-01
 8.803296387E-01 -1.274379028E-03 3.086651248E-01
 8.925502598E-01 -4.869744262E-04 3.188494086E-01
 9.141470790E-01 5.941439013E-04 3.343279090E-01
 9.434007108E-01 1.313751331E-03 3.357660197E-01
 9.553914070E-01 1.376747212E-03 3.360601140E-01
 9.686701000E-01 1.295270689E-03 3.384697723E-01
 9.818985462E-01 1.063062926E-03 3.480619155E-01
 9.939554632E-01 7.141960668E-04 4.142976877E-01
 -5.000000000E-01 9.500000000E-01 -1.800647255E-03
 -5.000000000E-01 9.000000000E-01 -1.853535776E-03
 -5.000000000E-01 8.500000000E-01 -1.070666315E-03
 -5.000000000E-01 8.000000000E-01 5.346883907E-04
 -5.000000000E-01 7.500000000E-01 2.879133794E-03
 -5.000000000E-01 7.000000000E-01 6.141746476E-03
 -5.000000000E-01 6.500000000E-01 1.022547524E-02
 -5.000000000E-01 6.000000000E-01 1.528523221E-02
 -5.000000000E-01 5.500000000E-01 2.129656793E-02
 -5.000000000E-01 5.000000000E-01 2.818970981E-02
 -5.000000000E-01 4.500000000E-01 3.596443699E-02
 -5.000000000E-01 4.000000000E-01 4.440937212E-02
 -5.000000000E-01 3.500000000E-01 5.348745223E-02
 -5.000000000E-01 3.000000000E-01 6.294042814E-02
 -5.000000000E-01 2.500000000E-01 7.237233723E-02
 -5.000000000E-01 2.000000000E-01 8.133348782E-02
 -5.000000000E-01 1.500000000E-01 8.960866655E-02
 -5.000000000E-01 1.000000000E-01 9.660667888E-02
 -5.000000000E-01 5.000000000E-02 1.019053580E-01
 -5.000000000E-01 2.752242878E-12 1.055758062E-01
 -5.000000000E-01 -5.000000000E-02 1.068893901E-01
 -5.000000000E-01 -1.000000000E-01 1.065359266E-01
 -5.000000000E-01 -1.500000000E-01 1.042765982E-01
 -5.000000000E-01 -2.000000000E-01 1.005113253E-01
 -5.000000000E-01 -2.500000000E-01 9.567303723E-02
 -5.000000000E-01 -3.000000000E-01 8.996988054E-02
 -5.000000000E-01 -3.500000000E-01 8.394073394E-02
 -5.000000000E-01 -4.000000000E-01 7.777895821E-02
 -5.000000000E-01 -4.500000000E-01 7.158515950E-02
 -5.000000000E-01 -5.000000000E-01 6.568868737E-02
 -5.000000000E-01 -5.500000000E-01 6.001920239E-02
 -5.000000000E-01 -6.000000000E-01 5.478308226E-02
 -5.000000000E-01 -6.500000000E-01 4.983929659E-02
 -5.000000000E-01 -7.000000000E-01 4.527714323E-02
 -5.000000000E-01 -7.500000000E-01 4.091137348E-02
 -5.000000000E-01 -8.000000000E-01 3.674270708E-02
 -5.000000000E-01 -8.500000000E-01 3.248644720E-02
 -5.000000000E-01 -9.000000000E-01 2.770126596E-02
 -5.000000000E-01 -9.500000000E-01 2.063016925E-02
 -4.500000000E-01 -1.000000000E+00 1.890881480E-02
 -4.000000000E-01 -1.000000000E+00 2.451809390E-02
 -3.500000000E-01 -1.000000000E+00 2.720822857E-02
 -3.000000000E-01 -1.000000000E+00 2.863159672E-02
 -2.500000000E-01 -1.000000000E+00 2.922938036E-02
 -2.000000000E-01 -1.000000000E+00 2.907155821E-02
 -1.500000000E-01 -1.000000000E+00 2.806353139E-02
 -1.000000000E-01 -1.000000000E+00 2.653560252E-02
 -5.000000000E-02 -1.000000000E+00 2.437754987E-02
 -9.424683256E-13 -1.000000000E+00 2.185680204E-02
 5.000000000E-02 -1.000000000E+00 1.907830619E-02
 1.000000000E-01 -1.000000000E+00 1.579374959E-02
 1.500000000E-01 -1.000000000E+00 1.270879214E-02
 2.000000000E-01 -1.000000000E+00 9.537857818E-03
 2.500000000E-01 -1.000000000E+00 6.664902152E-03
 3.000000000E-01 -1.000000000E+00 4.249496305E-03
 3.500000000E-01 -1.000000000E+00 2.286649138E-03
 4.000000000E-01 -1.000000000E+00 9.929940526E-04
 4.500000000E-01 -1.000000000E+00 4.245968559E-04
 5.000000000E-01 -1.000000000E+00 5.069467801E-04
 5.500000000E-01 -1.000000000E+00 1.337238109E-03
 6.000000000E-01 -1.000000000E+00 2.809530210E-03
 6.500000000E-01 -1.000000000E+00 4.897599212E-03
 7.000000000E-01 -1.000000000E+00 7.456988436E-03
 7.500000000E-01 -1.000000000E+00 1.041447833E-02
 8.000000000E-01 -1.000000000E+00 1.367309879E-02
 8.500000000E-01 -1.000000000E+00 1.684381725E-02
 9.000000000E-01 -1.000000000E+00 2.007045592E-02
 9.500000000E-01 -1.000000000E+00 2.338586086E-02
 1.000000000E+00 -1.000000000E+00 2.631938218E-02
 1.050000000E+00 -1.000000000E+00 2.908192422E-02
 1.100000000E+00 -1.000000000E+00 3.144764421E-02
 1.150000000E+00 -1.000000000E+00 3.356310585E-02
 1.200000000E+00 -1.000000000E+00 3.519498414E-02
 1.250000000E+00 -1.000000000E+00 3.650462478E-02
 1.300000000E+00 -1.000000000E+00 3.750782441E-02
 1.350000000E+00 -1.000000000E+00 3.815997738E-02
 1.400000000E+00 -1.000000000E+00 3.854103807E-02
 1.450000000E+00 -1.000000000E+00 3.863009732E-02
 1.500000000E+00 -1.000000000E+00 3.852213607E-02
 1.550000000E+00 -1.000000000E+00 3.824847707E-02
 1.600000000E+00 -1.000000000E+00 3.771442153E-02
 1.650000000E+00 -1.000000000E+00 3.719914113E-02
 1.700000000E+00 -1.000000000E+00 3.640519634E-02
 1.750000000E+00 -1.000000000E+00 3.569015376E-02
 1.800000000E+00 -1.000000000E+00 3.479476105E-02
 1.850000000E+00 -1.000000000E+00 3.396308270E-02
 1.900000000E+00 -1.000000000E+00 3.305459235E-02
 1.950000000E+00 -1.000000000E+00 3.223450406E-02
 2.000000000E+00 -1.000000000E+00 3.128864220E-02
 2.050000000E+00 -1.000000000E+00 3.041440889E-02
 2.100000000E+00 -1.000000000E+00 2.954859159E-02
 2.150000000E+00 -1.000000000E+00 2.866191878E-02
 2.200000000E+00 -1.000000000E+00 2.794520798E-02
 2.250000000E+00 -1.000000000E+00 2.713481551E-02
 2.300000000E+00 -1.000000000E+00 2.642163433E-02
 2.350000000E+00 -1.000000000E+00 2.571109191E-02
 2.400000000E+00 -1.000000000E+00 2.513440751E-02
 2.450000000E+00 -1.000000000E+00 2.448049221E-02
 2.500000000E+00 -1.000000000E+00 2.397796370E-02
 2.550000000E+00 -1.000000000E+00 2.341878073E-02
 2.600000000E+00 -1.000000000E+00 2.296489237E-02
 2.650000000E+00 -1.000000000E+00 2.253564712E-02
 2.700000000E+00 -1.000000000E+00 2.214773029E-02
 2.750000000E+00 -1.000000000E+00 2.178218853E-02
 2.800000000E+00 -1.000000000E+00 2.145746009E-02
 2.850000000E+00 -1.000000000E+00 2.112800801E-02
 2.900000000E+00 -1.000000000E+00 2.087200727E-02
 2.950000000E+00 -1.000000000E+00 2.056801609E-02
 3.000000000E+00 -1.000000000E+00 2.033175356E-02
 3.050000000E+00 -1.000000000E+00 2.002725237E-02
 3.100000000E+00 -1.000000000E+00 1.972490268E-02
 3.150000000E+00 -1.000000000E+00 1.934762531E-02
 3.200000000E+00 -1.000000000E+00 1.889374082E-02
 3.250000000E+00 -1.000000000E+00 1.831510698E-02
 3.300000000E+00 -1.000000000E+00 1.752974264E-02
 3.350000000E+00 -1.000000000E+00 1.651512299E-02
 3.400000000E+00 -1.000000000E+00 1.487236622E-02
 3.450000000E+00 -1.000000000E+00 1.219498527E-02
 3.500000000E+00 -9.500000000E-01 8.129864726E-03
 3.500000000E+00 -9.000000000E-01 9.827583574E-03
 3.500000000E+00 -8.500000000E-01 1.131047115E-02
 3.500000000E+00 -8.000000000E-01 1.291979552E-02
 3.500000000E+00 -7.500000000E-01 1.434596351E-02
 3.500000000E+00 -7.000000000E-01 1.598762204E-02
 3.500000000E+00 -6.500000000E-01 1.760898560E-02
 3.500000000E+00 -6.000000000E-01 1.933420079E-02
 3.500000000E+00 -5.500000000E-01 2.114014519E-02
 3.500000000E+00 -5.000000000E-01 2.311879801E-02
 3.500000000E+00 -4.500000000E-01 2.514519665E-02
 3.500000000E+00 -4.000000000E-01 2.742318147E-02
 3.500000000E+00 -3.500000000E-01 2.972269473E-02
 3.500000000E+00 -3.000000000E-01 3.188401118E-02
 3.500000000E+00 -2.500000000E-01 3.319689586E-02
 3.500000000E+00 -2.000000000E-01 3.361852277E-02
 3.500000000E+00 -1.500000000E-01 3.303697836E-02
 3.500000000E+00 -1.000000000E-01 3.178653414E-02
 3.500000000E+00 -5.000000000E-02 3.054920199E-02
 3.500000000E+00 -2.752242878E-12 2.993448323E-02
 3.500000000E+00 5.000000000E-02 2.970883158E-02
 3.500000000E+00 1.000000000E-01 2.902943412E-02
 3.500000000E+00 1.500000000E-01 2.762197626E-02
 3.500000000E+00 2.000000000E-01 2.495579283E-02
 3.500000000E+00 2.500000000E-01 2.179175389E-02
 3.500000000E+00 3.000000000E-01 1.830178266E-02
 3.500000000E+00 3.500000000E-01 1.512113910E-02
 3.500000000E+00 4.000000000E-01 1.221772315E-02
 3.500000000E+00 4.500000000E-01 9.557665200E-03
 3.500000000E+00 5.000000000E-01 7.099810723E-03
 3.500000000E+00 5.500000000E-01 5.060390891E-03
 3.500000000E+00 6.000000000E-01 3.886446870E-03
 3.500000000E+00 6.500000000E-01 3.452146409E-03
 3.500000000E+00 7.000000000E-01 3.461934777E-03
 3.500000000E+00 7.500000000E-01 2.921846091E-03
 3.500000000E+00 8.000000000E-01 -2.775999459E-04
 3.500000000E+00 8.500000000E-01 -6.768464057E-03
 3.500000000E+00 9.000000000E-01 -1.519422170E-02
 3.500000000E+00 9.500000000E-01 -2.665217253E-02
 3.450000000E+00 1.000000000E+00 -1.664482131E-02
 3.400000000E+00 1.000000000E+00 -7.975772629E-03
 3.350000000E+00 1.000000000E+00 -3.705396753E-03
 3.300000000E+00 1.000000000E+00 -1.664034995E-03
 3.250000000E+00 1.000000000E+00 -7.149596823E-04
 3.200000000E+00 1.000000000E+00 -1.664856214E-05
 3.150000000E+00 1.000000000E+00 1.147371304E-04
 3.100000000E+00 1.000000000E+00 1.709820189E-04
 3.050000000E+00 1.000000000E+00 -5.445740995E-05
 3.000000000E+00 1.000000000E+00 -4.674571766E-04
 2.950000000E+00 1.000000000E+00 -7.198460369E-04
 2.900000000E+00 1.000000000E+00 -1.245144862E-03
 2.850000000E+00 1.000000000E+00 -1.882690537E-03
 2.800000000E+00 1.000000000E+00 -2.682925108E-03
 2.750000000E+00 1.000000000E+00 -3.600721052E-03
 2.700000000E+00 1.000000000E+00 -4.372536479E-03
 2.650000000E+00 1.000000000E+00 -5.415543060E-03
 2.600000000E+00 1.000000000E+00 -6.319557727E-03
 2.550000000E+00 1.000000000E+00 -7.582888950E-03
 2.500000000E+00 1.000000000E+00 -8.760359105E-03
 2.450000000E+00 1.000000000E+00 -1.021497166E-02
 2.400000000E+00 1.000000000E+00 -1.127489231E-02
 2.350000000E+00 1.000000000E+00 -1.307356510E-02
 2.300000000E+00 1.000000000E+00 -1.429571937E-02
 2.250000000E+00 1.000000000E+00 -1.617504944E-02
 2.200000000E+00 1.000000000E+00 -1.786087393E-02
 2.150000000E+00 1.000000000E+00 -1.978297381E-02
 2.100000000E+00 1.000000000E+00 -2.178039416E-02
 2.050000000E+00 1.000000000E+00 -2.409087136E-02
 2.000000000E+00 1.000000000E+00 -2.631442364E-02
 1.950000000E+00 1.000000000E+00 -2.895059893E-02
 1.900000000E+00 1.000000000E+00 -3.151111726E-02
 1.850000000E+00 1.000000000E+00 -3.445785701E-02
 1.800000000E+00 1.000000000E+00 -3.741690915E-02
 1.750000000E+00 1.000000000E+00 -4.096484957E-02
 1.700000000E+00 1.000000000E+00 -4.442072228E-02
 1.650000000E+00 1.000000000E+00 -4.846144007E-02
 1.600000000E+00 1.000000000E+00 -5.256816935E-02
 1.550000000E+00 1.000000000E+00 -5.694140754E-02
 1.500000000E+00 1.000000000E+00 -6.180820701E-02
 1.450000000E+00 1.000000000E+00 -6.674041765E-02
 1.400000000E+00 1.000000000E+00 -7.191470866E-02
 1.350000000E+00 1.000000000E+00 -7.744704229E-02
 1.300000000E+00 1.000000000E+00 -8.305443695E-02
 1.250000000E+00 1.000000000E+00 -8.874907077E-02
 1.200000000E+00 1.000000000E+00 -9.503303791E-02
 1.150000000E+00 1.000000000E+00 -1.012459589E-01
 1.100000000E+00 1.000000000E+00 -1.074220990E-01
 1.050000000E+00 1.000000000E+00 -1.133163435E-01
 1.000000000E+00 1.000000000E+00 -1.185325274E-01
 9.500000000E-01 1.000000000E+00 -1.236616600E-01
 9.000000000E-01 1.000000000E+00 -1.271344247E-01
 8.500000000E-01 1.000000000E+00 -1.314363172E-01
 8.000000000E-01 1.000000000E+00 -1.322502169E-01
 7.500000000E-01 1.000000000E+00 -1.349349743E-01
 7.000000000E-01 1.000000000E+00 -1.340031612E-01
 6.500000000E-01 1.000000000E+00 -1.336870583E-01
 6.000000000E-01 1.000000000E+00 -1.311242978E-01
 5.500000000E-01 1.000000000E+00 -1.269842026E-01
 5.000000000E-01 1.000000000E+00 -1.227113479E-01
 4.500000000E-01 1.000000000E+00 -1.161107664E-01
 4.000000000E-01 1.000000000E+00 -1.098536641E-01
 3.500000000E-01 1.000000000E+00 -1.012106177E-01
 3.000000000E-01 1.000000000E+00 -9.354170163E-02
 2.500000000E-01 1.000000000E+00 -8.379638962E-02
 2.000000000E-01 1.000000000E+00 -7.526419714E-02
 1.500000000E-01 1.000000000E+00 -6.591852840E-02
 1.000000000E-01 1.000000000E+00 -5.701679433E-02
 5.000000000E-02 1.000000000E+00 -4.839336184E-02
 1.733724275E-12 1.000000000E+00 -4.024288626E-02
 -5.000000000E-02 1.000000000E+00 -3.277502966E-02
 -1.000000000E-01 1.000000000E+00 -2.597559926E-02
 -1.500000000E-01 1.000000000E+00 -2.008735522E-02
 -2.000000000E-01 1.000000000E+00 -1.501214651E-02
 -2.500000000E-01 1.000000000E+00 -1.084759114E-02
 -3.000000000E-01 1.000000000E+00 -7.558476588E-03
 -3.500000000E-01 1.000000000E+00 -5.033116939E-03
 -4.000000000E-01 1.000000000E+00 -3.292539363E-03
 -4.500000000E-01 1.000000000E+00 -1.980840303E-03
 8.662908997E-01 -7.212379961E-03 2.923497929E-01
 7.885285616E-01 -1.614703520E-02 2.002453483E-01
 9.581721079E-01 -4.137114881E-03 3.292856429E-01
 7.192829185E-01 -2.513793441E-02 1.140307625E-01
 6.473350829E-01 -3.555553002E-02 1.568574619E-02
 5.791596834E-01 -4.390538623E-02 -9.860529108E-02
 5.130745554E-01 -5.439787530E-02 -2.229442788E-01
 4.507176859E-01 -5.969482919E-02 -3.406949993E-01
 3.932829800E-01 -6.273020661E-02 -3.993243295E-01
 3.357343999E-01 -6.238530167E-02 -4.054165627E-01
 2.815295866E-01 -6.046058046E-02 -3.765504518E-01