TITLE     = "Visualization of the solution"
VARIABLES = "x"
"y"
"Pressure_Coefficient"
ZONE T="Zone"
 STRANDID=0, SOLUTIONTIME=0
 Nodes=11908, Elements=23235, ZONETYPE=FEQuadrilateral
 DATAPACKING=POINT
 DT=(DOUBLE DOUBLE DOUBLE )
 9.998346567E-01 5.137552507E-04 2.408698634E-01
 9.859123826E-01 3.068465274E-03 2.561389763E-01
 9.731937051E-01 5.387583748E-03 1.782332123E-01
 9.586859941E-01 8.098480292E-03 1.072514160E-01
 9.445990324E-01 1.062796637E-02 7.182202868E-02
 9.321532249E-01 1.290210523E-02 3.008170238E-02
 9.210125804E-01 1.490625180E-02 -6.616144849E-03
 9.084666371E-01 1.707505994E-02 -2.973633826E-02
 8.966652751E-01 1.909347996E-02 -5.913637002E-02
 8.840906024E-01 2.116796374E-02 -8.320788233E-02
 8.715634942E-01 2.316000685E-02 -9.847670698E-02
 8.595002890E-01 2.505563758E-02 -1.218369326E-01
 8.469434977E-01 2.695476264E-02 -1.401841523E-01
 8.348767161E-01 2.870396525E-02 -1.507648332E-01
 8.226484060E-01 3.042308055E-02 -1.545366068E-01
 8.098902702E-01 3.222832084E-02 -1.751168169E-01
 7.968470454E-01 3.400925174E-02 -1.889738626E-01
 7.848224640E-01 3.560266271E-02 -1.924464464E-01
 7.725376487E-01 3.725476190E-02 -2.155933470E-01
 7.606551647E-01 3.880193084E-02 -2.334415530E-01
 7.476557493E-01 4.040981829E-02 -2.359531495E-01
 7.340804338E-01 4.209197685E-02 -2.539716447E-01
 7.232819200E-01 4.340152815E-02 -2.690269974E-01
 7.122005820E-01 4.470893368E-02 -2.832788818E-01
 7.004047632E-01 4.604431614E-02 -2.889254206E-01
 6.871216893E-01 4.753967002E-02 -3.108883782E-01
 6.742793918E-01 4.891116172E-02 -3.221977640E-01
 6.639307737E-01 4.998947680E-02 -3.356639753E-01
 6.522645354E-01 5.115433410E-02 -3.480857220E-01
 6.412679553E-01 5.220533535E-02 -3.554670490E-01
 6.296492219E-01 5.329345539E-02 -3.756309442E-01
 6.185193658E-01 5.426289141E-02 -3.848176245E-01
 6.076610088E-01 5.515959859E-02 -3.916607529E-01
 5.955368876E-01 5.611932650E-02 -4.072920434E-01
 5.837019086E-01 5.697944388E-02 -4.140298819E-01
 5.702452660E-01 5.789379030E-02 -4.283680549E-01
 5.575589538E-01 5.866147205E-02 -4.335874498E-01
 5.450484157E-01 5.935190991E-02 -4.413129135E-01
 5.340681076E-01 5.990111828E-02 -4.487540646E-01
 5.221923590E-01 6.042417139E-02 -4.521229822E-01
 5.094311833E-01 6.091872230E-02 -4.640320132E-01
 4.984445870E-01 6.124793738E-02 -4.555011301E-01
 4.856077731E-01 6.159472466E-02 -4.642768101E-01
 4.727415740E-01 6.183906645E-02 -4.610133677E-01
 4.586962759E-01 6.202819198E-02 -4.605278111E-01
 4.450729191E-01 6.213572994E-02 -4.652990609E-01
 4.319860339E-01 6.213889644E-02 -4.606090403E-01
 4.190485179E-01 6.207293645E-02 -4.612479261E-01
 4.065950215E-01 6.191905215E-02 -4.517239910E-01
 3.939096928E-01 6.171259657E-02 -4.515020726E-01
 3.817901611E-01 6.144408882E-02 -4.474043454E-01
 3.705930412E-01 6.114336103E-02 -4.440972145E-01
 3.575265706E-01 6.071931124E-02 -4.383526376E-01
 3.456257284E-01 6.027712673E-02 -4.366657696E-01
 3.332226276E-01 5.973656103E-02 -4.276655187E-01
 3.228845894E-01 5.925194174E-02 -4.268057448E-01
 3.108377159E-01 5.861138180E-02 -4.165852594E-01
 2.978109121E-01 5.786569417E-02 -4.123361082E-01
 2.841018438E-01 5.699947104E-02 -4.060516521E-01
 2.712471187E-01 5.611385778E-02 -4.004923855E-01
 2.590397298E-01 5.519922823E-02 -3.905673464E-01
 2.462155372E-01 5.418109149E-02 -3.868672213E-01
 2.331188768E-01 5.305020884E-02 -3.763931825E-01
 2.207274884E-01 5.191753805E-02 -3.699683265E-01
 2.086353451E-01 5.073949322E-02 -3.633405942E-01
 1.971013695E-01 4.954101145E-02 -3.507610953E-01
 1.845083535E-01 4.817870632E-02 -3.477385910E-01
 1.723785400E-01 4.676794261E-02 -3.361814542E-01
 1.603493690E-01 4.530071095E-02 -3.293419240E-01
 1.482695341E-01 4.373489320E-02 -3.198871239E-01
 1.371772140E-01 4.221969843E-02 -3.107115428E-01
 1.257725209E-01 4.058070108E-02 -3.045461044E-01
 1.141876876E-01 3.879969940E-02 -2.910018537E-01
 1.033902392E-01 3.705644235E-02 -2.846453233E-01
 9.327650815E-02 3.532125428E-02 -2.747266218E-01
 8.215447515E-02 3.328551725E-02 -2.615623990E-01
 7.039988041E-02 3.097383492E-02 -2.520093309E-01
 6.053761020E-02 2.887797356E-02 -2.382866542E-01
 5.088767409E-02 2.664782293E-02 -2.232623204E-01
 4.185308516E-02 2.437140793E-02 -2.119258162E-01
 3.434869274E-02 2.229092270E-02 -1.941535945E-01
 2.789021283E-02 2.031377330E-02 -1.771108395E-01
 2.234466560E-02 1.844332553E-02 -1.596526684E-01
 1.839994453E-02 1.696925424E-02 -1.344690970E-01
 1.473525539E-02 1.546389889E-02 -1.202224995E-01
 1.206739061E-02 1.425709203E-02 -8.787710026E-02
 9.758598171E-03 1.310788002E-02 -6.182566972E-02
 8.077433333E-03 1.219338924E-02 -2.772626197E-02
 6.538158283E-03 1.128799934E-02 -8.952737445E-03
 5.084201228E-03 1.034740917E-02 5.912730426E-02
 3.180265892E-03 8.936165832E-03 1.596723993E-01
 1.591702341E-03 7.523912471E-03 2.520847033E-01
 2.418170625E-04 6.022183690E-03 4.904329275E-01
 -1.062427764E-03 3.978054505E-03 7.336754119E-01
 -1.669748803E-03 2.352639567E-03 9.150089044E-01
 -1.906367834E-03 1.044840319E-03 1.067440086E+00
 -1.911407686E-03 -5.564638996E-04 1.098230723E+00
 -1.519708429E-03 -2.474017208E-03 1.096418560E+00
 -5.892528570E-04 -4.655440338E-03 9.537762590E-01
 9.662053781E-04 -7.019316778E-03 7.696292129E-01
 3.174509387E-03 -9.490538388E-03 5.859011530E-01
 5.115168635E-03 -1.126415655E-02 4.307868267E-01
 7.432675920E-03 -1.308793388E-02 3.369810999E-01
 9.100427851E-03 -1.426068507E-02 2.477608824E-01
 1.119566709E-02 -1.562006399E-02 2.028418348E-01
 1.364663802E-02 -1.707302034E-02 1.289241181E-01
 1.693711616E-02 -1.883753948E-02 6.902796176E-02
 2.017075010E-02 -2.042085119E-02 4.928764400E-03
 2.433891594E-02 -2.228248864E-02 -4.226000080E-02
 2.991451323E-02 -2.451406047E-02 -8.701424061E-02
 3.575696051E-02 -2.662588097E-02 -1.412191022E-01
 4.321955517E-02 -2.904819325E-02 -1.704429921E-01
 5.098155886E-02 -3.132234514E-02 -2.056196938E-01
 6.007948145E-02 -3.374014795E-02 -2.295293103E-01
 6.902005523E-02 -3.589839116E-02 -2.508325120E-01
 7.970255613E-02 -3.825318068E-02 -2.659237119E-01
 8.986406773E-02 -4.031849280E-02 -2.842210892E-01
 1.007072851E-01 -4.234767333E-02 -2.936212152E-01
 1.119216308E-01 -4.430082068E-02 -3.080189044E-01
 1.236802936E-01 -4.620480910E-02 -3.210485495E-01
 1.353454739E-01 -4.795223475E-02 -3.288399568E-01
 1.459929794E-01 -4.945503548E-02 -3.419614382E-01
 1.571807414E-01 -5.093451962E-02 -3.522179999E-01
 1.691331118E-01 -5.240971968E-02 -3.617614989E-01
 1.808591783E-01 -5.376172066E-02 -3.721429908E-01
 1.926983148E-01 -5.503877252E-02 -3.842261248E-01
 2.032350898E-01 -5.609482154E-02 -3.943371914E-01
 2.145566046E-01 -5.714917183E-02 -4.033825612E-01
 2.269377857E-01 -5.821005255E-02 -4.123517065E-01
 2.394860685E-01 -5.920094624E-02 -4.272574103E-01
 2.515538931E-01 -6.004910171E-02 -4.363100061E-01
 2.641103566E-01 -6.083647162E-02 -4.472285457E-01
 2.750676274E-01 -6.143194064E-02 -4.542166744E-01
 2.878826857E-01 -6.204815954E-02 -4.694302624E-01
 3.001991808E-01 -6.250854582E-02 -4.721057606E-01
 3.130913675E-01 -6.288730353E-02 -4.804261016E-01
 3.245882988E-01 -6.311665475E-02 -4.836832829E-01
 3.370891213E-01 -6.327155232E-02 -4.911427767E-01
 3.475890756E-01 -6.330629438E-02 -4.974123834E-01
 3.588931262E-01 -6.323217601E-02 -4.946867715E-01
 3.698640466E-01 -6.306894869E-02 -4.967374256E-01
 3.804522157E-01 -6.280869246E-02 -4.928141267E-01
 3.917887509E-01 -6.242391467E-02 -4.855046730E-01
 4.042449594E-01 -6.187706441E-02 -4.750228982E-01
 4.162296057E-01 -6.123342365E-02 -4.664904935E-01
 4.290210903E-01 -6.040218845E-02 -4.476631926E-01
 4.415495098E-01 -5.946505815E-02 -4.306289343E-01
 4.543631375E-01 -5.837647989E-02 -4.082336854E-01
 4.665580392E-01 -5.723625422E-02 -3.890506107E-01
 4.789346755E-01 -5.595987290E-02 -3.618641767E-01
 4.906492829E-01 -5.466650799E-02 -3.386559127E-01
 5.028808117E-01 -5.322743952E-02 -3.113018776E-01
 5.163085461E-01 -5.156093463E-02 -2.832170582E-01
 5.297325850E-01 -4.979204386E-02 -2.471783723E-01
 5.426433086E-01 -4.806034639E-02 -2.245250961E-01
 5.563545227E-01 -4.614951462E-02 -1.944796270E-01
 5.690123439E-01 -4.434969276E-02 -1.708040128E-01
 5.821832418E-01 -4.242394120E-02 -1.410825831E-01
 5.945685506E-01 -4.059069604E-02 -1.146204361E-01
 6.070358157E-01 -3.877604753E-02 -1.034791772E-01
 6.200469136E-01 -3.679465875E-02 -6.612908342E-02
 6.341991425E-01 -3.472255170E-02 -5.856647405E-02
 6.475241780E-01 -3.269461542E-02 -2.681682781E-02
 6.609178782E-01 -3.069069795E-02 -8.427906998E-03
 6.744748950E-01 -2.868539467E-02 7.636247042E-03
 6.868391633E-01 -2.684185840E-02 2.939808362E-02
 6.992719769E-01 -2.501739375E-02 4.472225508E-02
 7.139251232E-01 -2.288995124E-02 6.241704843E-02
 7.267422080E-01 -2.103036828E-02 8.271683486E-02
 7.381302118E-01 -1.940696873E-02 9.873015516E-02
 7.506318688E-01 -1.766444370E-02 1.126053502E-01
 7.633544803E-01 -1.591694355E-02 1.287881727E-01
 7.762006521E-01 -1.417895500E-02 1.471909786E-01
 7.882534266E-01 -1.259790640E-02 1.624712860E-01
 8.010289669E-01 -1.100232825E-02 1.702778899E-01
 8.118894696E-01 -9.628496133E-03 1.933308089E-01
 8.232651353E-01 -8.272993378E-03 2.048576381E-01
 8.357856274E-01 -6.858325563E-03 2.178402964E-01
 8.480911255E-01 -5.529567599E-03 2.339185308E-01
 8.603600264E-01 -4.310692661E-03 2.444510551E-01
 8.718572855E-01 -3.231366863E-03 2.613622960E-01
 8.839820027E-01 -2.239715075E-03 2.666439965E-01
 8.970559239E-01 -1.280943165E-03 2.778365391E-01
 9.074031711E-01 -6.471854285E-04 2.824171929E-01
 9.179500341E-01 -1.067633275E-04 2.839204424E-01
 9.276150465E-01 3.037064162E-04 2.859851400E-01
 9.371289611E-01 6.088583032E-04 2.883291554E-01
 9.497837424E-01 8.802769589E-04 2.826133939E-01
 9.636775255E-01 1.006836304E-03 2.759580555E-01
 9.777794480E-01 9.602153441E-04 2.687379187E-01
 9.900065660E-01 7.694716332E-04 2.944983582E-01
 -5.000000000E-01 -1.000000000E+00 8.969435628E-03
 3.500000000E+00 -1.000000000E+00 4.555402531E-03
 3.500000000E+00 1.000000000E+00 -1.161887830E-02
 -5.000000000E-01 1.000000000E+00 2.664653865E-03
 9.928735197E-01 1.791110262E-03 3.204557896E-01
 9.795530438E-01 4.228024511E-03 2.092972580E-01
 9.659398496E-01 6.743032020E-03 1.361106877E-01
 9.516425133E-01 9.363223333E-03 9.032091393E-02
 9.383761287E-01 1.176503580E-02 4.914510418E-02
 9.265829027E-01 1.390417852E-02 9.320094158E-03
 9.147396088E-01 1.599065587E-02 -1.708841277E-02
 9.025659561E-01 1.808426995E-02 -4.645834751E-02
 8.903779387E-01 2.013072185E-02 -7.199244536E-02
 8.778270483E-01 2.216398530E-02 -8.931744115E-02
 8.655318916E-01 2.410782222E-02 -1.116158008E-01
 8.532218933E-01 2.600520011E-02 -1.320423223E-01
 8.409101069E-01 2.782936394E-02 -1.452610224E-01
 8.287625611E-01 2.956352290E-02 -1.500708501E-01
 8.162693381E-01 3.132570069E-02 -1.666971348E-01
 8.033686578E-01 3.311878629E-02 -1.822937700E-01
 7.908347547E-01 3.480595723E-02 -1.879017469E-01
 7.786800563E-01 3.642871231E-02 -2.056330393E-01
 7.665964067E-01 3.802834637E-02 -2.269683341E-01
 7.541554570E-01 3.960587457E-02 -2.322136663E-01
 7.408680916E-01 4.125089757E-02 -2.449081165E-01
 7.286811769E-01 4.274675250E-02 -2.621703221E-01
 7.177412510E-01 4.405523092E-02 -2.774052774E-01
 7.063026726E-01 4.537662491E-02 -2.842772244E-01
 6.937632263E-01 4.679199308E-02 -3.015044683E-01
 6.807005405E-01 4.822541587E-02 -3.152865816E-01
 6.691050828E-01 4.945031926E-02 -3.300837994E-01
 6.580976546E-01 5.057190545E-02 -3.419048678E-01
 6.467662454E-01 5.167983472E-02 -3.505102658E-01
 6.354585886E-01 5.274939537E-02 -3.674072400E-01
 6.240842938E-01 5.377817340E-02 -3.800175662E-01
 6.130901873E-01 5.471124500E-02 -3.877648428E-01
 6.015989482E-01 5.563946255E-02 -4.006218077E-01
 5.896193981E-01 5.654938519E-02 -4.108622705E-01
 5.769735873E-01 5.743661709E-02 -4.219888467E-01
 5.639021099E-01 5.827763118E-02 -4.305833656E-01
 5.513036847E-01 5.900669098E-02 -4.365019832E-01
 5.395582616E-01 5.962651409E-02 -4.459870866E-01
 5.281302333E-01 6.016264483E-02 -4.505577461E-01
 5.158117712E-01 6.067144684E-02 -4.590267606E-01
 5.039378852E-01 6.108332984E-02 -4.580503811E-01
 4.920261800E-01 6.142133102E-02 -4.617547282E-01
 4.791746736E-01 6.171689555E-02 -4.626892391E-01
 4.657189250E-01 6.193362921E-02 -4.600484999E-01
 4.518845975E-01 6.208196096E-02 -4.639423618E-01
 4.385294765E-01 6.213731319E-02 -4.621643746E-01
 4.255172759E-01 6.210591644E-02 -4.616393478E-01
 4.128217697E-01 6.199599430E-02 -4.553094115E-01
 4.002523571E-01 6.181582436E-02 -4.520000755E-01
 3.878499269E-01 6.157834269E-02 -4.485914342E-01
 3.761916012E-01 6.129372492E-02 -4.471886568E-01
 3.640598059E-01 6.093133613E-02 -4.402905512E-01
 3.515761495E-01 6.049821898E-02 -4.388010575E-01
 3.394241780E-01 6.000684388E-02 -4.297288220E-01
 3.280536085E-01 5.949425139E-02 -4.295182629E-01
 3.168611526E-01 5.893166177E-02 -4.214385648E-01
 3.043243140E-01 5.823853798E-02 -4.154271007E-01
 2.909563780E-01 5.743258260E-02 -4.088570861E-01
 2.776744813E-01 5.655666441E-02 -4.032449927E-01
 2.651434243E-01 5.565654300E-02 -3.948822964E-01
 2.526276335E-01 5.469015986E-02 -3.903698454E-01
 2.396672070E-01 5.361565016E-02 -3.806278983E-01
 2.269231826E-01 5.248387344E-02 -3.732748812E-01
 2.146814167E-01 5.132851563E-02 -3.667328949E-01
 2.028683573E-01 5.014025234E-02 -3.564014060E-01
 1.908048615E-01 4.885985889E-02 -3.506538230E-01
 1.784434468E-01 4.747332446E-02 -3.413945893E-01
 1.663639545E-01 4.603432678E-02 -3.335397126E-01
 1.543094516E-01 4.451780207E-02 -3.238287990E-01
 1.427233741E-01 4.297729582E-02 -3.155194479E-01
 1.314748675E-01 4.140019976E-02 -3.093984034E-01
 1.199801043E-01 3.969020024E-02 -2.964172760E-01
 1.087889634E-01 3.792807087E-02 -2.878892174E-01
 9.833337367E-02 3.618884832E-02 -2.813846909E-01
 8.771549165E-02 3.430338576E-02 -2.705741442E-01
 7.627717778E-02 3.212967608E-02 -2.579608339E-01
 7.436130568E-02 -3.707578592E-02 -2.599328320E-01
 8.478331193E-02 -3.928583674E-02 -2.772624782E-01
 9.528567642E-02 -4.133308306E-02 -2.891361086E-01
 1.063144580E-01 -4.332424700E-02 -3.004295680E-01
 1.178009622E-01 -4.525281489E-02 -3.145197000E-01
 1.295128837E-01 -4.707852192E-02 -3.264354405E-01
 1.406692266E-01 -4.870363511E-02 -3.360920690E-01
 1.515868604E-01 -5.019477755E-02 -3.468766704E-01
 1.631569266E-01 -5.167211965E-02 -3.567906856E-01
 1.749961451E-01 -5.308572017E-02 -3.673484086E-01
 1.867787465E-01 -5.440024659E-02 -3.779049286E-01
 1.979667023E-01 -5.556679703E-02 -3.905907293E-01
 2.088958472E-01 -5.662199669E-02 -3.980946273E-01
 2.207471952E-01 -5.767961219E-02 -4.072294241E-01
 2.332119271E-01 -5.870549940E-02 -4.189326721E-01
 2.455199808E-01 -5.962502398E-02 -4.329029550E-01
 2.578321248E-01 -6.044278666E-02 -4.410943363E-01
 2.695889920E-01 -6.113420613E-02 -4.526712145E-01
 2.814751565E-01 -6.174005009E-02 -4.584338834E-01
 2.940409333E-01 -6.227835268E-02 -4.730015450E-01
 3.066452742E-01 -6.269792467E-02 -4.752915575E-01
 3.188398331E-01 -6.300197914E-02 -4.842682676E-01
 3.308387101E-01 -6.319410354E-02 -4.857993601E-01
 3.423390985E-01 -6.328892335E-02 -4.966346921E-01
 3.532411009E-01 -6.326923519E-02 -4.960058272E-01
 3.643785864E-01 -6.315056235E-02 -4.953060471E-01
 3.751581311E-01 -6.293882057E-02 -4.957679233E-01
 3.861204833E-01 -6.261630356E-02 -4.882981536E-01
 3.980168551E-01 -6.215048954E-02 -4.797752769E-01
 4.102372825E-01 -6.155524403E-02 -4.708786406E-01
 4.226253480E-01 -6.081780605E-02 -4.577156184E-01
 4.352853000E-01 -5.993362330E-02 -4.395390196E-01
 4.479563236E-01 -5.892076902E-02 -4.196900038E-01
 4.604605883E-01 -5.780636705E-02 -3.988931258E-01
 4.727463573E-01 -5.659806356E-02 -3.769222822E-01
 4.847919792E-01 -5.531319045E-02 -3.505870834E-01
 4.967650473E-01 -5.394697376E-02 -3.253359557E-01
 5.095946789E-01 -5.239418708E-02 -2.973507533E-01
 5.230205655E-01 -5.067648925E-02 -2.666352523E-01
 5.361879468E-01 -4.892619513E-02 -2.345967057E-01
 5.494989157E-01 -4.710493051E-02 -2.101780297E-01
 5.626834333E-01 -4.524960369E-02 -1.824536290E-01
 5.755977929E-01 -4.338681698E-02 -1.570605571E-01
 5.883758962E-01 -4.150731862E-02 -1.283999217E-01
 6.008021832E-01 -3.968337178E-02 -1.062421647E-01
 6.135413647E-01 -3.778535314E-02 -8.853647888E-02
 6.271230280E-01 -3.575860523E-02 -5.930318736E-02
 6.408616602E-01 -3.370858356E-02 -4.576092313E-02
 6.542210281E-01 -3.169265669E-02 -1.673128967E-02
 6.676963866E-01 -2.968804631E-02 5.658452778E-04
 6.806570292E-01 -2.776362654E-02 1.725254959E-02
 6.930555701E-01 -2.592962608E-02 3.760920687E-02
 7.065985501E-01 -2.395367250E-02 5.354884948E-02
 7.203336656E-01 -2.196015976E-02 7.202837788E-02
 7.324362099E-01 -2.021866851E-02 9.109331071E-02
 7.443810403E-01 -1.853570621E-02 1.057453455E-01
 7.569931746E-01 -1.679069363E-02 1.201885822E-01
 7.697775662E-01 -1.504794927E-02 1.372150390E-01
 7.822270393E-01 -1.338843070E-02 1.549725015E-01
 7.946411967E-01 -1.180011733E-02 1.676742685E-01
 8.064592183E-01 -1.031541219E-02 1.790539101E-01
 8.175773025E-01 -8.950744756E-03 1.995213465E-01
 8.295253813E-01 -7.565659471E-03 2.114726042E-01
 8.419383764E-01 -6.193946581E-03 2.251402265E-01
 8.542255759E-01 -4.920130130E-03 2.397166544E-01
 8.661086559E-01 -3.771029762E-03 2.515336620E-01
 8.779196441E-01 -2.735540969E-03 2.645126336E-01
 8.905189633E-01 -1.760329120E-03 2.712664892E-01
 9.022295475E-01 -9.640642966E-04 2.831999066E-01
 9.126766026E-01 -3.769743780E-04 2.841420908E-01
 9.434563518E-01 7.445676310E-04 2.831994473E-01
 9.567306340E-01 9.435566317E-04 2.788421186E-01
 9.707284868E-01 9.835258243E-04 2.717101971E-01
 9.838930070E-01 8.648434887E-04 2.575057589E-01
 -5.000000000E-01 9.500000000E-01 3.771289644E-03
 -5.000000000E-01 9.000000000E-01 5.486562299E-03
 -5.000000000E-01 8.500000000E-01 7.176874767E-03
 -5.000000000E-01 8.000000000E-01 9.297465229E-03
 -5.000000000E-01 7.500000000E-01 1.207623819E-02
 -5.000000000E-01 7.000000000E-01 1.509184227E-02
 -5.000000000E-01 6.500000000E-01 1.922724253E-02
 -5.000000000E-01 6.000000000E-01 2.380449214E-02
 -5.000000000E-01 5.500000000E-01 2.918676983E-02
 -5.000000000E-01 5.000000000E-01 3.523209310E-02
 -5.000000000E-01 4.500000000E-01 4.200082765E-02
 -5.000000000E-01 4.000000000E-01 4.927153842E-02
 -5.000000000E-01 3.500000000E-01 5.710281077E-02
 -5.000000000E-01 3.000000000E-01 6.494335166E-02
 -5.000000000E-01 2.500000000E-01 7.284303740E-02
 -5.000000000E-01 2.000000000E-01 8.029333867E-02
 -5.000000000E-01 1.500000000E-01 8.682155126E-02
 -5.000000000E-01 1.000000000E-01 9.225016455E-02
 -5.000000000E-01 5.000000000E-02 9.614909418E-02
 -5.000000000E-01 2.752242878E-12 9.823705337E-02
 -5.000000000E-01 -5.000000000E-02 9.834374141E-02
 -5.000000000E-01 -1.000000000E-01 9.664621811E-02
 -5.000000000E-01 -1.500000000E-01 9.316239521E-02
 -5.000000000E-01 -2.000000000E-01 8.837543899E-02
 -5.000000000E-01 -2.500000000E-01 8.261691733E-02
 -5.000000000E-01 -3.000000000E-01 7.617755473E-02
 -5.000000000E-01 -3.500000000E-01 6.940620931E-02
 -5.000000000E-01 -4.000000000E-01 6.271812334E-02
 -5.000000000E-01 -4.500000000E-01 5.616260594E-02
 -5.000000000E-01 -5.000000000E-01 5.000745016E-02
 -5.000000000E-01 -5.500000000E-01 4.427389831E-02
 -5.000000000E-01 -6.000000000E-01 3.910229445E-02
 -5.000000000E-01 -6.500000000E-01 3.440617188E-02
 -5.000000000E-01 -7.000000000E-01 3.020550235E-02
 -5.000000000E-01 -7.500000000E-01 2.651541982E-02
 -5.000000000E-01 -8.000000000E-01 2.309048647E-02
 -5.000000000E-01 -8.500000000E-01 1.995758192E-02
 -5.000000000E-01 -9.000000000E-01 1.672498206E-02
 -5.000000000E-01 -9.500000000E-01 1.231082708E-02
 -4.500000000E-01 -1.000000000E+00 1.113191056E-02
 -4.000000000E-01 -1.000000000E+00 1.430793090E-02
 -3.500000000E-01 -1.000000000E+00 1.545759048E-02
 -3.000000000E-01 -1.000000000E+00 1.556607687E-02
 -2.500000000E-01 -1.000000000E+00 1.492596242E-02
 -2.000000000E-01 -1.000000000E+00 1.349749579E-02
 -1.500000000E-01 -1.000000000E+00 1.130433814E-02
 -1.000000000E-01 -1.000000000E+00 8.613784039E-03
 -5.000000000E-02 -1.000000000E+00 5.234834611E-03
 -9.424683256E-13 -1.000000000E+00 1.462800717E-03
 5.000000000E-02 -1.000000000E+00 -2.848454109E-03
 1.000000000E-01 -1.000000000E+00 -6.997342575E-03
 1.500000000E-01 -1.000000000E+00 -1.153294757E-02
 2.000000000E-01 -1.000000000E+00 -1.561951098E-02
 2.500000000E-01 -1.000000000E+00 -1.998457342E-02
 3.000000000E-01 -1.000000000E+00 -2.350372921E-02
 3.500000000E-01 -1.000000000E+00 -2.621114033E-02
 4.000000000E-01 -1.000000000E+00 -2.856258138E-02
 4.500000000E-01 -1.000000000E+00 -3.003337493E-02
 5.000000000E-01 -1.000000000E+00 -3.059708784E-02
 5.500000000E-01 -1.000000000E+00 -3.042191999E-02
 6.000000000E-01 -1.000000000E+00 -2.927162121E-02
 6.500000000E-01 -1.000000000E+00 -2.739909269E-02
 7.000000000E-01 -1.000000000E+00 -2.496691690E-02
 7.500000000E-01 -1.000000000E+00 -2.187973708E-02
 8.000000000E-01 -1.000000000E+00 -1.862798466E-02
 8.500000000E-01 -1.000000000E+00 -1.488021818E-02
 9.000000000E-01 -1.000000000E+00 -1.109493218E-02
 9.500000000E-01 -1.000000000E+00 -7.295104658E-03
 1.000000000E+00 -1.000000000E+00 -3.626398881E-03
 1.050000000E+00 -1.000000000E+00 -1.500599338E-04
 1.100000000E+00 -1.000000000E+00 3.031789714E-03
 1.150000000E+00 -1.000000000E+00 5.985236215E-03
 1.200000000E+00 -1.000000000E+00 8.590168432E-03
 1.250000000E+00 -1.000000000E+00 1.093895230E-02
 1.300000000E+00 -1.000000000E+00 1.271398525E-02
 1.350000000E+00 -1.000000000E+00 1.445505560E-02
 1.400000000E+00 -1.000000000E+00 1.583068691E-02
 1.450000000E+00 -1.000000000E+00 1.690226759E-02
 1.500000000E+00 -1.000000000E+00 1.776761795E-02
 1.550000000E+00 -1.000000000E+00 1.838711872E-02
 1.600000000E+00 -1.000000000E+00 1.885013751E-02
 1.650000000E+00 -1.000000000E+00 1.913885887E-02
 1.700000000E+00 -1.000000000E+00 1.930202667E-02
 1.750000000E+00 -1.000000000E+00 1.937120501E-02
 1.800000000E+00 -1.000000000E+00 1.931344009E-02
 1.850000000E+00 -1.000000000E+00 1.924272323E-02
 1.900000000E+00 -1.000000000E+00 1.906556106E-02
 1.950000000E+00 -1.000000000E+00 1.889345152E-02
 2.000000000E+00 -1.000000000E+00 1.867034017E-02
 2.050000000E+00 -1.000000000E+00 1.842757655E-02
 2.100000000E+00 -1.000000000E+00 1.818339905E-02
 2.150000000E+00 -1.000000000E+00 1.791345548E-02
 2.200000000E+00 -1.000000000E+00 1.768237957E-02
 2.250000000E+00 -1.000000000E+00 1.742319270E-02
 2.300000000E+00 -1.000000000E+00 1.716940884E-02
 2.350000000E+00 -1.000000000E+00 1.694004154E-02
 2.400000000E+00 -1.000000000E+00 1.671588765E-02
 2.450000000E+00 -1.000000000E+00 1.652180837E-02
 2.500000000E+00 -1.000000000E+00 1.632904168E-02
 2.550000000E+00 -1.000000000E+00 1.618859830E-02
 2.600000000E+00 -1.000000000E+00 1.601839172E-02
 2.650000000E+00 -1.000000000E+00 1.586946736E-02
 2.700000000E+00 -1.000000000E+00 1.577728516E-02
 2.750000000E+00 -1.000000000E+00 1.560280139E-02
 2.800000000E+00 -1.000000000E+00 1.551537107E-02
 2.850000000E+00 -1.000000000E+00 1.540433684E-02
 2.900000000E+00 -1.000000000E+00 1.527890296E-02
 2.950000000E+00 -1.000000000E+00 1.517653229E-02
 3.000000000E+00 -1.000000000E+00 1.502665941E-02
 3.050000000E+00 -1.000000000E+00 1.484691627E-02
 3.100000000E+00 -1.000000000E+00 1.460605222E-02
 3.150000000E+00 -1.000000000E+00 1.431721685E-02
 3.200000000E+00 -1.000000000E+00 1.393721666E-02
 3.250000000E+00 -1.000000000E+00 1.337105248E-02
 3.300000000E+00 -1.000000000E+00 1.268570131E-02
 3.350000000E+00 -1.000000000E+00 1.161008606E-02
 3.400000000E+00 -1.000000000E+00 1.001460833E-02
 3.450000000E+00 -1.000000000E+00 7.431974454E-03
 3.500000000E+00 -9.500000000E-01 3.851800406E-03
 3.500000000E+00 -9.000000000E-01 5.398741684E-03
 3.500000000E+00 -8.500000000E-01 6.608938105E-03
 3.500000000E+00 -8.000000000E-01 7.905991578E-03
 3.500000000E+00 -7.500000000E-01 9.196323958E-03
 3.500000000E+00 -7.000000000E-01 1.044023926E-02
 3.500000000E+00 -6.500000000E-01 1.187270663E-02
 3.500000000E+00 -6.000000000E-01 1.340861220E-02
 3.500000000E+00 -5.500000000E-01 1.521400859E-02
 3.500000000E+00 -5.000000000E-01 1.715618571E-02
 3.500000000E+00 -4.500000000E-01 1.926421691E-02
 3.500000000E+00 -4.000000000E-01 2.149366727E-02
 3.500000000E+00 -3.500000000E-01 2.386790404E-02
 3.500000000E+00 -3.000000000E-01 2.616104463E-02
 3.500000000E+00 -2.500000000E-01 2.834791492E-02
 3.500000000E+00 -2.000000000E-01 2.988540427E-02
 3.500000000E+00 -1.500000000E-01 3.034527307E-02
 3.500000000E+00 -1.000000000E-01 3.024785235E-02
 3.500000000E+00 -5.000000000E-02 2.988749180E-02
 3.500000000E+00 -2.752242878E-12 2.952593428E-02
 3.500000000E+00 5.000000000E-02 2.920668474E-02
 3.500000000E+00 1.000000000E-01 2.880520612E-02
 3.500000000E+00 1.500000000E-01 2.772727892E-02
 3.500000000E+00 2.000000000E-01 2.570608431E-02
 3.500000000E+00 2.500000000E-01 2.327666447E-02
 3.500000000E+00 3.000000000E-01 2.052272311E-02
 3.500000000E+00 3.500000000E-01 1.773252794E-02
 3.500000000E+00 4.000000000E-01 1.517812072E-02
 3.500000000E+00 4.500000000E-01 1.276373296E-02
 3.500000000E+00 5.000000000E-01 1.057807946E-02
 3.500000000E+00 5.500000000E-01 8.659735783E-03
 3.500000000E+00 6.000000000E-01 7.182050944E-03
 3.500000000E+00 6.500000000E-01 6.213304672E-03
 3.500000000E+00 7.000000000E-01 5.677866082E-03
 3.500000000E+00 7.500000000E-01 4.953870661E-03
 3.500000000E+00 8.000000000E-01 3.240431462E-03
 3.500000000E+00 8.500000000E-01 -1.037490232E-04
 3.500000000E+00 9.000000000E-01 -5.030788750E-03
 3.500000000E+00 9.500000000E-01 -1.154201638E-02
 3.450000000E+00 1.000000000E+00 -5.440688073E-03
 3.400000000E+00 1.000000000E+00 -1.413284022E-04
 3.350000000E+00 1.000000000E+00 2.379256514E-03
 3.300000000E+00 1.000000000E+00 3.653120896E-03
 3.250000000E+00 1.000000000E+00 4.242265964E-03
 3.200000000E+00 1.000000000E+00 4.640899214E-03
 3.150000000E+00 1.000000000E+00 4.817015999E-03
 3.100000000E+00 1.000000000E+00 4.660755644E-03
 3.050000000E+00 1.000000000E+00 4.716895086E-03
 3.000000000E+00 1.000000000E+00 4.313672064E-03
 2.950000000E+00 1.000000000E+00 3.985725071E-03
 2.900000000E+00 1.000000000E+00 3.552788212E-03
 2.850000000E+00 1.000000000E+00 3.020450904E-03
 2.800000000E+00 1.000000000E+00 2.487188718E-03
 2.750000000E+00 1.000000000E+00 1.817666230E-03
 2.700000000E+00 1.000000000E+00 1.225287066E-03
 2.650000000E+00 1.000000000E+00 5.899468883E-04
 2.600000000E+00 1.000000000E+00 -1.742558472E-04
 2.550000000E+00 1.000000000E+00 -8.105106397E-04
 2.500000000E+00 1.000000000E+00 -1.849633106E-03
 2.450000000E+00 1.000000000E+00 -2.458708582E-03
 2.400000000E+00 1.000000000E+00 -3.791456570E-03
 2.350000000E+00 1.000000000E+00 -4.202400955E-03
 2.300000000E+00 1.000000000E+00 -5.665119958E-03
 2.250000000E+00 1.000000000E+00 -6.766424298E-03
 2.200000000E+00 1.000000000E+00 -7.724234074E-03
 2.150000000E+00 1.000000000E+00 -9.156942105E-03
 2.100000000E+00 1.000000000E+00 -1.043632076E-02
 2.050000000E+00 1.000000000E+00 -1.192127387E-02
 2.000000000E+00 1.000000000E+00 -1.354133567E-02
 1.950000000E+00 1.000000000E+00 -1.523379891E-02
 1.900000000E+00 1.000000000E+00 -1.702840853E-02
 1.850000000E+00 1.000000000E+00 -1.899334892E-02
 1.800000000E+00 1.000000000E+00 -2.104814364E-02
 1.750000000E+00 1.000000000E+00 -2.332006761E-02
 1.700000000E+00 1.000000000E+00 -2.577777488E-02
 1.650000000E+00 1.000000000E+00 -2.846927311E-02
 1.600000000E+00 1.000000000E+00 -3.146266466E-02
 1.550000000E+00 1.000000000E+00 -3.450129984E-02
 1.500000000E+00 1.000000000E+00 -3.789750884E-02
 1.450000000E+00 1.000000000E+00 -4.160112662E-02
 1.400000000E+00 1.000000000E+00 -4.488537528E-02
 1.350000000E+00 1.000000000E+00 -4.931443833E-02
 1.300000000E+00 1.000000000E+00 -5.354641884E-02
 1.250000000E+00 1.000000000E+00 -5.755660185E-02
 1.200000000E+00 1.000000000E+00 -6.246467139E-02
 1.150000000E+00 1.000000000E+00 -6.722298447E-02
 1.100000000E+00 1.000000000E+00 -7.132382370E-02
 1.050000000E+00 1.000000000E+00 -7.641647028E-02
 1.000000000E+00 1.000000000E+00 -8.007853776E-02
 9.500000000E-01 1.000000000E+00 -8.428822862E-02
 9.000000000E-01 1.000000000E+00 -8.726180033E-02
 8.500000000E-01 1.000000000E+00 -9.053863154E-02
 8.000000000E-01 1.000000000E+00 -9.252363349E-02
 7.500000000E-01 1.000000000E+00 -9.392980694E-02
 7.000000000E-01 1.000000000E+00 -9.419984985E-02
 6.500000000E-01 1.000000000E+00 -9.373004300E-02
 6.000000000E-01 1.000000000E+00 -9.172368944E-02
 5.500000000E-01 1.000000000E+00 -8.959051303E-02
 5.000000000E-01 1.000000000E+00 -8.575582979E-02
 4.500000000E-01 1.000000000E+00 -8.141838162E-02
 4.000000000E-01 1.000000000E+00 -7.597443047E-02
 3.500000000E-01 1.000000000E+00 -7.003130145E-02
 3.000000000E-01 1.000000000E+00 -6.354817315E-02
 2.500000000E-01 1.000000000E+00 -5.660169062E-02
 2.000000000E-01 1.000000000E+00 -4.951408752E-02
 1.500000000E-01 1.000000000E+00 -4.234192587E-02
 1.000000000E-01 1.000000000E+00 -3.538828318E-02
 5.000000000E-02 1.000000000E+00 -2.851919352E-02
 1.733724275E-12 1.000000000E+00 -2.224102983E-02
 -5.000000000E-02 1.000000000E+00 -1.637196485E-02
 -1.000000000E-01 1.000000000E+00 -1.131658869E-02
 -1.500000000E-01 1.000000000E+00 -6.825576703E-03
 -2.000000000E-01 1.000000000E+00 -3.181918139E-03
 -2.500000000E-01 1.000000000E+00 -3.493179360E-04
 -3.000000000E-01 1.000000000E+00 1.840008218E-03
 -3.500000000E-01 1.000000000E+00 3.176831812E-03
 -4.000000000E-01 1.000000000E+00 3.733571440E-03
 -4.500000000E-01 1.000000000E+00 3.223658666E-03
 8.998165707E-01 -5.669747022E-03 2.730191398E-01
 8.217489262E-01 -1.346784448E-02 1.990776642E-01
 9.868770136E-01 -4.562655492E-03 2.416105016E-01
 7.469972089E-01 -2.456217089E-02 1.051905457E-01
 6.784671233E-01 -3.412022799E-02 1.302383132E-02
 6.117508219E-01 -4.396038511E-02 -9.106771477E-02
 5.468740999E-01 -5.334449380E-02 -2.124683146E-01
 4.824161563E-01 -6.065416341E-02 -3.480152667E-01
 4.259314051E-01 -6.615208873E-02 -4.404459538E-01
 3.671177093E-01 -6.737705144E-02 -4.852646527E-01
 3.159272369E-01 -6.769589155E-02 -4.722832989E-01
 2.603506136E-01 -6.607717663E-02 -4.343219260E-01