TITLE     = "Visualization of the solution"
VARIABLES = "x"
"y"
"Pressure_Coefficient"
ZONE T="Zone"
 STRANDID=0, SOLUTIONTIME=0
 Nodes=12235, Elements=23886, ZONETYPE=FEQuadrilateral
 DATAPACKING=POINT
 DT=(DOUBLE DOUBLE DOUBLE )
 9.997249842E-01 5.138645647E-04 2.563437215E-01
 9.895930290E-01 2.715863287E-03 2.642787758E-01
 9.769566059E-01 5.334534217E-03 1.848086312E-01
 9.594854712E-01 9.064637125E-03 1.093557201E-01
 9.442079067E-01 1.232667733E-02 5.403503962E-02
 9.282281399E-01 1.570371725E-02 1.178753698E-02
 9.166847467E-01 1.816156507E-02 -3.207346380E-02
 9.057344794E-01 2.042260394E-02 -5.396819609E-02
 8.944262266E-01 2.277442813E-02 -9.604733988E-02
 8.832277656E-01 2.499682643E-02 -1.162768291E-01
 8.711409569E-01 2.734817564E-02 -1.412901109E-01
 8.582507372E-01 2.978415973E-02 -1.567491944E-01
 8.462299705E-01 3.206849098E-02 -2.001059083E-01
 8.359199762E-01 3.390058875E-02 -2.058536664E-01
 8.240185380E-01 3.598327562E-02 -2.170527234E-01
 8.117092252E-01 3.812714666E-02 -2.459440888E-01
 7.991417050E-01 4.021315649E-02 -2.592822962E-01
 7.857468724E-01 4.237225279E-02 -2.666784177E-01
 7.736133337E-01 4.433877394E-02 -2.958434095E-01
 7.619053125E-01 4.615760595E-02 -3.118333526E-01
 7.483034134E-01 4.819092527E-02 -3.207764159E-01
 7.344461083E-01 5.023397505E-02 -3.402283435E-01
 7.238129377E-01 5.177377164E-02 -3.613070494E-01
 7.126349807E-01 5.333319679E-02 -3.738482406E-01
 7.007894516E-01 5.494984612E-02 -3.946679019E-01
 6.870754957E-01 5.672794953E-02 -4.099059090E-01
 6.742258072E-01 5.832545087E-02 -4.256818362E-01
 6.640070081E-01 5.954595655E-02 -4.339217420E-01
 6.522355676E-01 6.092041731E-02 -4.547795349E-01
 6.399357915E-01 6.227247417E-02 -4.663070209E-01
 6.279815435E-01 6.353431940E-02 -4.873302703E-01
 6.158413291E-01 6.470344961E-02 -4.858105395E-01
 6.052638888E-01 6.571364403E-02 -5.084561049E-01
 5.927850008E-01 6.679461896E-02 -5.156490885E-01
 5.814992785E-01 6.771654636E-02 -5.265801168E-01
 5.681276321E-01 6.871360540E-02 -5.409677467E-01
 5.559145212E-01 6.950560957E-02 -5.325818926E-01
 5.443479419E-01 7.023832947E-02 -5.543049686E-01
 5.337052345E-01 7.080609351E-02 -5.480267294E-01
 5.225785375E-01 7.136363536E-02 -5.574732539E-01
 5.108477473E-01 7.186053693E-02 -5.545013632E-01
 4.998438060E-01 7.228475809E-02 -5.647065160E-01
 4.866367579E-01 7.266773283E-02 -5.546458962E-01
 4.730580747E-01 7.300125808E-02 -5.571858908E-01
 4.598175287E-01 7.324276865E-02 -5.619809069E-01
 4.470306933E-01 7.336979359E-02 -5.533950024E-01
 4.348294139E-01 7.343628258E-02 -5.532304041E-01
 4.228565395E-01 7.343129069E-02 -5.497141908E-01
 4.109621048E-01 7.336769998E-02 -5.502105970E-01
 3.991179764E-01 7.322712243E-02 -5.422325334E-01
 3.869883418E-01 7.303441316E-02 -5.429262315E-01
 3.752293587E-01 7.277479023E-02 -5.371035146E-01
 3.626907468E-01 7.243719697E-02 -5.326600734E-01
 3.498147726E-01 7.203242183E-02 -5.358423431E-01
 3.364417553E-01 7.150265574E-02 -5.270514960E-01
 3.253182769E-01 7.101284713E-02 -5.234913603E-01
 3.125376999E-01 7.037955523E-02 -5.215868587E-01
 2.992775738E-01 6.962531805E-02 -5.107263792E-01
 2.855514586E-01 6.878158450E-02 -5.130052101E-01
 2.738006115E-01 6.797039509E-02 -5.058164771E-01
 2.620525360E-01 6.709151715E-02 -4.997111802E-01
 2.496895492E-01 6.609252840E-02 -4.964632948E-01
 2.375575900E-01 6.502306461E-02 -4.889270896E-01
 2.249911129E-01 6.383152306E-02 -4.828761994E-01
 2.128897756E-01 6.259701401E-02 -4.781308226E-01
 2.003189623E-01 6.120736897E-02 -4.689719158E-01
 1.876537800E-01 5.970352143E-02 -4.599893496E-01
 1.758164465E-01 5.819859356E-02 -4.523688948E-01
 1.641815156E-01 5.661638826E-02 -4.424389226E-01
 1.521281749E-01 5.486156419E-02 -4.333290354E-01
 1.411652416E-01 5.315389857E-02 -4.207979559E-01
 1.290949434E-01 5.114448816E-02 -4.097080710E-01
 1.179117262E-01 4.913888499E-02 -3.936159170E-01
 1.072247475E-01 4.709549621E-02 -3.796411196E-01
 9.699124098E-02 4.499748722E-02 -3.609587582E-01
 8.616077155E-02 4.262087494E-02 -3.410358048E-01
 7.471921295E-02 3.989001736E-02 -3.182198481E-01
 6.489326060E-02 3.733729199E-02 -2.873587816E-01
 5.495314673E-02 3.452955186E-02 -2.548768940E-01
 4.669862986E-02 3.199634701E-02 -2.219813247E-01
 3.960840777E-02 2.961344831E-02 -1.858719893E-01
 3.316122293E-02 2.727266587E-02 -1.426485843E-01
 2.758713067E-02 2.505721338E-02 -1.048539957E-01
 2.349199355E-02 2.330344915E-02 -6.433475868E-02
 1.949603297E-02 2.145283855E-02 -1.864076559E-02
 1.603128947E-02 1.970413513E-02 3.868129850E-02
 1.281342097E-02 1.793073118E-02 9.139611847E-02
 1.041790098E-02 1.648819074E-02 1.479533722E-01
 8.418885991E-03 1.517270971E-02 1.952203774E-01
 6.612182129E-03 1.387679577E-02 2.744630903E-01
 4.315785598E-03 1.201646402E-02 3.930384270E-01
 2.280944260E-03 1.004148088E-02 4.878118369E-01
 6.443774910E-04 8.044253103E-03 7.463723890E-01
 -9.966107318E-04 4.985942040E-03 1.013575300E+00
 -1.503121573E-03 2.818002133E-03 1.097670632E+00
 -1.518337987E-03 1.147884410E-03 1.092999009E+00
 -1.210782211E-03 -4.705809697E-04 1.020019384E+00
 -6.990433903E-04 -1.849219203E-03 8.793948382E-01
 2.932936768E-04 -3.610481974E-03 7.331575834E-01
 1.646228135E-03 -5.336824339E-03 5.314060335E-01
 3.456527833E-03 -7.128562778E-03 3.817008777E-01
 5.132198799E-03 -8.500404656E-03 2.552171267E-01
 6.974208169E-03 -9.808016941E-03 1.811292950E-01
 8.598801680E-03 -1.084024552E-02 1.149016329E-01
 1.068572421E-02 -1.204067655E-02 6.861641146E-02
 1.296841726E-02 -1.322568022E-02 1.432934434E-02
 1.622414403E-02 -1.474863756E-02 -1.967580787E-02
 1.894474030E-02 -1.589707099E-02 -6.963100946E-02
 2.249838226E-02 -1.727674156E-02 -8.523215261E-02
 2.767132781E-02 -1.907995157E-02 -1.103191503E-01
 3.323281184E-02 -2.082072198E-02 -1.388778270E-01
 3.989082575E-02 -2.269267850E-02 -1.545205292E-01
 4.737821221E-02 -2.459607646E-02 -1.663817168E-01
 5.640479550E-02 -2.667317353E-02 -1.765479233E-01
 6.502459198E-02 -2.848365158E-02 -1.905922329E-01
 7.495734841E-02 -3.040506504E-02 -1.969038198E-01
 8.516237140E-02 -3.223695233E-02 -2.069984590E-01
 9.522676468E-02 -3.391399235E-02 -2.132728060E-01
 1.066686064E-01 -3.569655493E-02 -2.199811827E-01
 1.179284230E-01 -3.734555095E-02 -2.294224185E-01
 1.298125535E-01 -3.897783533E-02 -2.374714888E-01
 1.407329291E-01 -4.039380327E-02 -2.470499766E-01
 1.521634609E-01 -4.178900272E-02 -2.534916695E-01
 1.647444665E-01 -4.324699566E-02 -2.642268310E-01
 1.766956747E-01 -4.455037415E-02 -2.746691648E-01
 1.888919026E-01 -4.580169544E-02 -2.851579026E-01
 2.001257390E-01 -4.687999934E-02 -2.936456216E-01
 2.117607445E-01 -4.793371633E-02 -3.036524974E-01
 2.244686782E-01 -4.901298508E-02 -3.167949761E-01
 2.373051494E-01 -4.999904707E-02 -3.226952799E-01
 2.497694790E-01 -5.089463294E-02 -3.379423004E-01
 2.618245482E-01 -5.167281628E-02 -3.474316830E-01
 2.732550800E-01 -5.233136937E-02 -3.558660149E-01
 2.857384682E-01 -5.296865478E-02 -3.647341462E-01
 2.981157899E-01 -5.351755396E-02 -3.766808148E-01
 3.110970557E-01 -5.398165435E-02 -3.834236625E-01
 3.233423233E-01 -5.432398245E-02 -3.916433295E-01
 3.364125788E-01 -5.458030105E-02 -3.989047676E-01
 3.477343917E-01 -5.470523611E-02 -4.068495255E-01
 3.592945933E-01 -5.471905321E-02 -4.055642010E-01
 3.700208962E-01 -5.464394391E-02 -4.062158461E-01
 3.810711205E-01 -5.447937921E-02 -4.063975007E-01
 3.930665553E-01 -5.419195443E-02 -4.038551460E-01
 4.068834186E-01 -5.370629951E-02 -3.939367176E-01
 4.197423458E-01 -5.311918259E-02 -3.864073933E-01
 4.321233332E-01 -5.241361260E-02 -3.693132291E-01
 4.445689321E-01 -5.160812289E-02 -3.623909262E-01
 4.557771087E-01 -5.073975399E-02 -3.369818919E-01
 4.670348167E-01 -4.979175702E-02 -3.190936207E-01
 4.787818491E-01 -4.871212319E-02 -2.974316779E-01
 4.901814759E-01 -4.758283868E-02 -2.757668746E-01
 5.031820536E-01 -4.620488361E-02 -2.498135325E-01
 5.168996453E-01 -4.466715828E-02 -2.257753008E-01
 5.296990275E-01 -4.311917722E-02 -1.896889376E-01
 5.429155231E-01 -4.150201008E-02 -1.701227735E-01
 5.546416044E-01 -4.000195116E-02 -1.420194829E-01
 5.683355331E-01 -3.824466467E-02 -1.246480379E-01
 5.807115436E-01 -3.657252714E-02 -9.152133259E-02
 5.926240087E-01 -3.499092162E-02 -7.934744282E-02
 6.052153111E-01 -3.326468542E-02 -5.191333033E-02
 6.204228997E-01 -3.117643297E-02 -2.799940500E-02
 6.351729035E-01 -2.915468253E-02 -6.734451979E-03
 6.513170600E-01 -2.692406438E-02 1.842822119E-02
 6.636822820E-01 -2.521198988E-02 4.032396049E-02
 6.769672036E-01 -2.342359535E-02 5.096102150E-02
 6.891560555E-01 -2.174852975E-02 7.458222790E-02
 7.015586495E-01 -2.008667961E-02 8.812392057E-02
 7.156444788E-01 -1.820914075E-02 1.079664096E-01
 7.287164927E-01 -1.649395935E-02 1.256636211E-01
 7.410844564E-01 -1.491475385E-02 1.388877253E-01
 7.552694678E-01 -1.313736383E-02 1.543573512E-01
 7.668381929E-01 -1.169387810E-02 1.738661991E-01
 7.801889181E-01 -1.010707393E-02 1.847587456E-01
 7.917306423E-01 -8.745097555E-03 2.043947405E-01
 8.046392202E-01 -7.295874879E-03 2.186858371E-01
 8.157624006E-01 -6.134402007E-03 2.245872584E-01
 8.271027803E-01 -4.938013386E-03 2.469804969E-01
 8.405109048E-01 -3.657254623E-03 2.568759432E-01
 8.529577851E-01 -2.541202120E-03 2.717051699E-01
 8.652996421E-01 -1.543572638E-03 2.822147046E-01
 8.763882518E-01 -7.230655174E-04 2.957063842E-01
 8.878752589E-01 1.055936173E-05 3.039766548E-01
 9.008311629E-01 6.859956775E-04 3.088469386E-01
 9.110637307E-01 1.114648650E-03 3.143278441E-01
 9.216136932E-01 1.451336662E-03 3.162854434E-01
 9.309220910E-01 1.657577348E-03 3.172914461E-01
 9.389201999E-01 1.766399248E-03 3.196161911E-01
 9.497904181E-01 1.812005299E-03 3.159769952E-01
 9.612523913E-01 1.740058186E-03 3.127215623E-01
 9.754446149E-01 1.489364658E-03 3.099115149E-01
 9.875718355E-01 1.115931082E-03 3.045384457E-01
 -5.000000000E-01 -1.000000000E+00 1.447252716E-02
 3.500000000E+00 -1.000000000E+00 8.652802983E-03
 3.500000000E+00 1.000000000E+00 -2.522213214E-02
 -5.000000000E-01 1.000000000E+00 -1.206242702E-03
 9.946590066E-01 1.614863926E-03 3.596984466E-01
 9.832748175E-01 4.025198752E-03 2.214403967E-01
 9.682210386E-01 7.199585671E-03 1.420263971E-01
 9.518466890E-01 1.069565723E-02 7.992850793E-02
 9.362180233E-01 1.401519729E-02 3.197340490E-02
 9.224564433E-01 1.693264116E-02 -1.364507730E-02
 9.112096131E-01 1.929208450E-02 -4.066759218E-02
 9.000803530E-01 2.159851603E-02 -7.911280485E-02
 8.888269961E-01 2.388562728E-02 -1.058973092E-01
 8.771843612E-01 2.617250104E-02 -1.291899778E-01
 8.646958470E-01 2.856616769E-02 -1.464783092E-01
 8.522403538E-01 3.092632536E-02 -1.829402606E-01
 8.410749733E-01 3.298453987E-02 -2.012552382E-01
 8.299692571E-01 3.494193219E-02 -2.092823038E-01
 8.178638816E-01 3.705521114E-02 -2.347394640E-01
 8.054254651E-01 3.917015158E-02 -2.526124704E-01
 7.924442887E-01 4.129270464E-02 -2.597496293E-01
 7.796801031E-01 4.335551336E-02 -2.836893388E-01
 7.677593231E-01 4.524818994E-02 -3.053958858E-01
 7.551043630E-01 4.717426561E-02 -3.145794876E-01
 7.413747609E-01 4.921245016E-02 -3.295684833E-01
 7.291295230E-01 5.100387335E-02 -3.524376791E-01
 7.182239592E-01 5.255348422E-02 -3.666825009E-01
 7.067122161E-01 5.414152145E-02 -3.865364765E-01
 6.939324737E-01 5.583889782E-02 -4.020302451E-01
 6.806506515E-01 5.752670020E-02 -4.168942147E-01
 6.691164076E-01 5.893570371E-02 -4.287489574E-01
 6.581212878E-01 6.023318693E-02 -4.463537283E-01
 6.460856795E-01 6.159644574E-02 -4.595055388E-01
 6.339586675E-01 6.290339679E-02 -4.798368722E-01
 6.219114363E-01 6.411888450E-02 -4.822339827E-01
 6.105526090E-01 6.520854682E-02 -5.016809083E-01
 5.990244448E-01 6.625413150E-02 -5.103115942E-01
 5.871421397E-01 6.725558266E-02 -5.229348455E-01
 5.748134553E-01 6.821507588E-02 -5.353376033E-01
 5.620210767E-01 6.910960749E-02 -5.325928847E-01
 5.501312315E-01 6.987196952E-02 -5.466375389E-01
 5.390265882E-01 7.052221149E-02 -5.488998291E-01
 5.281418860E-01 7.108486444E-02 -5.550859201E-01
 5.167131424E-01 7.161208615E-02 -5.538482408E-01
 5.053457767E-01 7.207264751E-02 -5.646608403E-01
 4.932402819E-01 7.247624546E-02 -5.573836361E-01
 4.798474163E-01 7.283449546E-02 -5.557366201E-01
 4.664378017E-01 7.312201336E-02 -5.612302588E-01
 4.534241110E-01 7.330628112E-02 -5.556208355E-01
 4.409300536E-01 7.340303808E-02 -5.534070371E-01
 4.288429767E-01 7.343378663E-02 -5.509774549E-01
 4.169093221E-01 7.339949533E-02 -5.510269980E-01
 4.050400406E-01 7.329741120E-02 -5.451330846E-01
 3.930531591E-01 7.313076779E-02 -5.432429673E-01
 3.811088502E-01 7.290460169E-02 -5.401033752E-01
 3.689600527E-01 7.260599360E-02 -5.343123532E-01
 3.562527597E-01 7.223480940E-02 -5.368424108E-01
 3.431282640E-01 7.176753879E-02 -5.287932253E-01
 3.308800161E-01 7.125775144E-02 -5.263651980E-01
 3.189279884E-01 7.069620118E-02 -5.239530065E-01
 3.059076369E-01 7.000243664E-02 -5.150474587E-01
 2.924145162E-01 6.920345128E-02 -5.114529832E-01
 2.796760350E-01 6.837598979E-02 -5.089655876E-01
 2.679265738E-01 6.753095612E-02 -5.025382149E-01
 2.558710426E-01 6.659202278E-02 -4.986517915E-01
 2.436235696E-01 6.555779651E-02 -4.928016893E-01
 2.312743515E-01 6.442729384E-02 -4.856997668E-01
 2.189404443E-01 6.321426854E-02 -4.818398512E-01
 2.066043690E-01 6.190219149E-02 -4.735002557E-01
 1.939863712E-01 6.045544520E-02 -4.640378535E-01
 1.817351133E-01 5.895105749E-02 -4.561871397E-01
 1.699989811E-01 5.740749091E-02 -4.484209443E-01
 1.581548452E-01 5.573897623E-02 -4.371482760E-01
 1.466467083E-01 5.400773138E-02 -4.287365456E-01
 1.351300925E-01 5.214919336E-02 -4.153564318E-01
 1.235033348E-01 5.014168657E-02 -4.011624373E-01
 1.125682369E-01 4.811719060E-02 -3.868584899E-01
 1.021079943E-01 4.604649171E-02 -3.715202613E-01
 9.157600626E-02 4.380918108E-02 -3.547497272E-01
 8.043999225E-02 4.125544615E-02 -3.284368636E-01
 6.980623677E-02 3.861365467E-02 -3.048851304E-01
 5.992320366E-02 3.593342192E-02 -2.734304765E-01
 6.999097019E-02 -2.944435831E-02 -1.952298925E-01
 8.005985990E-02 -3.132100869E-02 -2.023323553E-01
 9.019456804E-02 -3.307547234E-02 -2.114641468E-01
 1.009476855E-01 -3.480527364E-02 -2.158632110E-01
 1.122985147E-01 -3.652105294E-02 -2.250549995E-01
 1.238704883E-01 -3.816169314E-02 -2.336727267E-01
 1.352727413E-01 -3.968581930E-02 -2.432348443E-01
 1.464481950E-01 -4.109140299E-02 -2.504337770E-01
 1.584539637E-01 -4.251799919E-02 -2.578974482E-01
 1.707200706E-01 -4.389868490E-02 -2.701874846E-01
 1.827937886E-01 -4.517603479E-02 -2.797625003E-01
 1.945088208E-01 -4.634084739E-02 -2.902906235E-01
 2.059432417E-01 -4.740685783E-02 -2.976030227E-01
 2.181147113E-01 -4.847335070E-02 -3.088836686E-01
 2.308869138E-01 -4.950601608E-02 -3.207174967E-01
 2.435373142E-01 -5.044684000E-02 -3.293802204E-01
 2.557970136E-01 -5.128372461E-02 -3.433513417E-01
 2.675398141E-01 -5.200209282E-02 -3.523567034E-01
 2.794967741E-01 -5.265001208E-02 -3.593535775E-01
 2.919271290E-01 -5.324310437E-02 -3.701043098E-01
 3.046064228E-01 -5.374960415E-02 -3.800422217E-01
 3.172196895E-01 -5.415281840E-02 -3.879526821E-01
 3.298774511E-01 -5.445214175E-02 -3.944952709E-01
 3.420734853E-01 -5.464276858E-02 -4.040584053E-01
 3.535144925E-01 -5.471214466E-02 -4.070020026E-01
 3.646577448E-01 -5.468149856E-02 -4.065657246E-01
 3.755460083E-01 -5.456166156E-02 -4.053748945E-01
 3.870688379E-01 -5.433566682E-02 -4.041010876E-01
 3.999749869E-01 -5.394912697E-02 -3.983297307E-01
 4.133128822E-01 -5.341274105E-02 -3.915306005E-01
 4.259328395E-01 -5.276639760E-02 -3.798768489E-01
 4.383461326E-01 -5.201086774E-02 -3.643014866E-01
 4.501730204E-01 -5.117393844E-02 -3.541873889E-01
 4.614059627E-01 -5.026575550E-02 -3.275626039E-01
 4.729083329E-01 -4.925194010E-02 -3.083235558E-01
 4.844816625E-01 -4.814748093E-02 -2.871789815E-01
 4.966817647E-01 -4.689386114E-02 -2.623651473E-01
 5.100408494E-01 -4.543602094E-02 -2.370930791E-01
 5.232993364E-01 -4.389316775E-02 -2.105019498E-01
 5.363072753E-01 -4.231059365E-02 -1.782911131E-01
 5.487785637E-01 -4.075198062E-02 -1.576711874E-01
 5.614885688E-01 -3.912330791E-02 -1.315302043E-01
 5.745235384E-01 -3.740859590E-02 -1.112097982E-01
 5.866677761E-01 -3.578172438E-02 -8.305874947E-02
 5.989196599E-01 -3.412780352E-02 -6.728231596E-02
 6.128191054E-01 -3.222055919E-02 -4.026904660E-02
 6.277979016E-01 -3.016555775E-02 -1.677507743E-02
 6.432449818E-01 -2.803937346E-02 5.311673968E-03
 6.574996710E-01 -2.606802713E-02 2.916515187E-02
 6.703247428E-01 -2.431779262E-02 4.727926344E-02
 6.830616295E-01 -2.258606255E-02 6.084386370E-02
 6.953573525E-01 -2.091760468E-02 8.238184040E-02
 7.086015642E-01 -1.914791018E-02 9.726041714E-02
 7.221804857E-01 -1.735155005E-02 1.166363501E-01
 7.349004745E-01 -1.570435660E-02 1.330180672E-01
 7.481769621E-01 -1.402605884E-02 1.463820359E-01
 7.610538304E-01 -1.241562096E-02 1.631968147E-01
 7.735135555E-01 -1.090047602E-02 1.797805248E-01
 7.859597802E-01 -9.426085744E-03 1.934837697E-01
 7.981849313E-01 -8.020486217E-03 2.111460684E-01
 8.102008104E-01 -6.715138443E-03 2.241624032E-01
 8.214325905E-01 -5.536207696E-03 2.328412461E-01
 8.338068426E-01 -4.297634005E-03 2.516960399E-01
 8.467343450E-01 -3.099228372E-03 2.639131460E-01
 8.591287136E-01 -2.042387379E-03 2.776239227E-01
 8.708439469E-01 -1.133319078E-03 2.886926194E-01
 8.821317554E-01 -3.562530778E-04 2.993779855E-01
 8.943532109E-01 3.482775196E-04 3.062144023E-01
 9.059474468E-01 9.003221639E-04 3.134603446E-01
 9.163387120E-01 1.282992656E-03 3.157110352E-01
 9.443553090E-01 1.789202273E-03 3.158898906E-01
 9.555214047E-01 1.776031742E-03 3.138369298E-01
 9.683485031E-01 1.614711422E-03 3.094210837E-01
 9.815082252E-01 1.302647870E-03 3.126358145E-01
 9.936484098E-01 8.148978231E-04 3.694773453E-01
 -5.000000000E-01 9.500000000E-01 -1.493287244E-03
 -5.000000000E-01 9.000000000E-01 -1.455349486E-03
 -5.000000000E-01 8.500000000E-01 -6.124428251E-04
 -5.000000000E-01 8.000000000E-01 9.649440290E-04
 -5.000000000E-01 7.500000000E-01 3.353636497E-03
 -5.000000000E-01 7.000000000E-01 6.543132420E-03
 -5.000000000E-01 6.500000000E-01 1.064708214E-02
 -5.000000000E-01 6.000000000E-01 1.566006975E-02
 -5.000000000E-01 5.500000000E-01 2.154147693E-02
 -5.000000000E-01 5.000000000E-01 2.829883659E-02
 -5.000000000E-01 4.500000000E-01 3.591589039E-02
 -5.000000000E-01 4.000000000E-01 4.424304519E-02
 -5.000000000E-01 3.500000000E-01 5.312120359E-02
 -5.000000000E-01 3.000000000E-01 6.227492135E-02
 -5.000000000E-01 2.500000000E-01 7.144893467E-02
 -5.000000000E-01 2.000000000E-01 8.017795222E-02
 -5.000000000E-01 1.500000000E-01 8.816928955E-02
 -5.000000000E-01 1.000000000E-01 9.487115554E-02
 -5.000000000E-01 5.000000000E-02 9.994987958E-02
 -5.000000000E-01 2.752242878E-12 1.031657327E-01
 -5.000000000E-01 -5.000000000E-02 1.044636160E-01
 -5.000000000E-01 -1.000000000E-01 1.038040901E-01
 -5.000000000E-01 -1.500000000E-01 1.014437663E-01
 -5.000000000E-01 -2.000000000E-01 9.760100423E-02
 -5.000000000E-01 -2.500000000E-01 9.280466033E-02
 -5.000000000E-01 -3.000000000E-01 8.724387358E-02
 -5.000000000E-01 -3.500000000E-01 8.120110369E-02
 -5.000000000E-01 -4.000000000E-01 7.516479097E-02
 -5.000000000E-01 -4.500000000E-01 6.907321617E-02
 -5.000000000E-01 -5.000000000E-01 6.335896768E-02
 -5.000000000E-01 -5.500000000E-01 5.791216934E-02
 -5.000000000E-01 -6.000000000E-01 5.268917463E-02
 -5.000000000E-01 -6.500000000E-01 4.803526671E-02
 -5.000000000E-01 -7.000000000E-01 4.349411815E-02
 -5.000000000E-01 -7.500000000E-01 3.933076585E-02
 -5.000000000E-01 -8.000000000E-01 3.531783964E-02
 -5.000000000E-01 -8.500000000E-01 3.126306560E-02
 -5.000000000E-01 -9.000000000E-01 2.656395993E-02
 -5.000000000E-01 -9.500000000E-01 1.985229281E-02
 -4.500000000E-01 -1.000000000E+00 1.813029685E-02
 -4.000000000E-01 -1.000000000E+00 2.350988805E-02
 -3.500000000E-01 -1.000000000E+00 2.610149218E-02
 -3.000000000E-01 -1.000000000E+00 2.736351360E-02
 -2.500000000E-01 -1.000000000E+00 2.800804921E-02
 -2.000000000E-01 -1.000000000E+00 2.773381857E-02
 -1.500000000E-01 -1.000000000E+00 2.700023991E-02
 -1.000000000E-01 -1.000000000E+00 2.537953192E-02
 -5.000000000E-02 -1.000000000E+00 2.331170231E-02
 -9.424683256E-13 -1.000000000E+00 2.076325566E-02
 5.000000000E-02 -1.000000000E+00 1.791644368E-02
 1.000000000E-01 -1.000000000E+00 1.485607924E-02
 1.500000000E-01 -1.000000000E+00 1.176542246E-02
 2.000000000E-01 -1.000000000E+00 8.677922475E-03
 2.500000000E-01 -1.000000000E+00 5.908372267E-03
 3.000000000E-01 -1.000000000E+00 3.533745279E-03
 3.500000000E-01 -1.000000000E+00 1.611047841E-03
 4.000000000E-01 -1.000000000E+00 3.312233948E-04
 4.500000000E-01 -1.000000000E+00 -3.626678743E-04
 5.000000000E-01 -1.000000000E+00 -3.967449107E-04
 5.500000000E-01 -1.000000000E+00 3.552992394E-04
 6.000000000E-01 -1.000000000E+00 1.704513294E-03
 6.500000000E-01 -1.000000000E+00 3.626843392E-03
 7.000000000E-01 -1.000000000E+00 6.056779828E-03
 7.500000000E-01 -1.000000000E+00 8.756347219E-03
 8.000000000E-01 -1.000000000E+00 1.176324063E-02
 8.500000000E-01 -1.000000000E+00 1.490970540E-02
 9.000000000E-01 -1.000000000E+00 1.806034679E-02
 9.500000000E-01 -1.000000000E+00 2.113731715E-02
 1.000000000E+00 -1.000000000E+00 2.401030407E-02
 1.050000000E+00 -1.000000000E+00 2.662219170E-02
 1.100000000E+00 -1.000000000E+00 2.894145541E-02
 1.150000000E+00 -1.000000000E+00 3.096437299E-02
 1.200000000E+00 -1.000000000E+00 3.260425589E-02
 1.250000000E+00 -1.000000000E+00 3.392732809E-02
 1.300000000E+00 -1.000000000E+00 3.491204260E-02
 1.350000000E+00 -1.000000000E+00 3.559392891E-02
 1.400000000E+00 -1.000000000E+00 3.600537349E-02
 1.450000000E+00 -1.000000000E+00 3.615254258E-02
 1.500000000E+00 -1.000000000E+00 3.611252097E-02
 1.550000000E+00 -1.000000000E+00 3.586638329E-02
 1.600000000E+00 -1.000000000E+00 3.546283575E-02
 1.650000000E+00 -1.000000000E+00 3.495998494E-02
 1.700000000E+00 -1.000000000E+00 3.432413806E-02
 1.750000000E+00 -1.000000000E+00 3.365130087E-02
 1.800000000E+00 -1.000000000E+00 3.288923797E-02
 1.850000000E+00 -1.000000000E+00 3.208812328E-02
 1.900000000E+00 -1.000000000E+00 3.129155124E-02
 1.950000000E+00 -1.000000000E+00 3.046279158E-02
 2.000000000E+00 -1.000000000E+00 2.966312892E-02
 2.050000000E+00 -1.000000000E+00 2.881113138E-02
 2.100000000E+00 -1.000000000E+00 2.807635698E-02
 2.150000000E+00 -1.000000000E+00 2.726541166E-02
 2.200000000E+00 -1.000000000E+00 2.657780363E-02
 2.250000000E+00 -1.000000000E+00 2.586262563E-02
 2.300000000E+00 -1.000000000E+00 2.520860887E-02
 2.350000000E+00 -1.000000000E+00 2.456024165E-02
 2.400000000E+00 -1.000000000E+00 2.397735929E-02
 2.450000000E+00 -1.000000000E+00 2.342925441E-02
 2.500000000E+00 -1.000000000E+00 2.290483311E-02
 2.550000000E+00 -1.000000000E+00 2.246854310E-02
 2.600000000E+00 -1.000000000E+00 2.201089688E-02
 2.650000000E+00 -1.000000000E+00 2.165857052E-02
 2.700000000E+00 -1.000000000E+00 2.126993482E-02
 2.750000000E+00 -1.000000000E+00 2.095215117E-02
 2.800000000E+00 -1.000000000E+00 2.063760418E-02
 2.850000000E+00 -1.000000000E+00 2.035973691E-02
 2.900000000E+00 -1.000000000E+00 2.011153414E-02
 2.950000000E+00 -1.000000000E+00 1.984906217E-02
 3.000000000E+00 -1.000000000E+00 1.959429811E-02
 3.050000000E+00 -1.000000000E+00 1.935257633E-02
 3.100000000E+00 -1.000000000E+00 1.901161402E-02
 3.150000000E+00 -1.000000000E+00 1.869565080E-02
 3.200000000E+00 -1.000000000E+00 1.822043954E-02
 3.250000000E+00 -1.000000000E+00 1.767854393E-02
 3.300000000E+00 -1.000000000E+00 1.693876311E-02
 3.350000000E+00 -1.000000000E+00 1.588723666E-02
 3.400000000E+00 -1.000000000E+00 1.424825113E-02
 3.450000000E+00 -1.000000000E+00 1.164504904E-02
 3.500000000E+00 -9.500000000E-01 7.839301025E-03
 3.500000000E+00 -9.000000000E-01 9.348203973E-03
 3.500000000E+00 -8.500000000E-01 1.086611104E-02
 3.500000000E+00 -8.000000000E-01 1.239602975E-02
 3.500000000E+00 -7.500000000E-01 1.386603309E-02
 3.500000000E+00 -7.000000000E-01 1.536058700E-02
 3.500000000E+00 -6.500000000E-01 1.692355297E-02
 3.500000000E+00 -6.000000000E-01 1.855284479E-02
 3.500000000E+00 -5.500000000E-01 2.037387254E-02
 3.500000000E+00 -5.000000000E-01 2.220976055E-02
 3.500000000E+00 -4.500000000E-01 2.425932483E-02
 3.500000000E+00 -4.000000000E-01 2.635348397E-02
 3.500000000E+00 -3.500000000E-01 2.850296085E-02
 3.500000000E+00 -3.000000000E-01 3.060587987E-02
 3.500000000E+00 -2.500000000E-01 3.212780055E-02
 3.500000000E+00 -2.000000000E-01 3.295531638E-02
 3.500000000E+00 -1.500000000E-01 3.278199427E-02
 3.500000000E+00 -1.000000000E-01 3.206316062E-02
 3.500000000E+00 -5.000000000E-02 3.103950421E-02
 3.500000000E+00 -2.752242878E-12 3.037058749E-02
 3.500000000E+00 5.000000000E-02 2.984373750E-02
 3.500000000E+00 1.000000000E-01 2.879296592E-02
 3.500000000E+00 1.500000000E-01 2.708413077E-02
 3.500000000E+00 2.000000000E-01 2.456584290E-02
 3.500000000E+00 2.500000000E-01 2.149201899E-02
 3.500000000E+00 3.000000000E-01 1.826125574E-02
 3.500000000E+00 3.500000000E-01 1.519954335E-02
 3.500000000E+00 4.000000000E-01 1.229622604E-02
 3.500000000E+00 4.500000000E-01 9.617686461E-03
 3.500000000E+00 5.000000000E-01 7.246047900E-03
 3.500000000E+00 5.500000000E-01 5.245187841E-03
 3.500000000E+00 6.000000000E-01 3.954362121E-03
 3.500000000E+00 6.500000000E-01 3.449471063E-03
 3.500000000E+00 7.000000000E-01 3.487169191E-03
 3.500000000E+00 7.500000000E-01 3.011464827E-03
 3.500000000E+00 8.000000000E-01 -2.603102832E-04
 3.500000000E+00 8.500000000E-01 -6.193902333E-03
 3.500000000E+00 9.000000000E-01 -1.404488224E-02
 3.500000000E+00 9.500000000E-01 -2.487653276E-02
 3.450000000E+00 1.000000000E+00 -1.540801172E-02
 3.400000000E+00 1.000000000E+00 -7.148596786E-03
 3.350000000E+00 1.000000000E+00 -3.179836490E-03
 3.300000000E+00 1.000000000E+00 -1.327118570E-03
 3.250000000E+00 1.000000000E+00 -1.213802605E-04
 3.200000000E+00 1.000000000E+00 3.884798498E-04
 3.150000000E+00 1.000000000E+00 8.808929773E-04
 3.100000000E+00 1.000000000E+00 6.955207157E-04
 3.050000000E+00 1.000000000E+00 6.303645541E-04
 3.000000000E+00 1.000000000E+00 1.964523163E-04
 2.950000000E+00 1.000000000E+00 -1.772004501E-04
 2.900000000E+00 1.000000000E+00 -7.722590748E-04
 2.850000000E+00 1.000000000E+00 -1.411621507E-03
 2.800000000E+00 1.000000000E+00 -2.231460971E-03
 2.750000000E+00 1.000000000E+00 -3.083201683E-03
 2.700000000E+00 1.000000000E+00 -3.994469057E-03
 2.650000000E+00 1.000000000E+00 -4.353754810E-03
 2.600000000E+00 1.000000000E+00 -5.784453608E-03
 2.550000000E+00 1.000000000E+00 -6.549116682E-03
 2.500000000E+00 1.000000000E+00 -7.879891250E-03
 2.450000000E+00 1.000000000E+00 -9.183500782E-03
 2.400000000E+00 1.000000000E+00 -1.047923544E-02
 2.350000000E+00 1.000000000E+00 -1.177097557E-02
 2.300000000E+00 1.000000000E+00 -1.348175024E-02
 2.250000000E+00 1.000000000E+00 -1.486102624E-02
 2.200000000E+00 1.000000000E+00 -1.675972009E-02
 2.150000000E+00 1.000000000E+00 -1.849539994E-02
 2.100000000E+00 1.000000000E+00 -2.042749731E-02
 2.050000000E+00 1.000000000E+00 -2.241089653E-02
 2.000000000E+00 1.000000000E+00 -2.465328195E-02
 1.950000000E+00 1.000000000E+00 -2.716309019E-02
 1.900000000E+00 1.000000000E+00 -2.975545491E-02
 1.850000000E+00 1.000000000E+00 -3.242698748E-02
 1.800000000E+00 1.000000000E+00 -3.561797645E-02
 1.750000000E+00 1.000000000E+00 -3.866382336E-02
 1.700000000E+00 1.000000000E+00 -4.221108693E-02
 1.650000000E+00 1.000000000E+00 -4.592998195E-02
 1.600000000E+00 1.000000000E+00 -4.989583748E-02
 1.550000000E+00 1.000000000E+00 -5.400044837E-02
 1.500000000E+00 1.000000000E+00 -5.863507391E-02
 1.450000000E+00 1.000000000E+00 -6.340836835E-02
 1.400000000E+00 1.000000000E+00 -6.867341364E-02
 1.350000000E+00 1.000000000E+00 -7.363649398E-02
 1.300000000E+00 1.000000000E+00 -7.949449179E-02
 1.250000000E+00 1.000000000E+00 -8.533972876E-02
 1.200000000E+00 1.000000000E+00 -9.125664582E-02
 1.150000000E+00 1.000000000E+00 -9.718585861E-02
 1.100000000E+00 1.000000000E+00 -1.032900552E-01
 1.050000000E+00 1.000000000E+00 -1.088171425E-01
 1.000000000E+00 1.000000000E+00 -1.146747406E-01
 9.500000000E-01 1.000000000E+00 -1.193692790E-01
 9.000000000E-01 1.000000000E+00 -1.231017519E-01
 8.500000000E-01 1.000000000E+00 -1.264210963E-01
 8.000000000E-01 1.000000000E+00 -1.295905339E-01
 7.500000000E-01 1.000000000E+00 -1.304832861E-01
 7.000000000E-01 1.000000000E+00 -1.311791227E-01
 6.500000000E-01 1.000000000E+00 -1.301930548E-01
 6.000000000E-01 1.000000000E+00 -1.275895632E-01
 5.500000000E-01 1.000000000E+00 -1.246148441E-01
 5.000000000E-01 1.000000000E+00 -1.194172748E-01
 4.500000000E-01 1.000000000E+00 -1.140164934E-01
 4.000000000E-01 1.000000000E+00 -1.064511464E-01
 3.500000000E-01 1.000000000E+00 -9.956211567E-02
 3.000000000E-01 1.000000000E+00 -9.094753713E-02
 2.500000000E-01 1.000000000E+00 -8.233814477E-02
 2.000000000E-01 1.000000000E+00 -7.329873758E-02
 1.500000000E-01 1.000000000E+00 -6.420458026E-02
 1.000000000E-01 1.000000000E+00 -5.554797864E-02
 5.000000000E-02 1.000000000E+00 -4.697821696E-02
 1.733724275E-12 1.000000000E+00 -3.898638786E-02
 -5.000000000E-02 1.000000000E+00 -3.160345719E-02
 -1.000000000E-01 1.000000000E+00 -2.502091172E-02
 -1.500000000E-01 1.000000000E+00 -1.913561366E-02
 -2.000000000E-01 1.000000000E+00 -1.428880817E-02
 -2.500000000E-01 1.000000000E+00 -1.017644590E-02
 -3.000000000E-01 1.000000000E+00 -7.021554119E-03
 -3.500000000E-01 1.000000000E+00 -4.571121485E-03
 -4.000000000E-01 1.000000000E+00 -2.929887979E-03
 -4.500000000E-01 1.000000000E+00 -1.726675220E-03
 9.843855199E-01 -3.834589556E-03 3.075076931E-01
 8.852349084E-01 -6.001925336E-03 2.939032631E-01
 8.079229478E-01 -1.182198505E-02 2.184446082E-01
 7.387577522E-01 -2.073175709E-02 1.339793289E-01
 6.677512902E-01 -3.031968873E-02 4.197764553E-02
 5.965834134E-01 -4.014406078E-02 -7.043849301E-02
 5.344114553E-01 -4.779784214E-02 -1.799395604E-01
 4.698420039E-01 -5.505095239E-02 -3.055183852E-01
 4.170090642E-01 -5.864518443E-02 -3.765676754E-01