TITLE     = "Visualization of the solution"
VARIABLES = "x"
"y"
"Pressure_Coefficient"
ZONE T="Zone"
 STRANDID=0, SOLUTIONTIME=0
 Nodes=12410, Elements=24237, ZONETYPE=FEQuadrilateral
 DATAPACKING=POINT
 DT=(DOUBLE DOUBLE DOUBLE )
 1.000318885E+00 5.216380232E-04 2.267984951E-01
 9.883161783E-01 2.820182126E-03 1.619651974E-01
 9.765114784E-01 5.019190256E-03 1.010714544E-01
 9.620001912E-01 7.674215827E-03 6.149350736E-02
 9.482966065E-01 1.024206728E-02 1.381102976E-02
 9.352723956E-01 1.264867745E-02 -2.211292914E-02
 9.240033031E-01 1.471966133E-02 -6.337736966E-02
 9.113832116E-01 1.690718718E-02 -7.486019181E-02
 8.999072909E-01 1.893580519E-02 -1.163353726E-01
 8.875444531E-01 2.097881213E-02 -1.302446963E-01
 8.753580451E-01 2.296289429E-02 -1.540578521E-01
 8.633066416E-01 2.484827302E-02 -1.715454910E-01
 8.504380584E-01 2.677820995E-02 -1.834894252E-01
 8.386824131E-01 2.849025652E-02 -1.936938369E-01
 8.267714977E-01 3.018519469E-02 -2.051807189E-01
 8.136184812E-01 3.200504184E-02 -2.146947760E-01
 8.004016876E-01 3.380319476E-02 -2.266261585E-01
 7.881264687E-01 3.545356169E-02 -2.449471157E-01
 7.751981020E-01 3.711732849E-02 -2.508096878E-01
 7.630156875E-01 3.867275268E-02 -2.632411800E-01
 7.497827411E-01 4.033558443E-02 -2.801871652E-01
 7.356030345E-01 4.206008464E-02 -2.995746602E-01
 7.243648171E-01 4.335396737E-02 -2.981454977E-01
 7.133192420E-01 4.464345425E-02 -3.179941180E-01
 7.014453411E-01 4.596394673E-02 -3.244290976E-01
 6.879212856E-01 4.744719714E-02 -3.423424505E-01
 6.747229099E-01 4.883337021E-02 -3.571188889E-01
 6.643664837E-01 4.987749830E-02 -3.641545271E-01
 6.529461145E-01 5.100632086E-02 -3.800824661E-01
 6.415505409E-01 5.207834765E-02 -3.916013860E-01
 6.295267940E-01 5.315359682E-02 -4.039096125E-01
 6.182442904E-01 5.410301313E-02 -4.073428163E-01
 6.075239182E-01 5.499299988E-02 -4.273072547E-01
 5.947260857E-01 5.595175177E-02 -4.312010437E-01
 5.829058886E-01 5.679508299E-02 -4.422234699E-01
 5.693157911E-01 5.768485740E-02 -4.541798378E-01
 5.565521121E-01 5.843168497E-02 -4.579727280E-01
 5.440186262E-01 5.910715461E-02 -4.685333366E-01
 5.329863429E-01 5.963299423E-02 -4.710471550E-01
 5.211333632E-01 6.014395878E-02 -4.790456640E-01
 5.083009601E-01 6.060229614E-02 -4.792384830E-01
 4.972876906E-01 6.094200909E-02 -4.815875400E-01
 4.840091765E-01 6.127034500E-02 -4.804391095E-01
 4.710319638E-01 6.153166294E-02 -4.862188779E-01
 4.569138587E-01 6.170903146E-02 -4.866323481E-01
 4.430330992E-01 6.178123876E-02 -4.801591212E-01
 4.301967919E-01 6.178885698E-02 -4.799274659E-01
 4.173568487E-01 6.172380224E-02 -4.793467130E-01
 4.050396085E-01 6.159019843E-02 -4.766474565E-01
 3.927482665E-01 6.138727814E-02 -4.726687218E-01
 3.807119429E-01 6.112568080E-02 -4.678778723E-01
 3.696496487E-01 6.083878130E-02 -4.667911554E-01
 3.564999104E-01 6.041217223E-02 -4.574040713E-01
 3.444235027E-01 5.997663736E-02 -4.573440389E-01
 3.319402337E-01 5.944311619E-02 -4.491251033E-01
 3.212862015E-01 5.894543603E-02 -4.439179066E-01
 3.088843822E-01 5.831054226E-02 -4.405309452E-01
 2.958220840E-01 5.756438524E-02 -4.330904743E-01
 2.819592953E-01 5.669552833E-02 -4.272055142E-01
 2.692622244E-01 5.582544953E-02 -4.197174971E-01
 2.572995126E-01 5.494778603E-02 -4.146193378E-01
 2.445881963E-01 5.393981561E-02 -4.067523122E-01
 2.318253219E-01 5.285314098E-02 -3.980514289E-01
 2.195132226E-01 5.174362287E-02 -3.932918347E-01
 2.077254951E-01 5.060898140E-02 -3.875310893E-01
 1.963456273E-01 4.943452403E-02 -3.748464701E-01
 1.840383559E-01 4.810967669E-02 -3.687908771E-01
 1.720724255E-01 4.674607515E-02 -3.657467735E-01
 1.605071723E-01 4.532749951E-02 -3.499043802E-01
 1.484464854E-01 4.378811643E-02 -3.461411859E-01
 1.376186013E-01 4.231362417E-02 -3.333763147E-01
 1.261726022E-01 4.068459570E-02 -3.286936315E-01
 1.144607291E-01 3.889865428E-02 -3.169162030E-01
 1.038121507E-01 3.718456626E-02 -3.078717375E-01
 9.393227100E-02 3.550162166E-02 -2.991428426E-01
 8.267315477E-02 3.344994411E-02 -2.862314079E-01
 7.071156800E-02 3.110326640E-02 -2.763468246E-01
 6.066160649E-02 2.896183915E-02 -2.614641929E-01
 5.081028119E-02 2.668750472E-02 -2.474762939E-01
 4.190807045E-02 2.443978563E-02 -2.343835583E-01
 3.442657739E-02 2.236010693E-02 -2.159781982E-01
 2.792740613E-02 2.036562003E-02 -1.950339135E-01
 2.242559753E-02 1.850032806E-02 -1.843360822E-01
 1.853127033E-02 1.704708487E-02 -1.528319356E-01
 1.491689775E-02 1.556482818E-02 -1.310021301E-01
 1.227121148E-02 1.437028125E-02 -9.974746751E-02
 9.907424450E-03 1.320637017E-02 -7.443136499E-02
 8.160479367E-03 1.226638258E-02 -3.841380999E-02
 6.597162224E-03 1.134684309E-02 -1.769773248E-02
 5.151151214E-03 1.042302139E-02 5.723544544E-02
 3.248054767E-03 9.030068293E-03 1.440300609E-01
 1.617902773E-03 7.608686574E-03 2.490814951E-01
 2.108367189E-04 6.065343041E-03 4.705057644E-01
 -1.102247857E-03 4.008621909E-03 7.329741325E-01
 -1.705267001E-03 2.363424515E-03 9.283193510E-01
 -1.912690816E-03 1.073780004E-03 1.049758881E+00
 -1.868672203E-03 -4.293677630E-04 1.115997325E+00
 -1.468025031E-03 -2.125018276E-03 1.066717854E+00
 -5.629569641E-04 -4.087732174E-03 9.392631987E-01
 8.996345568E-04 -6.162480917E-03 7.194272830E-01
 2.961403690E-03 -8.324270137E-03 5.638834451E-01
 4.804845434E-03 -9.895881638E-03 4.189711378E-01
 7.003089879E-03 -1.151316799E-02 3.338920770E-01
 8.618704043E-03 -1.257173158E-02 2.427686928E-01
 1.065872516E-02 -1.379615627E-02 2.034940791E-01
 1.305594016E-02 -1.511054393E-02 1.396788496E-01
 1.632920466E-02 -1.673189551E-02 8.274924040E-02
 1.941017993E-02 -1.811919175E-02 3.013518481E-02
 2.345973626E-02 -1.978869364E-02 -1.083720674E-02
 2.890115790E-02 -2.179805003E-02 -5.001277201E-02
 3.472024947E-02 -2.374240570E-02 -9.232977296E-02
 4.216109961E-02 -2.596973814E-02 -1.202367650E-01
 4.974615574E-02 -2.803107165E-02 -1.488715510E-01
 5.879959092E-02 -3.025786765E-02 -1.671527895E-01
 6.758856773E-02 -3.223561496E-02 -1.880719845E-01
 7.803295553E-02 -3.440017626E-02 -2.023503799E-01
 8.803568780E-02 -3.631005809E-02 -2.153293112E-01
 9.840963781E-02 -3.815766424E-02 -2.279899110E-01
 1.093219295E-01 -3.997602314E-02 -2.413861290E-01
 1.206530929E-01 -4.173350707E-02 -2.510867559E-01
 1.322085559E-01 -4.341291264E-02 -2.615587934E-01
 1.428572237E-01 -4.487566650E-02 -2.749139317E-01
 1.538818032E-01 -4.629275203E-02 -2.820885962E-01
 1.659909785E-01 -4.776903614E-02 -2.958992796E-01
 1.776356995E-01 -4.908878729E-02 -3.040181995E-01
 1.894233078E-01 -5.035027489E-02 -3.174275651E-01
 1.999220550E-01 -5.139552429E-02 -3.257228542E-01
 2.111051828E-01 -5.244527757E-02 -3.371803988E-01
 2.233059257E-01 -5.349910259E-02 -3.448024661E-01
 2.357741594E-01 -5.450430140E-02 -3.607521033E-01
 2.481486499E-01 -5.540042743E-02 -3.692282025E-01
 2.608556747E-01 -5.622362345E-02 -3.789006689E-01
 2.719181180E-01 -5.686473101E-02 -3.896322809E-01
 2.846928835E-01 -5.751575902E-02 -4.007583112E-01
 2.972734571E-01 -5.804457143E-02 -4.084208576E-01
 3.100678921E-01 -5.847257376E-02 -4.143312896E-01
 3.218912482E-01 -5.879094079E-02 -4.294950892E-01
 3.343363404E-01 -5.897802487E-02 -4.250283143E-01
 3.450538516E-01 -5.907855928E-02 -4.392383491E-01
 3.562641740E-01 -5.905712396E-02 -4.332245880E-01
 3.672099710E-01 -5.894545466E-02 -4.305480810E-01
 3.778898716E-01 -5.876934901E-02 -4.371255920E-01
 3.891751766E-01 -5.846560374E-02 -4.323148775E-01
 4.019944370E-01 -5.798832327E-02 -4.250008008E-01
 4.140443802E-01 -5.739919096E-02 -4.111987180E-01
 4.270844460E-01 -5.664177611E-02 -4.006649819E-01
 4.397867918E-01 -5.575156957E-02 -3.794745369E-01
 4.522000551E-01 -5.476779863E-02 -3.602442226E-01
 4.643736780E-01 -5.369029939E-02 -3.374809247E-01
 4.769356251E-01 -5.249001458E-02 -3.197593817E-01
 4.883533418E-01 -5.129144713E-02 -2.945976304E-01
 5.008155704E-01 -4.989701882E-02 -2.670484080E-01
 5.144937038E-01 -4.827456176E-02 -2.364870013E-01
 5.283319950E-01 -4.656930640E-02 -2.124489974E-01
 5.416474938E-01 -4.483592510E-02 -1.800997461E-01
 5.550355315E-01 -4.305583611E-02 -1.570697382E-01
 5.679547787E-01 -4.127084836E-02 -1.258702363E-01
 5.812906027E-01 -3.943508863E-02 -1.075493050E-01
 5.934287906E-01 -3.771323711E-02 -8.239717184E-02
 6.057914495E-01 -3.594491631E-02 -6.022231054E-02
 6.193579435E-01 -3.398685157E-02 -3.370563127E-02
 6.336840391E-01 -3.193612397E-02 -1.422618219E-02
 6.479161978E-01 -2.990184166E-02 5.439907165E-03
 6.610077024E-01 -2.801166661E-02 2.842877140E-02
 6.746347547E-01 -2.608353272E-02 4.314801278E-02
 6.872495413E-01 -2.428135276E-02 6.476356863E-02
 6.995108128E-01 -2.254545316E-02 8.388129639E-02
 7.142305374E-01 -2.050936036E-02 1.008674855E-01
 7.274017334E-01 -1.873335801E-02 1.124291031E-01
 7.389811277E-01 -1.715571061E-02 1.324427087E-01
 7.515637875E-01 -1.548187155E-02 1.477009870E-01
 7.639743686E-01 -1.385058369E-02 1.681935816E-01
 7.772610188E-01 -1.220336836E-02 1.760183643E-01
 7.891973257E-01 -1.073593553E-02 1.922887535E-01
 8.018110394E-01 -9.229646064E-03 2.064024647E-01
 8.127840161E-01 -7.940642536E-03 2.257304441E-01
 8.241145611E-01 -6.673107389E-03 2.409530096E-01
 8.367761374E-01 -5.367478356E-03 2.503454343E-01
 8.492303491E-01 -4.159200005E-03 2.625328287E-01
 8.611316681E-01 -3.056227462E-03 2.810901532E-01
 8.729789257E-01 -2.090067603E-03 2.892703686E-01
 8.850266337E-01 -1.211455790E-03 2.995415985E-01
 8.980708122E-01 -3.915934358E-04 3.088347370E-01
 9.082497358E-01 1.357236470E-04 3.148497281E-01
 9.185101986E-01 5.640827585E-04 3.173316749E-01
 9.279342890E-01 8.706820663E-04 3.194198324E-01
 9.368119240E-01 1.082589733E-03 3.227226079E-01
 9.489434361E-01 1.250809291E-03 3.221414534E-01
 9.624196291E-01 1.283524674E-03 3.222656415E-01
 9.769181013E-01 1.145723974E-03 3.281165404E-01
 9.895488024E-01 8.692714619E-04 3.462392867E-01
 -5.000000000E-01 -1.000000000E+00 1.215670113E-02
 3.500000000E+00 -1.000000000E+00 7.190464807E-03
 3.500000000E+00 1.000000000E+00 -1.892088098E-02
 -5.000000000E-01 1.000000000E+00 -4.602955625E-04
 9.943175316E-01 1.670910075E-03 2.497365754E-01
 9.824138284E-01 3.919686191E-03 1.254469727E-01
 9.692558348E-01 6.346703041E-03 8.137487783E-02
 9.551483989E-01 8.958141552E-03 3.556062545E-02
 9.417845011E-01 1.144537237E-02 -4.884813989E-03
 9.296378493E-01 1.368416939E-02 -4.740686954E-02
 9.176932573E-01 1.581342425E-02 -6.493676561E-02
 9.056452513E-01 1.792149618E-02 -1.011060342E-01
 8.937258720E-01 1.995730866E-02 -1.215546137E-01
 8.814512491E-01 2.197085321E-02 -1.430128911E-01
 8.693323433E-01 2.390558366E-02 -1.639408293E-01
 8.568723500E-01 2.581324149E-02 -1.766988481E-01
 8.445602357E-01 2.763423324E-02 -1.881333954E-01
 8.327269554E-01 2.933772560E-02 -1.999620184E-01
 8.201949894E-01 3.109511826E-02 -2.092206512E-01
 8.070100844E-01 3.290411830E-02 -2.198749554E-01
 7.942640781E-01 3.462837823E-02 -2.380049198E-01
 7.816622853E-01 3.628544509E-02 -2.462945642E-01
 7.691068947E-01 3.789504059E-02 -2.566954411E-01
 7.563992143E-01 3.950416856E-02 -2.728839437E-01
 7.426928878E-01 4.119783454E-02 -2.906673858E-01
 7.299839258E-01 4.270702600E-02 -2.953272591E-01
 7.188420296E-01 4.399871081E-02 -3.105570809E-01
 7.073822916E-01 4.530370049E-02 -3.199899636E-01
 6.946833134E-01 4.670557193E-02 -3.342780598E-01
 6.813220978E-01 4.814028367E-02 -3.493199924E-01
 6.695446968E-01 4.935543425E-02 -3.597855222E-01
 6.586562991E-01 5.044190958E-02 -3.729640125E-01
 6.472483277E-01 5.154233426E-02 -3.865077828E-01
 6.355386674E-01 5.261597224E-02 -3.980952383E-01
 6.238855422E-01 5.362830497E-02 -4.028909957E-01
 6.128841043E-01 5.454800650E-02 -4.216328534E-01
 6.011250019E-01 5.547237583E-02 -4.274844746E-01
 5.888159871E-01 5.637341738E-02 -4.381704035E-01
 5.761108398E-01 5.723997019E-02 -4.488148369E-01
 5.629339516E-01 5.805827118E-02 -4.551156524E-01
 5.502853692E-01 5.876941979E-02 -4.631424190E-01
 5.385024846E-01 5.937007442E-02 -4.693603989E-01
 5.270598531E-01 5.988847651E-02 -4.770498632E-01
 5.147171617E-01 6.037312746E-02 -4.773650836E-01
 5.027943254E-01 6.077215262E-02 -4.823322412E-01
 4.906484336E-01 6.110617705E-02 -4.798840486E-01
 4.775205702E-01 6.140100397E-02 -4.854164518E-01
 4.639729112E-01 6.162034720E-02 -4.871957338E-01
 4.499734789E-01 6.174513511E-02 -4.815085402E-01
 4.366149455E-01 6.178504787E-02 -4.800911621E-01
 4.237768203E-01 6.175632961E-02 -4.796719742E-01
 4.111982286E-01 6.165700033E-02 -4.781903855E-01
 3.988939375E-01 6.148873828E-02 -4.744827272E-01
 3.867301047E-01 6.125647947E-02 -4.691066513E-01
 3.751807958E-01 6.098223105E-02 -4.700113416E-01
 3.630747795E-01 6.062547676E-02 -4.601955082E-01
 3.504617065E-01 6.019440480E-02 -4.591431270E-01
 3.381818682E-01 5.970987678E-02 -4.514378781E-01
 3.266132176E-01 5.919427611E-02 -4.471587865E-01
 3.150852919E-01 5.862798914E-02 -4.434311517E-01
 3.023532331E-01 5.793746375E-02 -4.372603088E-01
 2.888906896E-01 5.712995678E-02 -4.296150441E-01
 2.756107599E-01 5.626048893E-02 -4.226307488E-01
 2.632808685E-01 5.538661778E-02 -4.180876084E-01
 2.509438545E-01 5.444380082E-02 -4.108831668E-01
 2.382067591E-01 5.339647830E-02 -4.016889584E-01
 2.256692722E-01 5.229838192E-02 -3.959445810E-01
 2.136193588E-01 5.117630213E-02 -3.909463534E-01
 2.020355612E-01 5.002175272E-02 -3.805654752E-01
 1.901919916E-01 4.877210036E-02 -3.718324270E-01
 1.780553907E-01 4.742787592E-02 -3.685279066E-01
 1.662897989E-01 4.603678733E-02 -3.561705737E-01
 1.544768289E-01 4.455780797E-02 -3.483223179E-01
 1.430325434E-01 4.305087030E-02 -3.395629243E-01
 1.318956017E-01 4.149910994E-02 -3.331070391E-01
 1.203166656E-01 3.979162499E-02 -3.218129159E-01
 1.091364399E-01 3.804161027E-02 -3.144216629E-01
 8.830271289E-02 3.447578289E-02 -2.957576985E-01
 7.669236138E-02 3.227660526E-02 -2.798164294E-01
 6.568658724E-02 3.003255278E-02 -2.696516711E-01
 5.573594384E-02 2.782467194E-02 -2.572384577E-01
 7.281076163E-02 -3.331789561E-02 -1.969926828E-01
 8.303432167E-02 -3.535511717E-02 -2.118096047E-01
 9.322266281E-02 -3.723386116E-02 -2.218442296E-01
 1.038657837E-01 -3.906684369E-02 -2.343979826E-01
 1.149875112E-01 -4.085476510E-02 -2.468651406E-01
 1.264308244E-01 -4.257320985E-02 -2.566376750E-01
 1.375328898E-01 -4.414428957E-02 -2.689912694E-01
 1.483695135E-01 -4.558420926E-02 -2.787835477E-01
 1.599363908E-01 -4.703089409E-02 -2.878173110E-01
 1.718133390E-01 -4.842891172E-02 -3.013817905E-01
 1.835295036E-01 -4.971953109E-02 -3.103314694E-01
 1.946726814E-01 -5.087289959E-02 -3.231830555E-01
 2.055136189E-01 -5.192040093E-02 -3.303139273E-01
 2.172055542E-01 -5.297219008E-02 -3.407673418E-01
 2.295400426E-01 -5.400170200E-02 -3.514425466E-01
 2.419614047E-01 -5.495236441E-02 -3.656187475E-01
 2.545021623E-01 -5.581202544E-02 -3.742451212E-01
 2.663868964E-01 -5.654417723E-02 -3.850640147E-01
 2.783055007E-01 -5.719024502E-02 -3.930437113E-01
 2.909831703E-01 -5.778016523E-02 -4.054487870E-01
 3.036706746E-01 -5.825857259E-02 -4.115309170E-01
 3.159795702E-01 -5.863175727E-02 -4.207851717E-01
 3.281137943E-01 -5.888448283E-02 -4.294294533E-01
 3.396950960E-01 -5.902829207E-02 -4.308096389E-01
 3.506590128E-01 -5.906784162E-02 -4.380634296E-01
 3.617370725E-01 -5.900128931E-02 -4.324011570E-01
 3.725499213E-01 -5.885740183E-02 -4.319345088E-01
 3.835325241E-01 -5.861747637E-02 -4.351438345E-01
 3.955848068E-01 -5.822696351E-02 -4.273186570E-01
 4.080194086E-01 -5.769375712E-02 -4.202654290E-01
 4.205644131E-01 -5.702048354E-02 -4.047003374E-01
 4.334356189E-01 -5.619667284E-02 -3.915558537E-01
 4.459934235E-01 -5.525968410E-02 -3.706688172E-01
 4.582868665E-01 -5.422904901E-02 -3.499694836E-01
 4.706546515E-01 -5.309015699E-02 -3.275600308E-01
 4.826444834E-01 -5.189073086E-02 -3.094649734E-01
 4.945844561E-01 -5.059423298E-02 -2.808830140E-01
 5.076546371E-01 -4.908579029E-02 -2.520208717E-01
 5.214128494E-01 -4.742193408E-02 -2.237020985E-01
 5.349897444E-01 -4.570261575E-02 -1.978939586E-01
 5.483415127E-01 -4.394588061E-02 -1.681806063E-01
 5.614951551E-01 -4.216334224E-02 -1.429718327E-01
 5.746226907E-01 -4.035296850E-02 -1.147760328E-01
 5.873596966E-01 -3.857416287E-02 -9.643213603E-02
 5.996101201E-01 -3.682907671E-02 -7.149183531E-02
 6.125746965E-01 -3.496588394E-02 -4.742125472E-02
 6.265209913E-01 -3.296148777E-02 -2.367218176E-02
 6.408001184E-01 -3.091898281E-02 -3.956348553E-03
 6.544619501E-01 -2.895675413E-02 1.611877828E-02
 6.678212285E-01 -2.704759967E-02 3.712115414E-02
 6.809421480E-01 -2.518244274E-02 5.302971569E-02
 6.933801770E-01 -2.341340296E-02 7.358285341E-02
 7.068706751E-01 -2.152740676E-02 9.219712353E-02
 7.208161354E-01 -1.962135918E-02 1.083060277E-01
 7.331914306E-01 -1.794453431E-02 1.206830104E-01
 7.452724576E-01 -1.631879108E-02 1.397607362E-01
 7.577690780E-01 -1.466622762E-02 1.567779387E-01
 7.706176937E-01 -1.302697603E-02 1.736320173E-01
 7.832291722E-01 -1.146965194E-02 1.836844407E-01
 7.955041826E-01 -9.982790798E-03 1.991393470E-01
 8.072975278E-01 -8.585144300E-03 2.148806679E-01
 8.184492886E-01 -7.306874963E-03 2.329213079E-01
 8.304453492E-01 -6.020292873E-03 2.460256731E-01
 8.430032432E-01 -4.763339180E-03 2.567159606E-01
 8.551810086E-01 -3.607713734E-03 2.702088482E-01
 8.670552969E-01 -2.573147533E-03 2.862379014E-01
 8.790027797E-01 -1.650761697E-03 2.941285718E-01
 8.915487230E-01 -8.015246131E-04 3.033494249E-01
 9.031602740E-01 -1.279348944E-04 3.142596501E-01
 9.133799672E-01 3.499032027E-04 3.169389858E-01
 9.428776801E-01 1.166699512E-03 3.209131377E-01
 9.556815326E-01 1.267166983E-03 3.212041729E-01
 9.696688652E-01 1.214624324E-03 3.232345887E-01
 9.832334518E-01 1.007497718E-03 3.324391238E-01
 9.949338436E-01 6.954547425E-04 4.043279534E-01
 -5.000000000E-01 9.500000000E-01 -4.977748264E-04
 -5.000000000E-01 9.000000000E-01 -1.872082717E-04
 -5.000000000E-01 8.500000000E-01 7.079875151E-04
 -5.000000000E-01 8.000000000E-01 2.242363991E-03
 -5.000000000E-01 7.500000000E-01 4.384675220E-03
 -5.000000000E-01 7.000000000E-01 7.348344195E-03
 -5.000000000E-01 6.500000000E-01 1.096950451E-02
 -5.000000000E-01 6.000000000E-01 1.542900961E-02
 -5.000000000E-01 5.500000000E-01 2.060107468E-02
 -5.000000000E-01 5.000000000E-01 2.667201622E-02
 -5.000000000E-01 4.500000000E-01 3.345171263E-02
 -5.000000000E-01 4.000000000E-01 4.084691091E-02
 -5.000000000E-01 3.500000000E-01 4.882436129E-02
 -5.000000000E-01 3.000000000E-01 5.705739093E-02
 -5.000000000E-01 2.500000000E-01 6.525228703E-02
 -5.000000000E-01 2.000000000E-01 7.330303988E-02
 -5.000000000E-01 1.500000000E-01 8.049467162E-02
 -5.000000000E-01 1.000000000E-01 8.674960952E-02
 -5.000000000E-01 5.000000000E-02 9.138834881E-02
 -5.000000000E-01 2.752242878E-12 9.451194346E-02
 -5.000000000E-01 -5.000000000E-02 9.568141830E-02
 -5.000000000E-01 -1.000000000E-01 9.516475406E-02
 -5.000000000E-01 -1.500000000E-01 9.286152230E-02
 -5.000000000E-01 -2.000000000E-01 8.927140551E-02
 -5.000000000E-01 -2.500000000E-01 8.470418923E-02
 -5.000000000E-01 -3.000000000E-01 7.920921393E-02
 -5.000000000E-01 -3.500000000E-01 7.361561856E-02
 -5.000000000E-01 -4.000000000E-01 6.763714522E-02
 -5.000000000E-01 -4.500000000E-01 6.189792552E-02
 -5.000000000E-01 -5.000000000E-01 5.628303010E-02
 -5.000000000E-01 -5.500000000E-01 5.109196147E-02
 -5.000000000E-01 -6.000000000E-01 4.619968704E-02
 -5.000000000E-01 -6.500000000E-01 4.166128234E-02
 -5.000000000E-01 -7.000000000E-01 3.755438521E-02
 -5.000000000E-01 -7.500000000E-01 3.365038517E-02
 -5.000000000E-01 -8.000000000E-01 3.001590218E-02
 -5.000000000E-01 -8.500000000E-01 2.638901478E-02
 -5.000000000E-01 -9.000000000E-01 2.240508718E-02
 -5.000000000E-01 -9.500000000E-01 1.663408004E-02
 -4.500000000E-01 -1.000000000E+00 1.522255940E-02
 -4.000000000E-01 -1.000000000E+00 1.963801712E-02
 -3.500000000E-01 -1.000000000E+00 2.169870924E-02
 -3.000000000E-01 -1.000000000E+00 2.264300522E-02
 -2.500000000E-01 -1.000000000E+00 2.281883565E-02
 -2.000000000E-01 -1.000000000E+00 2.226843329E-02
 -1.500000000E-01 -1.000000000E+00 2.098479367E-02
 -1.000000000E-01 -1.000000000E+00 1.914624237E-02
 -5.000000000E-02 -1.000000000E+00 1.668725337E-02
 -9.424683256E-13 -1.000000000E+00 1.388057748E-02
 5.000000000E-02 -1.000000000E+00 1.075463223E-02
 1.000000000E-01 -1.000000000E+00 7.450900747E-03
 1.500000000E-01 -1.000000000E+00 4.051961450E-03
 2.000000000E-01 -1.000000000E+00 7.790169055E-04
 2.500000000E-01 -1.000000000E+00 -2.205444421E-03
 3.000000000E-01 -1.000000000E+00 -4.773249931E-03
 3.500000000E-01 -1.000000000E+00 -6.833105163E-03
 4.000000000E-01 -1.000000000E+00 -8.318651782E-03
 4.500000000E-01 -1.000000000E+00 -9.067158079E-03
 5.000000000E-01 -1.000000000E+00 -9.042041423E-03
 5.500000000E-01 -1.000000000E+00 -8.311077263E-03
 6.000000000E-01 -1.000000000E+00 -6.876289784E-03
 6.500000000E-01 -1.000000000E+00 -4.832895983E-03
 7.000000000E-01 -1.000000000E+00 -2.323725937E-03
 7.500000000E-01 -1.000000000E+00 7.003657268E-04
 8.000000000E-01 -1.000000000E+00 3.752258044E-03
 8.500000000E-01 -1.000000000E+00 7.180041137E-03
 9.000000000E-01 -1.000000000E+00 1.063806352E-02
 9.500000000E-01 -1.000000000E+00 1.386532456E-02
 1.000000000E+00 -1.000000000E+00 1.696761032E-02
 1.050000000E+00 -1.000000000E+00 1.989706452E-02
 1.100000000E+00 -1.000000000E+00 2.240324622E-02
 1.150000000E+00 -1.000000000E+00 2.464609067E-02
 1.200000000E+00 -1.000000000E+00 2.652015933E-02
 1.250000000E+00 -1.000000000E+00 2.801837195E-02
 1.300000000E+00 -1.000000000E+00 2.922776087E-02
 1.350000000E+00 -1.000000000E+00 3.011080933E-02
 1.400000000E+00 -1.000000000E+00 3.070312605E-02
 1.450000000E+00 -1.000000000E+00 3.104123462E-02
 1.500000000E+00 -1.000000000E+00 3.116094602E-02
 1.550000000E+00 -1.000000000E+00 3.108785305E-02
 1.600000000E+00 -1.000000000E+00 3.086335366E-02
 1.650000000E+00 -1.000000000E+00 3.049527412E-02
 1.700000000E+00 -1.000000000E+00 3.003304797E-02
 1.750000000E+00 -1.000000000E+00 2.947344597E-02
 1.800000000E+00 -1.000000000E+00 2.888700425E-02
 1.850000000E+00 -1.000000000E+00 2.823014680E-02
 1.900000000E+00 -1.000000000E+00 2.756859697E-02
 1.950000000E+00 -1.000000000E+00 2.690694236E-02
 2.000000000E+00 -1.000000000E+00 2.619026615E-02
 2.050000000E+00 -1.000000000E+00 2.553872494E-02
 2.100000000E+00 -1.000000000E+00 2.483148246E-02
 2.150000000E+00 -1.000000000E+00 2.421462817E-02
 2.200000000E+00 -1.000000000E+00 2.353497951E-02
 2.250000000E+00 -1.000000000E+00 2.298936219E-02
 2.300000000E+00 -1.000000000E+00 2.235426141E-02
 2.350000000E+00 -1.000000000E+00 2.182895808E-02
 2.400000000E+00 -1.000000000E+00 2.132554910E-02
 2.450000000E+00 -1.000000000E+00 2.085648748E-02
 2.500000000E+00 -1.000000000E+00 2.041843360E-02
 2.550000000E+00 -1.000000000E+00 1.999594974E-02
 2.600000000E+00 -1.000000000E+00 1.965033052E-02
 2.650000000E+00 -1.000000000E+00 1.928276330E-02
 2.700000000E+00 -1.000000000E+00 1.898077846E-02
 2.750000000E+00 -1.000000000E+00 1.867836947E-02
 2.800000000E+00 -1.000000000E+00 1.841558341E-02
 2.850000000E+00 -1.000000000E+00 1.816942909E-02
 2.900000000E+00 -1.000000000E+00 1.796313417E-02
 2.950000000E+00 -1.000000000E+00 1.768862422E-02
 3.000000000E+00 -1.000000000E+00 1.750705431E-02
 3.050000000E+00 -1.000000000E+00 1.719296572E-02
 3.100000000E+00 -1.000000000E+00 1.693171622E-02
 3.150000000E+00 -1.000000000E+00 1.658038247E-02
 3.200000000E+00 -1.000000000E+00 1.615729131E-02
 3.250000000E+00 -1.000000000E+00 1.563847842E-02
 3.300000000E+00 -1.000000000E+00 1.489551679E-02
 3.350000000E+00 -1.000000000E+00 1.390557531E-02
 3.400000000E+00 -1.000000000E+00 1.238118319E-02
 3.450000000E+00 -1.000000000E+00 9.918700569E-03
 3.500000000E+00 -9.500000000E-01 6.516804296E-03
 3.500000000E+00 -9.000000000E-01 7.901336945E-03
 3.500000000E+00 -8.500000000E-01 9.166704872E-03
 3.500000000E+00 -8.000000000E-01 1.044352188E-02
 3.500000000E+00 -7.500000000E-01 1.171879752E-02
 3.500000000E+00 -7.000000000E-01 1.315814207E-02
 3.500000000E+00 -6.500000000E-01 1.457481762E-02
 3.500000000E+00 -6.000000000E-01 1.614123880E-02
 3.500000000E+00 -5.500000000E-01 1.786857500E-02
 3.500000000E+00 -5.000000000E-01 1.961576620E-02
 3.500000000E+00 -4.500000000E-01 2.155958069E-02
 3.500000000E+00 -4.000000000E-01 2.355398433E-02
 3.500000000E+00 -3.500000000E-01 2.565674100E-02
 3.500000000E+00 -3.000000000E-01 2.770029519E-02
 3.500000000E+00 -2.500000000E-01 2.925631482E-02
 3.500000000E+00 -2.000000000E-01 2.997171498E-02
 3.500000000E+00 -1.500000000E-01 2.980247023E-02
 3.500000000E+00 -1.000000000E-01 2.892823276E-02
 3.500000000E+00 -5.000000000E-02 2.794298805E-02
 3.500000000E+00 -2.752242878E-12 2.739498854E-02
 3.500000000E+00 5.000000000E-02 2.704841047E-02
 3.500000000E+00 1.000000000E-01 2.642819694E-02
 3.500000000E+00 1.500000000E-01 2.509519562E-02
 3.500000000E+00 2.000000000E-01 2.286533325E-02
 3.500000000E+00 2.500000000E-01 2.010879614E-02
 3.500000000E+00 3.000000000E-01 1.716732130E-02
 3.500000000E+00 3.500000000E-01 1.437870329E-02
 3.500000000E+00 4.000000000E-01 1.181029931E-02
 3.500000000E+00 4.500000000E-01 9.442462958E-03
 3.500000000E+00 5.000000000E-01 7.247413625E-03
 3.500000000E+00 5.500000000E-01 5.456782816E-03
 3.500000000E+00 6.000000000E-01 4.150533026E-03
 3.500000000E+00 6.500000000E-01 3.583849230E-03
 3.500000000E+00 7.000000000E-01 3.431672064E-03
 3.500000000E+00 7.500000000E-01 3.017244877E-03
 3.500000000E+00 8.000000000E-01 7.408363878E-04
 3.500000000E+00 8.500000000E-01 -3.807098224E-03
 3.500000000E+00 9.000000000E-01 -9.908211945E-03
 3.500000000E+00 9.500000000E-01 -1.855086107E-02
 3.450000000E+00 1.000000000E+00 -1.115652284E-02
 3.400000000E+00 1.000000000E+00 -4.574567058E-03
 3.350000000E+00 1.000000000E+00 -1.434500358E-03
 3.300000000E+00 1.000000000E+00 5.762956305E-05
 3.250000000E+00 1.000000000E+00 8.415094773E-04
 3.200000000E+00 1.000000000E+00 1.246225449E-03
 3.150000000E+00 1.000000000E+00 1.377341892E-03
 3.100000000E+00 1.000000000E+00 1.341655350E-03
 3.050000000E+00 1.000000000E+00 1.116000411E-03
 3.000000000E+00 1.000000000E+00 7.014761979E-04
 2.950000000E+00 1.000000000E+00 4.768123855E-04
 2.900000000E+00 1.000000000E+00 -1.292082716E-04
 2.850000000E+00 1.000000000E+00 -6.511781647E-04
 2.800000000E+00 1.000000000E+00 -1.337997326E-03
 2.750000000E+00 1.000000000E+00 -2.119800474E-03
 2.700000000E+00 1.000000000E+00 -2.821694483E-03
 2.650000000E+00 1.000000000E+00 -3.600967356E-03
 2.600000000E+00 1.000000000E+00 -4.626988159E-03
 2.550000000E+00 1.000000000E+00 -5.539389469E-03
 2.500000000E+00 1.000000000E+00 -6.698932850E-03
 2.450000000E+00 1.000000000E+00 -7.699888528E-03
 2.400000000E+00 1.000000000E+00 -8.792096214E-03
 2.350000000E+00 1.000000000E+00 -1.011576859E-02
 2.300000000E+00 1.000000000E+00 -1.143799523E-02
 2.250000000E+00 1.000000000E+00 -1.299645487E-02
 2.200000000E+00 1.000000000E+00 -1.440426960E-02
 2.150000000E+00 1.000000000E+00 -1.610037617E-02
 2.100000000E+00 1.000000000E+00 -1.776747931E-02
 2.050000000E+00 1.000000000E+00 -1.971499830E-02
 2.000000000E+00 1.000000000E+00 -2.197054045E-02
 1.950000000E+00 1.000000000E+00 -2.362591542E-02
 1.900000000E+00 1.000000000E+00 -2.607845319E-02
 1.850000000E+00 1.000000000E+00 -2.822836740E-02
 1.800000000E+00 1.000000000E+00 -3.093302430E-02
 1.750000000E+00 1.000000000E+00 -3.381285845E-02
 1.700000000E+00 1.000000000E+00 -3.688704761E-02
 1.650000000E+00 1.000000000E+00 -4.003274098E-02
 1.600000000E+00 1.000000000E+00 -4.362085057E-02
 1.550000000E+00 1.000000000E+00 -4.728621310E-02
 1.500000000E+00 1.000000000E+00 -5.123653030E-02
 1.450000000E+00 1.000000000E+00 -5.568247629E-02
 1.400000000E+00 1.000000000E+00 -6.001782600E-02
 1.350000000E+00 1.000000000E+00 -6.479975209E-02
 1.300000000E+00 1.000000000E+00 -6.927153303E-02
 1.250000000E+00 1.000000000E+00 -7.421262117E-02
 1.200000000E+00 1.000000000E+00 -7.920562305E-02
 1.150000000E+00 1.000000000E+00 -8.375291771E-02
 1.100000000E+00 1.000000000E+00 -8.968031128E-02
 1.050000000E+00 1.000000000E+00 -9.368305324E-02
 1.000000000E+00 1.000000000E+00 -9.851008467E-02
 9.500000000E-01 1.000000000E+00 -1.023307042E-01
 9.000000000E-01 1.000000000E+00 -1.058104615E-01
 8.500000000E-01 1.000000000E+00 -1.087240759E-01
 8.000000000E-01 1.000000000E+00 -1.104704965E-01
 7.500000000E-01 1.000000000E+00 -1.116620336E-01
 7.000000000E-01 1.000000000E+00 -1.116122438E-01
 6.500000000E-01 1.000000000E+00 -1.107358605E-01
 6.000000000E-01 1.000000000E+00 -1.085332519E-01
 5.500000000E-01 1.000000000E+00 -1.054114109E-01
 5.000000000E-01 1.000000000E+00 -1.013150926E-01
 4.500000000E-01 1.000000000E+00 -9.646439163E-02
 4.000000000E-01 1.000000000E+00 -9.028221210E-02
 3.500000000E-01 1.000000000E+00 -8.376194530E-02
 3.000000000E-01 1.000000000E+00 -7.680233440E-02
 2.500000000E-01 1.000000000E+00 -6.929729579E-02
 2.000000000E-01 1.000000000E+00 -6.165157217E-02
 1.500000000E-01 1.000000000E+00 -5.383775004E-02
 1.000000000E-01 1.000000000E+00 -4.625935359E-02
 5.000000000E-02 1.000000000E+00 -3.905857317E-02
 1.733724275E-12 1.000000000E+00 -3.225468398E-02
 -5.000000000E-02 1.000000000E+00 -2.592240239E-02
 -1.000000000E-01 1.000000000E+00 -2.016290860E-02
 -1.500000000E-01 1.000000000E+00 -1.525663033E-02
 -2.000000000E-01 1.000000000E+00 -1.102245066E-02
 -2.500000000E-01 1.000000000E+00 -7.571729169E-03
 -3.000000000E-01 1.000000000E+00 -4.875875712E-03
 -3.500000000E-01 1.000000000E+00 -2.873186318E-03
 -4.000000000E-01 1.000000000E+00 -1.540092621E-03
 -4.500000000E-01 1.000000000E+00 -7.365597030E-04
 1.972540492E+00 -9.573815206E-01 2.626751187E-02
 1.975000000E+00 9.566987298E-01 -2.101988438E-02
 9.061576384E-01 -4.441988855E-03 3.076380903E-01
 9.873478089E-01 -3.688304500E-03 3.408886459E-01
 8.343683876E-01 -1.081438693E-02 2.442534697E-01
 7.555991667E-01 -2.051273020E-02 1.505211992E-01
 6.848652090E-01 -3.011724621E-02 5.799304402E-02
 6.168141869E-01 -4.035083197E-02 -4.167782528E-02
 5.464459280E-01 -5.067719547E-02 -1.698013945E-01
 4.800755552E-01 -5.732567829E-02 -3.052106858E-01