TITLE     = "Visualization of the solution"
VARIABLES = "x"
"y"
"Pressure_Coefficient"
ZONE T="Zone"
 STRANDID=0, SOLUTIONTIME=0
 Nodes=12069, Elements=23559, ZONETYPE=FEQuadrilateral
 DATAPACKING=POINT
 DT=(DOUBLE DOUBLE DOUBLE )
 1.000208855E+00 5.386546836E-04 2.129517260E-01
 9.895682931E-01 2.496930771E-03 1.920620900E-01
 9.785215855E-01 4.484404810E-03 1.193276685E-01
 9.649990797E-01 6.900290027E-03 7.074133601E-02
 9.524022937E-01 9.213869460E-03 1.163614450E-02
 9.391340017E-01 1.154653728E-02 -2.765334151E-02
 9.283447266E-01 1.339688059E-02 -5.540729070E-02
 9.158706069E-01 1.549573056E-02 -9.112817172E-02
 9.045425653E-01 1.732437313E-02 -1.116181341E-01
 8.927477598E-01 1.920702681E-02 -1.538174418E-01
 8.799954057E-01 2.104188502E-02 -1.587476627E-01
 8.681577444E-01 2.270930447E-02 -1.785472908E-01
 8.551890850E-01 2.441639453E-02 -1.882657904E-01
 8.434019089E-01 2.588458546E-02 -1.876387212E-01
 8.314379454E-01 2.735235728E-02 -1.941239530E-01
 8.181601167E-01 2.895296738E-02 -2.049778692E-01
 8.048359156E-01 3.052428924E-02 -2.216707434E-01
 7.921935916E-01 3.193288296E-02 -2.228505763E-01
 7.795167565E-01 3.333223611E-02 -2.338912355E-01
 7.664790750E-01 3.472023457E-02 -2.377704049E-01
 7.528528571E-01 3.616653010E-02 -2.535314611E-01
 7.381321788E-01 3.766388819E-02 -2.618751265E-01
 7.270333767E-01 3.878032044E-02 -2.783718971E-01
 7.152908444E-01 3.988735750E-02 -2.756996971E-01
 7.034221888E-01 4.102315381E-02 -2.924632501E-01
 6.889275312E-01 4.233695194E-02 -3.024518191E-01
 6.750560999E-01 4.355158657E-02 -3.162997349E-01
 6.651604176E-01 4.438211769E-02 -3.220411587E-01
 6.532813311E-01 4.534180835E-02 -3.310029841E-01
 6.417680979E-01 4.624201357E-02 -3.451747413E-01
 6.296465397E-01 4.711665213E-02 -3.466040896E-01
 6.184939742E-01 4.790559411E-02 -3.609022345E-01
 6.071681976E-01 4.864010960E-02 -3.603650620E-01
 5.942054987E-01 4.946951196E-02 -3.810198380E-01
 5.820366740E-01 5.014706030E-02 -3.805466031E-01
 5.684176683E-01 5.086458102E-02 -3.915147226E-01
 5.557776093E-01 5.145529285E-02 -3.978950834E-01
 5.434882641E-01 5.195970461E-02 -4.017349285E-01
 5.326051712E-01 5.235121027E-02 -4.010519331E-01
 5.209588408E-01 5.273374915E-02 -4.065595051E-01
 5.080485940E-01 5.309059471E-02 -4.139619096E-01
 4.967198968E-01 5.332379788E-02 -4.076114435E-01
 4.834959209E-01 5.355726555E-02 -4.138992881E-01
 4.701239169E-01 5.369361117E-02 -4.081851215E-01
 4.553971589E-01 5.378005281E-02 -4.079607743E-01
 4.418780506E-01 5.379351974E-02 -4.113883608E-01
 4.287141860E-01 5.371332914E-02 -4.035835878E-01
 4.158445299E-01 5.358803272E-02 -4.039373888E-01
 4.037333429E-01 5.340205878E-02 -3.982928787E-01
 3.916986585E-01 5.317023024E-02 -3.959710704E-01
 3.794358373E-01 5.287352204E-02 -3.900988430E-01
 3.690253496E-01 5.259292945E-02 -3.901025928E-01
 3.562068939E-01 5.217567086E-02 -3.840227264E-01
 3.444434702E-01 5.174118653E-02 -3.766369251E-01
 3.320927918E-01 5.124723539E-02 -3.770562107E-01
 3.214653134E-01 5.076468736E-02 -3.676578629E-01
 3.094061315E-01 5.018754676E-02 -3.669038740E-01
 2.961808145E-01 4.947471619E-02 -3.563889093E-01
 2.822840512E-01 4.868153483E-02 -3.548883858E-01
 2.695213258E-01 4.787569866E-02 -3.465096096E-01
 2.576840222E-01 4.708264396E-02 -3.391247080E-01
 2.453410476E-01 4.621560127E-02 -3.377807912E-01
 2.325361669E-01 4.523749277E-02 -3.290491157E-01
 2.203903347E-01 4.425672814E-02 -3.215861035E-01
 2.090728879E-01 4.330211133E-02 -3.184383119E-01
 1.981071234E-01 4.232400283E-02 -3.131720608E-01
 1.857263893E-01 4.115182906E-02 -3.047045300E-01
 1.738155782E-01 3.996851668E-02 -2.997005653E-01
 1.624439657E-01 3.877373785E-02 -2.912105741E-01
 1.502283961E-01 3.743228316E-02 -2.886631963E-01
 1.395796686E-01 3.618850932E-02 -2.798925296E-01
 1.278969496E-01 3.475446627E-02 -2.727312849E-01
 1.161020771E-01 3.322639689E-02 -2.684777313E-01
 1.053108498E-01 3.173857555E-02 -2.609002804E-01
 9.551147372E-02 3.031351045E-02 -2.540596760E-01
 8.403202891E-02 2.853481472E-02 -2.473651796E-01
 7.163573056E-02 2.645149082E-02 -2.365997907E-01
 6.177716330E-02 2.466133237E-02 -2.292315818E-01
 5.181706697E-02 2.269474044E-02 -2.212695681E-01
 4.306339473E-02 2.078837343E-02 -2.112895391E-01
 3.559346870E-02 1.901171915E-02 -1.992574504E-01
 2.908792719E-02 1.729743555E-02 -1.839759943E-01
 2.353970334E-02 1.567084901E-02 -1.743394845E-01
 1.958457753E-02 1.439835038E-02 -1.528638447E-01
 1.594618894E-02 1.310296822E-02 -1.372508307E-01
 1.335675921E-02 1.209941879E-02 -1.137600700E-01
 1.101321820E-02 1.110301912E-02 -9.031297882E-02
 9.298800491E-03 1.030700561E-02 -6.015879446E-02
 7.758471649E-03 9.537662379E-03 -4.759619046E-02
 6.326705683E-03 8.758436888E-03 1.590157259E-02
 4.386405461E-03 7.564728614E-03 9.146479557E-02
 2.645487431E-03 6.307289470E-03 1.761526277E-01
 1.102213981E-03 4.926198628E-03 3.956801563E-01
 -3.679479414E-04 3.106950317E-03 6.556636148E-01
 -1.085932599E-03 1.677604625E-03 8.673742684E-01
 -1.385475625E-03 5.459912354E-04 1.008966218E+00
 -1.449147239E-03 -7.687007892E-04 1.127683852E+00
 -1.147268806E-03 -2.244294854E-03 1.032358750E+00
 -3.768244642E-04 -3.879672149E-03 8.452688802E-01
 9.476316627E-04 -5.618168041E-03 6.555027620E-01
 2.901185071E-03 -7.436193991E-03 4.363654615E-01
 4.668122157E-03 -8.747760206E-03 3.059321748E-01
 6.693763193E-03 -1.002743933E-02 2.338374917E-01
 8.223006502E-03 -1.088830549E-02 1.607591187E-01
 1.017354708E-02 -1.188847702E-02 1.260878264E-01
 1.251098234E-02 -1.297308598E-02 7.707378427E-02
 1.567904837E-02 -1.429624669E-02 3.369810337E-02
 1.863912679E-02 -1.541388314E-02 -8.544498141E-03
 2.238921076E-02 -1.670768857E-02 -3.142249732E-02
 2.775201574E-02 -1.837234199E-02 -5.976094119E-02
 3.350353613E-02 -1.997875609E-02 -8.842296850E-02
 4.099670053E-02 -2.185391448E-02 -1.052413870E-01
 4.850070179E-02 -2.355563268E-02 -1.238627646E-01
 5.739491433E-02 -2.539724857E-02 -1.365485511E-01
 6.610904634E-02 -2.705289796E-02 -1.510126971E-01
 7.614018768E-02 -2.882022597E-02 -1.591496515E-01
 8.605872840E-02 -3.043849394E-02 -1.682737197E-01
 9.642543644E-02 -3.202889115E-02 -1.789401913E-01
 1.070459709E-01 -3.356280178E-02 -1.897853205E-01
 1.186267138E-01 -3.513048962E-02 -1.982517479E-01
 1.299754679E-01 -3.657720238E-02 -2.070293481E-01
 1.407635808E-01 -3.788302094E-02 -2.167860674E-01
 1.516196579E-01 -3.913448378E-02 -2.272943459E-01
 1.635388285E-01 -4.042944312E-02 -2.354218856E-01
 1.751630306E-01 -4.162247106E-02 -2.441933645E-01
 1.873420328E-01 -4.281413555E-02 -2.570548684E-01
 1.979700476E-01 -4.378686473E-02 -2.652100768E-01
 2.091482282E-01 -4.475449771E-02 -2.740603759E-01
 2.215683460E-01 -4.577124491E-02 -2.869572337E-01
 2.343704551E-01 -4.673427343E-02 -2.969221715E-01
 2.469994575E-01 -4.760243744E-02 -3.052769644E-01
 2.601537108E-01 -4.844269902E-02 -3.203910949E-01
 2.716592848E-01 -4.909869656E-02 -3.306753384E-01
 2.848888934E-01 -4.976343736E-02 -3.399706647E-01
 2.979132235E-01 -5.032553151E-02 -3.499881602E-01
 3.109062910E-01 -5.079483241E-02 -3.609444229E-01
 3.228407800E-01 -5.113519356E-02 -3.705497858E-01
 3.350932002E-01 -5.138617009E-02 -3.771831899E-01
 3.460479975E-01 -5.152038857E-02 -3.808710252E-01
 3.574592173E-01 -5.159148201E-02 -3.913656542E-01
 3.683446348E-01 -5.154688284E-02 -3.891372681E-01
 3.789962530E-01 -5.143909156E-02 -3.975871879E-01
 3.902579248E-01 -5.119970068E-02 -3.903525467E-01
 4.027677476E-01 -5.083336309E-02 -3.905043730E-01
 4.151034057E-01 -5.033043772E-02 -3.811279743E-01
 4.283520579E-01 -4.965581745E-02 -3.708597652E-01
 4.408946931E-01 -4.887367412E-02 -3.541131338E-01
 4.533063173E-01 -4.799167067E-02 -3.416815888E-01
 4.655706882E-01 -4.698925838E-02 -3.195188114E-01
 4.780116379E-01 -4.586594179E-02 -2.979923795E-01
 4.893591404E-01 -4.475663975E-02 -2.793469147E-01
 5.015419722E-01 -4.346850514E-02 -2.532888873E-01
 5.150307417E-01 -4.194006324E-02 -2.226572940E-01
 5.288364887E-01 -4.029954970E-02 -1.952536118E-01
 5.424947143E-01 -3.859723359E-02 -1.653302472E-01
 5.556737185E-01 -3.690870106E-02 -1.401263062E-01
 5.681485534E-01 -3.526400775E-02 -1.141523592E-01
 5.811572075E-01 -3.352874517E-02 -9.202886896E-02
 5.925657749E-01 -3.197420016E-02 -6.851008664E-02
 6.042128205E-01 -3.037569672E-02 -4.568375646E-02
 6.175206900E-01 -2.855753154E-02 -2.453127625E-02
 6.318999529E-01 -2.660672553E-02 -5.460648324E-03
 6.456453204E-01 -2.472671308E-02 1.730069754E-02
 6.589316726E-01 -2.293526754E-02 3.270890811E-02
 6.719886065E-01 -2.115309052E-02 5.712184116E-02
 6.844376326E-01 -1.949814521E-02 7.218733464E-02
 6.969718933E-01 -1.785414107E-02 8.828141002E-02
 7.110160589E-01 -1.602610014E-02 1.093700918E-01
 7.239558101E-01 -1.441698987E-02 1.185021914E-01
 7.357402444E-01 -1.296664495E-02 1.315151147E-01
 7.474758625E-01 -1.151405182E-02 1.525190138E-01
 7.597993612E-01 -1.005296782E-02 1.668021344E-01
 7.725461721E-01 -8.625309914E-03 1.743312139E-01
 7.840011716E-01 -7.351420354E-03 1.910684695E-01
 7.965991497E-01 -6.010314915E-03 2.043486533E-01
 8.075569868E-01 -4.884183872E-03 2.202792861E-01
 8.194124103E-01 -3.759791143E-03 2.282670384E-01
 8.319452405E-01 -2.633089432E-03 2.416178574E-01
 8.441443443E-01 -1.611732878E-03 2.556875726E-01
 8.563308120E-01 -7.081881049E-04 2.639058420E-01
 8.689355254E-01 1.238524274E-04 2.734187011E-01
 8.815957308E-01 8.377836784E-04 2.819405925E-01
 8.951348066E-01 1.448094146E-03 2.884459186E-01
 9.058480859E-01 1.794510870E-03 2.874923162E-01
 9.158796668E-01 2.038792474E-03 2.891646528E-01
 9.251256585E-01 2.180770738E-03 2.901600466E-01
 9.339596033E-01 2.242317656E-03 2.894587906E-01
 9.462033510E-01 2.214836190E-03 2.845509582E-01
 9.593954086E-01 2.040239982E-03 2.784646160E-01
 9.753842354E-01 1.644860604E-03 2.724488323E-01
 9.886007905E-01 1.138134976E-03 2.654313610E-01
 -5.000000000E-01 -1.000000000E+00 1.028446025E-02
 3.500000000E+00 -1.000000000E+00 6.097816400E-03
 3.500000000E+00 1.000000000E+00 -1.423101944E-02
 -5.000000000E-01 1.000000000E+00 -4.252338936E-04
 9.948885739E-01 1.517792727E-03 2.838377046E-01
 9.840449393E-01 3.490667790E-03 1.503222587E-01
 9.717603326E-01 5.692347419E-03 9.536524386E-02
 9.587006867E-01 8.057079744E-03 3.653998618E-02
 9.457681477E-01 1.038020337E-02 -8.583082659E-03
 9.337393641E-01 1.247170893E-02 -4.134903338E-02
 9.221076667E-01 1.444630558E-02 -7.407716666E-02
 9.102065861E-01 1.641005185E-02 -1.000556100E-01
 8.986451626E-01 1.826569997E-02 -1.392483543E-01
 8.863715827E-01 2.012445591E-02 -1.529806590E-01
 8.740765750E-01 2.187559474E-02 -1.712911181E-01
 8.616734147E-01 2.356284950E-02 -1.834168738E-01
 8.492954969E-01 2.515048999E-02 -1.858329499E-01
 8.374199271E-01 2.661847137E-02 -1.902750729E-01
 8.247990310E-01 2.815266233E-02 -1.994763921E-01
 8.114980161E-01 2.973862831E-02 -2.152901457E-01
 7.985147536E-01 3.122858610E-02 -2.206300523E-01
 7.858551741E-01 3.263255954E-02 -2.291233950E-01
 7.729979157E-01 3.402623534E-02 -2.342740315E-01
 7.596659660E-01 3.544338234E-02 -2.471261536E-01
 7.454925179E-01 3.691520914E-02 -2.562473120E-01
 7.325827777E-01 3.822210431E-02 -2.727711432E-01
 7.211621106E-01 3.933383897E-02 -2.736660521E-01
 7.093565166E-01 4.045525566E-02 -2.864747116E-01
 6.961748600E-01 4.168005288E-02 -2.971915610E-01
 6.819918156E-01 4.294426925E-02 -3.084851663E-01
 6.592208743E-01 4.486196302E-02 -3.264871052E-01
 6.475247145E-01 4.579191096E-02 -3.402972131E-01
 6.357073188E-01 4.667933285E-02 -3.438844306E-01
 6.240702569E-01 4.751112312E-02 -3.559624604E-01
 6.128310859E-01 4.827285185E-02 -3.585393311E-01
 6.006868482E-01 4.905481078E-02 -3.734789194E-01
 5.881210864E-01 4.980828613E-02 -3.796636544E-01
 5.752271712E-01 5.050582066E-02 -3.864209162E-01
 5.620976388E-01 5.115993693E-02 -3.951223167E-01
 5.496329367E-01 5.170749873E-02 -3.992048704E-01
 5.380467176E-01 5.215545744E-02 -4.005926537E-01
 5.267820060E-01 5.254247971E-02 -4.051264270E-01
 5.145037174E-01 5.291217193E-02 -4.109134592E-01
 5.023842454E-01 5.320719630E-02 -4.096490273E-01
 4.901079088E-01 5.344053172E-02 -4.126909355E-01
 4.768099189E-01 5.362543836E-02 -4.106788727E-01
 4.627605379E-01 5.373683199E-02 -4.073942708E-01
 4.486376047E-01 5.378678627E-02 -4.109153796E-01
 4.352961183E-01 5.375342444E-02 -4.059428016E-01
 4.222793579E-01 5.365068093E-02 -4.040635747E-01
 4.097889364E-01 5.349504575E-02 -4.004876095E-01
 3.977160007E-01 5.328614451E-02 -3.977755446E-01
 3.855672479E-01 5.302187614E-02 -3.912581307E-01
 3.742305934E-01 5.273322575E-02 -3.926265809E-01
 3.626161218E-01 5.238430016E-02 -3.864034733E-01
 3.503251821E-01 5.195842870E-02 -3.797658564E-01
 3.382681310E-01 5.149421096E-02 -3.768555925E-01
 3.267790526E-01 5.100596137E-02 -3.714284076E-01
 3.154357225E-01 5.047611706E-02 -3.692633296E-01
 3.027934730E-01 4.983113147E-02 -3.608621899E-01
 2.892324328E-01 4.907812551E-02 -3.562243868E-01
 2.759026885E-01 4.827861674E-02 -3.497510250E-01
 2.636026740E-01 4.747917131E-02 -3.422617313E-01
 2.515125349E-01 4.664912261E-02 -3.400356941E-01
 2.389386073E-01 4.572654702E-02 -3.328213814E-01
 2.264632508E-01 4.474711046E-02 -3.243172790E-01
 2.147316113E-01 4.377941974E-02 -3.201707044E-01
 2.035900056E-01 4.281305708E-02 -3.171383682E-01
 1.919167563E-01 4.173791595E-02 -3.083460434E-01
 1.797709838E-01 4.056017287E-02 -3.022905661E-01
 1.681297719E-01 3.937112726E-02 -2.956306423E-01
 1.563361809E-01 3.810301051E-02 -2.897945112E-01
 1.449040323E-01 3.681039624E-02 -2.849182753E-01
 1.337383091E-01 3.547148779E-02 -2.767601366E-01
 1.219995134E-01 3.399043158E-02 -2.708091968E-01
 1.107064635E-01 3.248248622E-02 -2.652423739E-01
 8.977175131E-02 2.942416258E-02 -2.535307025E-01
 7.783387974E-02 2.749315277E-02 -2.435606123E-01
 5.679711513E-02 2.367803641E-02 -2.327847915E-01
 7.112461701E-02 -2.793656196E-02 -1.568055477E-01
 9.124208242E-02 -3.123369254E-02 -1.757544037E-01
 1.017357036E-01 -3.279584646E-02 -1.842862557E-01
 1.128363423E-01 -3.434664570E-02 -1.940131368E-01
 1.243010908E-01 -3.585384600E-02 -2.034775776E-01
 1.353695244E-01 -3.723011166E-02 -2.123082706E-01
 1.461916193E-01 -3.850875236E-02 -2.215834805E-01
 1.575792432E-01 -3.978196345E-02 -2.310916796E-01
 1.693509296E-01 -4.102595709E-02 -2.404742216E-01
 1.812525317E-01 -4.221830331E-02 -2.498738840E-01
 1.926560402E-01 -4.330050014E-02 -2.628341374E-01
 2.035591379E-01 -4.427068122E-02 -2.691138120E-01
 2.153582871E-01 -4.526287131E-02 -2.790991760E-01
 2.279694006E-01 -4.625275917E-02 -2.922031259E-01
 2.406849563E-01 -4.716835544E-02 -3.017138622E-01
 2.535765842E-01 -4.802256823E-02 -3.114282764E-01
 2.659064978E-01 -4.877069779E-02 -3.266506121E-01
 2.782740891E-01 -4.943106696E-02 -3.342147174E-01
 2.914010584E-01 -5.004448444E-02 -3.450360704E-01
 3.044097573E-01 -5.056018196E-02 -3.547533258E-01
 3.168735355E-01 -5.096501298E-02 -3.665396823E-01
 3.289669901E-01 -5.126068182E-02 -3.739637130E-01
 3.405705988E-01 -5.145327933E-02 -3.806136909E-01
 3.517536074E-01 -5.155593529E-02 -3.841606651E-01
 3.629019260E-01 -5.156918243E-02 -3.927852742E-01
 3.736704439E-01 -5.149298720E-02 -3.917107708E-01
 3.846270889E-01 -5.131939612E-02 -3.954279157E-01
 3.965128362E-01 -5.101653188E-02 -3.882331754E-01
 4.089355767E-01 -5.058190040E-02 -3.871406180E-01
 4.217277318E-01 -4.999312758E-02 -3.750544404E-01
 4.346233755E-01 -4.926474579E-02 -3.646381868E-01
 4.471005052E-01 -4.843267240E-02 -3.475226559E-01
 4.594385028E-01 -4.749046452E-02 -3.321247696E-01
 4.717911631E-01 -4.642760009E-02 -3.090690314E-01
 4.836853892E-01 -4.531129077E-02 -2.892995045E-01
 4.954505563E-01 -4.411257245E-02 -2.673123214E-01
 5.082863569E-01 -4.270428419E-02 -2.384502317E-01
 5.219336152E-01 -4.111980647E-02 -2.088180515E-01
 5.356656015E-01 -3.944839165E-02 -1.810635272E-01
 5.490842164E-01 -3.775296733E-02 -1.527522422E-01
 5.619111359E-01 -3.608635440E-02 -1.277842752E-01
 5.746528804E-01 -3.439637646E-02 -1.025595550E-01
 5.868614912E-01 -3.275147267E-02 -8.110070239E-02
 5.983892977E-01 -3.117494844E-02 -5.763697014E-02
 6.108667552E-01 -2.946661413E-02 -3.514479647E-02
 6.247103214E-01 -2.758212853E-02 -1.460994655E-02
 6.387726367E-01 -2.566671930E-02 5.165938031E-03
 6.522884965E-01 -2.383099031E-02 2.617457211E-02
 6.654601395E-01 -2.204417903E-02 4.350060802E-02
 6.782131195E-01 -2.032561786E-02 6.592959315E-02
 6.907047629E-01 -1.867614314E-02 8.000599549E-02
 7.039939761E-01 -1.694012061E-02 9.752413692E-02
 7.174859345E-01 -1.522154501E-02 1.162721858E-01
 7.298480272E-01 -1.369181741E-02 1.251909385E-01
 7.416080534E-01 -1.224034838E-02 1.404442453E-01
 7.536376119E-01 -1.078350982E-02 1.597975045E-01
 7.661727667E-01 -9.339138865E-03 1.720228006E-01
 7.782736719E-01 -7.988365134E-03 1.816292135E-01
 7.903001606E-01 -6.680867635E-03 1.973081142E-01
 8.020780683E-01 -5.447249394E-03 2.119434735E-01
 8.134846985E-01 -4.321987508E-03 2.248048113E-01
 8.256788254E-01 -3.196440288E-03 2.341027078E-01
 8.380447924E-01 -2.122411155E-03 2.477779426E-01
 8.502375782E-01 -1.159960491E-03 2.602654776E-01
 8.626331687E-01 -2.921678388E-04 2.679225773E-01
 8.752656281E-01 4.808180529E-04 2.775803649E-01
 8.883652687E-01 1.142938912E-03 2.847107467E-01
 9.004914463E-01 1.621302508E-03 2.920288086E-01
 9.400814772E-01 2.228576923E-03 2.852625175E-01
 9.527993798E-01 2.127538086E-03 2.808018696E-01
 9.673898220E-01 1.842550293E-03 2.732492706E-01
 9.819925129E-01 1.391497790E-03 2.714554689E-01
 9.944048226E-01 8.383948298E-04 3.160549321E-01
 -5.000000000E-01 9.500000000E-01 -4.704935054E-04
 -5.000000000E-01 9.000000000E-01 -2.437920798E-04
 -5.000000000E-01 8.500000000E-01 4.964504528E-04
 -5.000000000E-01 8.000000000E-01 1.777170770E-03
 -5.000000000E-01 7.500000000E-01 3.674475613E-03
 -5.000000000E-01 7.000000000E-01 5.997928599E-03
 -5.000000000E-01 6.500000000E-01 9.144271645E-03
 -5.000000000E-01 6.000000000E-01 1.286249973E-02
 -5.000000000E-01 5.500000000E-01 1.731332289E-02
 -5.000000000E-01 5.000000000E-01 2.232342346E-02
 -5.000000000E-01 4.500000000E-01 2.810370191E-02
 -5.000000000E-01 4.000000000E-01 3.422197512E-02
 -5.000000000E-01 3.500000000E-01 4.106780996E-02
 -5.000000000E-01 3.000000000E-01 4.782682060E-02
 -5.000000000E-01 2.500000000E-01 5.487938454E-02
 -5.000000000E-01 2.000000000E-01 6.149179800E-02
 -5.000000000E-01 1.500000000E-01 6.759407108E-02
 -5.000000000E-01 1.000000000E-01 7.274041198E-02
 -5.000000000E-01 5.000000000E-02 7.671869654E-02
 -5.000000000E-01 2.752242878E-12 7.931741025E-02
 -5.000000000E-01 -5.000000000E-02 8.026229117E-02
 -5.000000000E-01 -1.000000000E-01 7.982813770E-02
 -5.000000000E-01 -1.500000000E-01 7.801527948E-02
 -5.000000000E-01 -2.000000000E-01 7.498843349E-02
 -5.000000000E-01 -2.500000000E-01 7.111987664E-02
 -5.000000000E-01 -3.000000000E-01 6.660675943E-02
 -5.000000000E-01 -3.500000000E-01 6.184989863E-02
 -5.000000000E-01 -4.000000000E-01 5.692054373E-02
 -5.000000000E-01 -4.500000000E-01 5.208214553E-02
 -5.000000000E-01 -5.000000000E-01 4.744329983E-02
 -5.000000000E-01 -5.500000000E-01 4.301180006E-02
 -5.000000000E-01 -6.000000000E-01 3.894197919E-02
 -5.000000000E-01 -6.500000000E-01 3.516384540E-02
 -5.000000000E-01 -7.000000000E-01 3.169118506E-02
 -5.000000000E-01 -7.500000000E-01 2.845017597E-02
 -5.000000000E-01 -8.000000000E-01 2.537028290E-02
 -5.000000000E-01 -8.500000000E-01 2.231497372E-02
 -5.000000000E-01 -9.000000000E-01 1.894625656E-02
 -5.000000000E-01 -9.500000000E-01 1.407830354E-02
 -4.500000000E-01 -1.000000000E+00 1.286650191E-02
 -4.000000000E-01 -1.000000000E+00 1.668571783E-02
 -3.500000000E-01 -1.000000000E+00 1.837073966E-02
 -3.000000000E-01 -1.000000000E+00 1.914011838E-02
 -2.500000000E-01 -1.000000000E+00 1.932799117E-02
 -2.000000000E-01 -1.000000000E+00 1.887381545E-02
 -1.500000000E-01 -1.000000000E+00 1.783025584E-02
 -1.000000000E-01 -1.000000000E+00 1.630593181E-02
 -5.000000000E-02 -1.000000000E+00 1.434222162E-02
 -9.424683256E-13 -1.000000000E+00 1.199168428E-02
 5.000000000E-02 -1.000000000E+00 9.402823671E-03
 1.000000000E-01 -1.000000000E+00 6.606397576E-03
 1.500000000E-01 -1.000000000E+00 3.835820511E-03
 2.000000000E-01 -1.000000000E+00 1.155254070E-03
 2.500000000E-01 -1.000000000E+00 -1.305165070E-03
 3.000000000E-01 -1.000000000E+00 -3.446739082E-03
 3.500000000E-01 -1.000000000E+00 -5.199833720E-03
 4.000000000E-01 -1.000000000E+00 -6.238737035E-03
 4.500000000E-01 -1.000000000E+00 -6.772020220E-03
 5.000000000E-01 -1.000000000E+00 -6.640990024E-03
 5.500000000E-01 -1.000000000E+00 -5.895324765E-03
 6.000000000E-01 -1.000000000E+00 -4.534691727E-03
 6.500000000E-01 -1.000000000E+00 -2.647469494E-03
 7.000000000E-01 -1.000000000E+00 -4.212594967E-04
 7.500000000E-01 -1.000000000E+00 2.156465981E-03
 8.000000000E-01 -1.000000000E+00 4.981227645E-03
 8.500000000E-01 -1.000000000E+00 7.883380156E-03
 9.000000000E-01 -1.000000000E+00 1.086104508E-02
 9.500000000E-01 -1.000000000E+00 1.372039575E-02
 1.000000000E+00 -1.000000000E+00 1.637070117E-02
 1.050000000E+00 -1.000000000E+00 1.884346255E-02
 1.100000000E+00 -1.000000000E+00 2.097968682E-02
 1.150000000E+00 -1.000000000E+00 2.284559982E-02
 1.200000000E+00 -1.000000000E+00 2.438555450E-02
 1.250000000E+00 -1.000000000E+00 2.561813490E-02
 1.300000000E+00 -1.000000000E+00 2.659057619E-02
 1.350000000E+00 -1.000000000E+00 2.727360737E-02
 1.400000000E+00 -1.000000000E+00 2.772517055E-02
 1.450000000E+00 -1.000000000E+00 2.792391674E-02
 1.500000000E+00 -1.000000000E+00 2.801298039E-02
 1.550000000E+00 -1.000000000E+00 2.779926168E-02
 1.600000000E+00 -1.000000000E+00 2.761817022E-02
 1.650000000E+00 -1.000000000E+00 2.719915450E-02
 1.700000000E+00 -1.000000000E+00 2.675222078E-02
 1.750000000E+00 -1.000000000E+00 2.620534359E-02
 1.800000000E+00 -1.000000000E+00 2.565084024E-02
 1.850000000E+00 -1.000000000E+00 2.500943631E-02
 1.900000000E+00 -1.000000000E+00 2.438614593E-02
 1.950000000E+00 -1.000000000E+00 2.375224724E-02
 2.000000000E+00 -1.000000000E+00 2.310110840E-02
 2.050000000E+00 -1.000000000E+00 2.247416791E-02
 2.100000000E+00 -1.000000000E+00 2.185836939E-02
 2.150000000E+00 -1.000000000E+00 2.125131424E-02
 2.200000000E+00 -1.000000000E+00 2.064847615E-02
 2.250000000E+00 -1.000000000E+00 2.010734990E-02
 2.300000000E+00 -1.000000000E+00 1.957738969E-02
 2.350000000E+00 -1.000000000E+00 1.908932826E-02
 2.400000000E+00 -1.000000000E+00 1.861758977E-02
 2.450000000E+00 -1.000000000E+00 1.816863880E-02
 2.500000000E+00 -1.000000000E+00 1.777233361E-02
 2.550000000E+00 -1.000000000E+00 1.739115328E-02
 2.600000000E+00 -1.000000000E+00 1.704164127E-02
 2.650000000E+00 -1.000000000E+00 1.672378321E-02
 2.700000000E+00 -1.000000000E+00 1.642110414E-02
 2.750000000E+00 -1.000000000E+00 1.614527381E-02
 2.800000000E+00 -1.000000000E+00 1.588029400E-02
 2.850000000E+00 -1.000000000E+00 1.566869265E-02
 2.900000000E+00 -1.000000000E+00 1.540859165E-02
 2.950000000E+00 -1.000000000E+00 1.521026952E-02
 3.000000000E+00 -1.000000000E+00 1.496673751E-02
 3.050000000E+00 -1.000000000E+00 1.473220613E-02
 3.100000000E+00 -1.000000000E+00 1.448045715E-02
 3.150000000E+00 -1.000000000E+00 1.416186568E-02
 3.200000000E+00 -1.000000000E+00 1.377257886E-02
 3.250000000E+00 -1.000000000E+00 1.330281751E-02
 3.300000000E+00 -1.000000000E+00 1.265016951E-02
 3.350000000E+00 -1.000000000E+00 1.183945543E-02
 3.400000000E+00 -1.000000000E+00 1.047544697E-02
 3.450000000E+00 -1.000000000E+00 8.413125934E-03
 3.500000000E+00 -9.500000000E-01 5.460985779E-03
 3.500000000E+00 -9.000000000E-01 6.572215906E-03
 3.500000000E+00 -8.500000000E-01 7.667576077E-03
 3.500000000E+00 -8.000000000E-01 8.774603016E-03
 3.500000000E+00 -7.500000000E-01 9.906896913E-03
 3.500000000E+00 -7.000000000E-01 1.108460634E-02
 3.500000000E+00 -6.500000000E-01 1.226357938E-02
 3.500000000E+00 -6.000000000E-01 1.354508563E-02
 3.500000000E+00 -5.500000000E-01 1.494691509E-02
 3.500000000E+00 -5.000000000E-01 1.643889023E-02
 3.500000000E+00 -4.500000000E-01 1.800656998E-02
 3.500000000E+00 -4.000000000E-01 1.969698792E-02
 3.500000000E+00 -3.500000000E-01 2.145263165E-02
 3.500000000E+00 -3.000000000E-01 2.325791758E-02
 3.500000000E+00 -2.500000000E-01 2.447024877E-02
 3.500000000E+00 -2.000000000E-01 2.511719302E-02
 3.500000000E+00 -1.500000000E-01 2.493416016E-02
 3.500000000E+00 -1.000000000E-01 2.405023757E-02
 3.500000000E+00 -5.000000000E-02 2.322552538E-02
 3.500000000E+00 -2.752242878E-12 2.271055245E-02
 3.500000000E+00 5.000000000E-02 2.250966030E-02
 3.500000000E+00 1.000000000E-01 2.211139515E-02
 3.500000000E+00 1.500000000E-01 2.109554159E-02
 3.500000000E+00 2.000000000E-01 1.937200930E-02
 3.500000000E+00 2.500000000E-01 1.707455504E-02
 3.500000000E+00 3.000000000E-01 1.467842423E-02
 3.500000000E+00 3.500000000E-01 1.232653920E-02
 3.500000000E+00 4.000000000E-01 1.016204927E-02
 3.500000000E+00 4.500000000E-01 8.077709501E-03
 3.500000000E+00 5.000000000E-01 6.261436252E-03
 3.500000000E+00 5.500000000E-01 4.708305189E-03
 3.500000000E+00 6.000000000E-01 3.552157240E-03
 3.500000000E+00 6.500000000E-01 2.988302009E-03
 3.500000000E+00 7.000000000E-01 2.776164217E-03
 3.500000000E+00 7.500000000E-01 2.501197439E-03
 3.500000000E+00 8.000000000E-01 7.999200108E-04
 3.500000000E+00 8.500000000E-01 -2.684528867E-03
 3.500000000E+00 9.000000000E-01 -7.415779326E-03
 3.500000000E+00 9.500000000E-01 -1.395696059E-02
 3.450000000E+00 1.000000000E+00 -8.260269790E-03
 3.400000000E+00 1.000000000E+00 -3.266172314E-03
 3.350000000E+00 1.000000000E+00 -8.514198394E-04
 3.300000000E+00 1.000000000E+00 2.109234697E-04
 3.250000000E+00 1.000000000E+00 7.293771268E-04
 3.200000000E+00 1.000000000E+00 1.036373484E-03
 3.150000000E+00 1.000000000E+00 1.184771696E-03
 3.100000000E+00 1.000000000E+00 1.048035068E-03
 3.050000000E+00 1.000000000E+00 9.348454964E-04
 3.000000000E+00 1.000000000E+00 5.295475670E-04
 2.950000000E+00 1.000000000E+00 2.111891524E-04
 2.900000000E+00 1.000000000E+00 -2.653034245E-04
 2.850000000E+00 1.000000000E+00 -8.529321043E-04
 2.800000000E+00 1.000000000E+00 -1.463145343E-03
 2.750000000E+00 1.000000000E+00 -2.090133466E-03
 2.700000000E+00 1.000000000E+00 -2.711179806E-03
 2.650000000E+00 1.000000000E+00 -3.504362507E-03
 2.600000000E+00 1.000000000E+00 -4.359698771E-03
 2.550000000E+00 1.000000000E+00 -5.217155481E-03
 2.500000000E+00 1.000000000E+00 -6.123648965E-03
 2.450000000E+00 1.000000000E+00 -6.988767931E-03
 2.400000000E+00 1.000000000E+00 -8.082210536E-03
 2.350000000E+00 1.000000000E+00 -9.198923624E-03
 2.300000000E+00 1.000000000E+00 -1.025063403E-02
 2.250000000E+00 1.000000000E+00 -1.192334908E-02
 2.200000000E+00 1.000000000E+00 -1.276936907E-02
 2.150000000E+00 1.000000000E+00 -1.468057002E-02
 2.100000000E+00 1.000000000E+00 -1.571020359E-02
 2.050000000E+00 1.000000000E+00 -1.752902867E-02
 2.000000000E+00 1.000000000E+00 -1.913088842E-02
 1.950000000E+00 1.000000000E+00 -2.111404419E-02
 1.900000000E+00 1.000000000E+00 -2.304799819E-02
 1.850000000E+00 1.000000000E+00 -2.518722155E-02
 1.800000000E+00 1.000000000E+00 -2.730704089E-02
 1.750000000E+00 1.000000000E+00 -3.013671117E-02
 1.700000000E+00 1.000000000E+00 -3.314589580E-02
 1.650000000E+00 1.000000000E+00 -3.524814422E-02
 1.600000000E+00 1.000000000E+00 -3.851378815E-02
 1.550000000E+00 1.000000000E+00 -4.142542453E-02
 1.500000000E+00 1.000000000E+00 -4.471586399E-02
 1.450000000E+00 1.000000000E+00 -4.869365773E-02
 1.400000000E+00 1.000000000E+00 -5.242318124E-02
 1.350000000E+00 1.000000000E+00 -5.655418127E-02
 1.300000000E+00 1.000000000E+00 -6.064049160E-02
 1.250000000E+00 1.000000000E+00 -6.485386998E-02
 1.200000000E+00 1.000000000E+00 -6.879610481E-02
 1.150000000E+00 1.000000000E+00 -7.303905863E-02
 1.100000000E+00 1.000000000E+00 -7.744825421E-02
 1.050000000E+00 1.000000000E+00 -8.138549218E-02
 1.000000000E+00 1.000000000E+00 -8.520109741E-02
 9.500000000E-01 1.000000000E+00 -8.871181447E-02
 9.000000000E-01 1.000000000E+00 -9.156204875E-02
 8.500000000E-01 1.000000000E+00 -9.348162028E-02
 8.000000000E-01 1.000000000E+00 -9.525567174E-02
 7.500000000E-01 1.000000000E+00 -9.553375083E-02
 7.000000000E-01 1.000000000E+00 -9.608872341E-02
 6.500000000E-01 1.000000000E+00 -9.454673172E-02
 6.000000000E-01 1.000000000E+00 -9.295208108E-02
 5.500000000E-01 1.000000000E+00 -9.009071018E-02
 5.000000000E-01 1.000000000E+00 -8.665249252E-02
 4.500000000E-01 1.000000000E+00 -8.194761186E-02
 4.000000000E-01 1.000000000E+00 -7.714147613E-02
 3.500000000E-01 1.000000000E+00 -7.152163293E-02
 3.000000000E-01 1.000000000E+00 -6.541577425E-02
 2.500000000E-01 1.000000000E+00 -5.913591264E-02
 2.000000000E-01 1.000000000E+00 -5.246566511E-02
 1.500000000E-01 1.000000000E+00 -4.595284356E-02
 1.000000000E-01 1.000000000E+00 -3.939747440E-02
 5.000000000E-02 1.000000000E+00 -3.328490038E-02
 1.733724275E-12 1.000000000E+00 -2.735560606E-02
 -5.000000000E-02 1.000000000E+00 -2.198433434E-02
 -1.000000000E-01 1.000000000E+00 -1.721411643E-02
 -1.500000000E-01 1.000000000E+00 -1.296795133E-02
 -2.000000000E-01 1.000000000E+00 -9.434328867E-03
 -2.500000000E-01 1.000000000E+00 -6.396459940E-03
 -3.000000000E-01 1.000000000E+00 -4.194470876E-03
 -3.500000000E-01 1.000000000E+00 -2.456542696E-03
 -4.000000000E-01 1.000000000E+00 -1.370438670E-03
 -4.500000000E-01 1.000000000E+00 -6.760529685E-04
 8.980037590E-01 -2.889159732E-03 2.827205107E-01
 8.174763521E-01 -9.093702585E-03 2.225069192E-01
 7.393031402E-01 -1.768516838E-02 1.348383465E-01
 9.862544706E-01 -3.294374857E-03 2.645852005E-01
 6.699070883E-01 -2.704908129E-02 5.149157584E-02
 5.961625776E-01 -3.656593462E-02 -6.231225637E-02
 5.329220457E-01 -4.579972774E-02 -1.829687951E-01
 4.689935946E-01 -5.212359600E-02 -3.054686117E-01
 4.125406678E-01 -5.570913979E-02 -3.721433962E-01
 3.552244521E-01 -5.646385343E-02 -3.786399700E-01
 3.009582771E-01 -5.606902000E-02 -3.443961748E-01
 2.376891379E-01 -5.301208999E-02 -2.924706084E-01
 1.774434594E-01 -4.728756187E-02 -2.408539295E-01
 1.199127758E-01 -4.015364150E-02 -1.924878673E-01