TITLE     = "Visualization of the solution"
VARIABLES = "x"
"y"
"Pressure_Coefficient"
ZONE T="Zone"
 STRANDID=0, SOLUTIONTIME=0
 Nodes=11756, Elements=22931, ZONETYPE=FEQuadrilateral
 DATAPACKING=POINT
 DT=(DOUBLE DOUBLE DOUBLE )
 1.000438452E+00 5.200678715E-04 2.749031240E-01
 9.842020869E-01 3.818839788E-03 1.677188646E-01
 9.709860682E-01 6.519160233E-03 1.104059359E-01
 9.554870129E-01 9.641414508E-03 6.313753280E-02
 9.419167042E-01 1.236970816E-02 2.096493531E-02
 9.302969575E-01 1.466363389E-02 -3.929412585E-03
 9.197257161E-01 1.677117869E-02 -2.943179275E-02
 9.089643955E-01 1.896021143E-02 -8.865314884E-02
 8.972533345E-01 2.112705633E-02 -9.459418660E-02
 8.849125504E-01 2.340272069E-02 -1.156390102E-01
 8.728518486E-01 2.559334971E-02 -1.414450674E-01
 8.611155152E-01 2.766989730E-02 -1.614436233E-01
 8.494434953E-01 2.969454974E-02 -1.875462202E-01
 8.381513953E-01 3.156227246E-02 -1.928060614E-01
 8.269066215E-01 3.342460096E-02 -2.195910724E-01
 8.141725659E-01 3.541477770E-02 -2.225961903E-01
 8.019732833E-01 3.732469678E-02 -2.437578449E-01
 7.902983427E-01 3.909715638E-02 -2.611786187E-01
 7.779060602E-01 4.089741781E-02 -2.647980724E-01
 7.662106156E-01 4.259067774E-02 -2.773381785E-01
 7.535538077E-01 4.441330209E-02 -3.038266482E-01
 7.403838634E-01 4.621960223E-02 -3.148438596E-01
 7.295695543E-01 4.768133536E-02 -3.342899577E-01
 7.175418139E-01 4.922400042E-02 -3.369224201E-01
 7.056281567E-01 5.074781552E-02 -3.570942929E-01
 6.923710704E-01 5.237027258E-02 -3.690284996E-01
 6.792079210E-01 5.394462869E-02 -3.913309812E-01
 6.674175858E-01 5.527735874E-02 -4.000331594E-01
 6.552375555E-01 5.661465228E-02 -4.150070696E-01
 6.440621018E-01 5.779286474E-02 -4.280897227E-01
 6.317152977E-01 5.903643370E-02 -4.449001370E-01
 6.197046638E-01 6.016464904E-02 -4.486636080E-01
 6.087502241E-01 6.117558479E-02 -4.714642329E-01
 5.965628624E-01 6.218952313E-02 -4.710402030E-01
 5.846408606E-01 6.315667182E-02 -4.902449160E-01
 5.706363916E-01 6.417002529E-02 -4.963024017E-01
 5.574057698E-01 6.505342573E-02 -5.066091631E-01
 5.440571308E-01 6.585274637E-02 -5.154854207E-01
 5.324727893E-01 6.646896899E-02 -5.159441147E-01
 5.199875832E-01 6.708779186E-02 -5.305691591E-01
 5.073586106E-01 6.760408729E-02 -5.333916770E-01
 4.966085851E-01 6.797552854E-02 -5.308677724E-01
 4.836483002E-01 6.835734099E-02 -5.353338624E-01
 4.707088768E-01 6.864581257E-02 -5.313978606E-01
 4.575166702E-01 6.888433546E-02 -5.393363489E-01
 4.433572888E-01 6.901566684E-02 -5.360464178E-01
 4.302572608E-01 6.905028224E-02 -5.288982314E-01
 4.168990254E-01 6.903188676E-02 -5.339383860E-01
 4.043280482E-01 6.892430037E-02 -5.297663536E-01
 3.905319571E-01 6.872908026E-02 -5.309725297E-01
 3.782907724E-01 6.846725941E-02 -5.245986298E-01
 3.665851355E-01 6.816046685E-02 -5.200401447E-01
 3.531345427E-01 6.774055213E-02 -5.218024790E-01
 3.402115703E-01 6.723624468E-02 -5.137393125E-01
 3.276928961E-01 6.667993218E-02 -5.093219352E-01
 3.174228668E-01 6.617406011E-02 -5.066748448E-01
 3.056047857E-01 6.552070379E-02 -4.978228641E-01
 2.932434976E-01 6.478521228E-02 -4.983757741E-01
 2.796930671E-01 6.386812776E-02 -4.878830010E-01
 2.674352229E-01 6.297652423E-02 -4.854057034E-01
 2.555967867E-01 6.203214824E-02 -4.762499610E-01
 2.432513237E-01 6.097964570E-02 -4.721100387E-01
 2.307346910E-01 5.982076004E-02 -4.627371669E-01
 2.187794298E-01 5.864734575E-02 -4.593075118E-01
 2.071556002E-01 5.741799995E-02 -4.520135737E-01
 1.953944117E-01 5.608539656E-02 -4.397487810E-01
 1.833494902E-01 5.464838445E-02 -4.352123026E-01
 1.717007160E-01 5.316188559E-02 -4.267348467E-01
 1.598957181E-01 5.155455694E-02 -4.156346009E-01
 1.481764019E-01 4.986371845E-02 -4.074680800E-01
 1.371437013E-01 4.817252234E-02 -3.963601110E-01
 1.257766634E-01 4.632726684E-02 -3.876109862E-01
 1.147993058E-01 4.442992806E-02 -3.777212216E-01
 1.040204763E-01 4.243912175E-02 -3.621146050E-01
 9.413824975E-02 4.050951079E-02 -3.522198914E-01
 8.354261518E-02 3.829751164E-02 -3.415495048E-01
 7.272671163E-02 3.586456925E-02 -3.260545728E-01
 6.328515708E-02 3.358100727E-02 -3.067685683E-01
 5.424160883E-02 3.121204302E-02 -2.906928811E-01
 4.569419846E-02 2.879631706E-02 -2.738130384E-01
 3.783693537E-02 2.635784820E-02 -2.510919365E-01
 3.109610453E-02 2.405945770E-02 -2.251745109E-01
 2.527509630E-02 2.188785188E-02 -2.102728001E-01
 2.089563571E-02 2.008946240E-02 -1.800471064E-01
 1.684191450E-02 1.825580001E-02 -1.524621641E-01
 1.378337853E-02 1.674037613E-02 -1.184627946E-01
 1.112586353E-02 1.529763266E-02 -9.054354665E-02
 9.227728471E-03 1.416580286E-02 -5.661144891E-02
 7.452423684E-03 1.300816052E-02 -2.327183197E-02
 5.736830179E-03 1.176979020E-02 5.826319519E-02
 3.618980525E-03 1.001433656E-02 1.559104937E-01
 1.896442613E-03 8.275241591E-03 2.695348540E-01
 5.858280929E-04 6.606612355E-03 4.956798047E-01
 -7.061358192E-04 4.272053950E-03 7.249139410E-01
 -1.302852761E-03 2.439368283E-03 9.013497900E-01
 -1.533622970E-03 9.005737375E-04 1.027097539E+00
 -1.508877613E-03 -1.003961661E-03 1.108221913E+00
 -1.076762099E-03 -3.230364295E-03 1.115443712E+00
 -9.645537648E-05 -5.769023206E-03 1.038894716E+00
 1.466631657E-03 -8.478161879E-03 8.954225493E-01
 3.498108592E-03 -1.115695294E-02 7.398153903E-01
 5.409448408E-03 -1.324595790E-02 6.171201199E-01
 7.643360645E-03 -1.537702419E-02 5.191172092E-01
 9.404551238E-03 -1.688745804E-02 4.231484836E-01
 1.147574000E-02 -1.852093264E-02 3.622008500E-01
 1.389826089E-02 -2.027577534E-02 2.849974455E-01
 1.700183935E-02 -2.232809365E-02 2.063554849E-01
 2.023033053E-02 -2.428027056E-02 1.302237657E-01
 2.416441962E-02 -2.645817399E-02 6.569589490E-02
 2.922177315E-02 -2.900228277E-02 -2.523572048E-03
 3.447506577E-02 -3.140057623E-02 -7.200793195E-02
 4.084600881E-02 -3.403596207E-02 -1.190483698E-01
 4.799253866E-02 -3.672340512E-02 -1.685596516E-01
 5.645402148E-02 -3.961068764E-02 -2.109996938E-01
 6.482190639E-02 -4.219518602E-02 -2.525768231E-01
 7.493790239E-02 -4.504780471E-02 -2.765355540E-01
 8.438476920E-02 -4.748878628E-02 -3.006687210E-01
 9.510380775E-02 -5.004033446E-02 -3.266714130E-01
 1.062403917E-01 -5.246979743E-02 -3.433883459E-01
 1.182811111E-01 -5.489710718E-02 -3.617908835E-01
 1.298822314E-01 -5.705005676E-02 -3.748907727E-01
 1.405157596E-01 -5.890076607E-02 -3.928842867E-01
 1.518203914E-01 -6.073228270E-02 -4.052264275E-01
 1.638562977E-01 -6.254749745E-02 -4.194074782E-01
 1.754223853E-01 -6.416277587E-02 -4.315873103E-01
 1.870996356E-01 -6.567843258E-02 -4.431969163E-01
 1.977906823E-01 -6.697016209E-02 -4.562721356E-01
 2.091833204E-01 -6.824408472E-02 -4.660012807E-01
 2.213545591E-01 -6.950000674E-02 -4.793285538E-01
 2.331915647E-01 -7.061138749E-02 -4.912413977E-01
 2.449506074E-01 -7.159495354E-02 -4.953871793E-01
 2.571381032E-01 -7.253679633E-02 -5.134386171E-01
 2.688710392E-01 -7.332675159E-02 -5.242062330E-01
 2.815092504E-01 -7.404837012E-02 -5.302664276E-01
 2.939778268E-01 -7.464678586E-02 -5.417193105E-01
 3.065995276E-01 -7.511349022E-02 -5.438242177E-01
 3.186553717E-01 -7.544847578E-02 -5.501520171E-01
 3.312077820E-01 -7.568156719E-02 -5.566910680E-01
 3.417326510E-01 -7.576872408E-02 -5.603363219E-01
 3.535324931E-01 -7.574874163E-02 -5.559484590E-01
 3.651162684E-01 -7.563317567E-02 -5.635327346E-01
 3.765086532E-01 -7.537341118E-02 -5.514516590E-01
 3.887881339E-01 -7.498425990E-02 -5.481846626E-01
 4.017101824E-01 -7.443288714E-02 -5.413772758E-01
 4.139119685E-01 -7.374227047E-02 -5.192675018E-01
 4.268252850E-01 -7.289996743E-02 -5.077400760E-01
 4.394338429E-01 -7.192739099E-02 -4.860282982E-01
 4.527759552E-01 -7.076624036E-02 -4.657352091E-01
 4.654871225E-01 -6.951300055E-02 -4.383581771E-01
 4.781351388E-01 -6.816077977E-02 -4.160257092E-01
 4.906468391E-01 -6.669161469E-02 -3.816456261E-01
 5.025683641E-01 -6.521651894E-02 -3.576148952E-01
 5.158247948E-01 -6.348908693E-02 -3.309111710E-01
 5.284615755E-01 -6.171691418E-02 -2.908072153E-01
 5.404793024E-01 -6.002490968E-02 -2.767632624E-01
 5.538648367E-01 -5.802417919E-02 -2.398450395E-01
 5.667107701E-01 -5.605336279E-02 -2.116475090E-01
 5.799925327E-01 -5.397189036E-02 -1.837333330E-01
 5.936326385E-01 -5.177496746E-02 -1.519059461E-01
 6.071409583E-01 -4.960370064E-02 -1.340218893E-01
 6.196202636E-01 -4.751856625E-02 -9.913473323E-02
 6.328387856E-01 -4.535312206E-02 -8.675676430E-02
 6.458637118E-01 -4.315091297E-02 -5.785128208E-02
 6.589014530E-01 -4.093096405E-02 -3.146010198E-02
 6.724544168E-01 -3.865065053E-02 -1.472294610E-02
 6.846395731E-01 -3.655379638E-02 1.521924566E-02
 6.974193454E-01 -3.443107009E-02 2.182990614E-02
 7.118608356E-01 -3.195761517E-02 5.368888532E-02
 7.248918414E-01 -2.975456417E-02 7.319606763E-02
 7.362970114E-01 -2.783939429E-02 9.089670685E-02
 7.499725819E-01 -2.558614127E-02 1.037768420E-01
 7.630620003E-01 -2.335886285E-02 1.385689462E-01
 7.770949602E-01 -2.109588683E-02 1.476523102E-01
 7.894055843E-01 -1.908460073E-02 1.734480522E-01
 8.021854162E-01 -1.705856062E-02 1.893729260E-01
 8.128441572E-01 -1.536003966E-02 2.151257524E-01
 8.238707185E-01 -1.369056199E-02 2.266368436E-01
 8.358013034E-01 -1.193065010E-02 2.427180881E-01
 8.473792672E-01 -1.022578310E-02 2.713019573E-01
 8.595671654E-01 -8.564247750E-03 2.854361463E-01
 8.701764345E-01 -7.207274903E-03 2.986092154E-01
 8.808252215E-01 -5.899755750E-03 3.172105586E-01
 8.928583264E-01 -4.538720474E-03 3.323082727E-01
 9.027757645E-01 -3.526440822E-03 3.443389744E-01
 9.136335850E-01 -2.538568806E-03 3.559075793E-01
 9.241798520E-01 -1.713470439E-03 3.651995732E-01
 9.348484874E-01 -1.025755191E-03 3.695938004E-01
 9.476006627E-01 -3.719097585E-04 3.740302029E-01
 9.616993070E-01 1.424263901E-04 3.794508002E-01
 9.765138030E-01 4.356893769E-04 3.875000829E-01
 9.893029332E-01 5.185296759E-04 4.178300968E-01
 -5.000000000E-01 -1.000000000E+00 1.244438911E-02
 3.500000000E+00 -1.000000000E+00 6.666259602E-03
 3.500000000E+00 1.000000000E+00 -1.978697699E-02
 -5.000000000E-01 1.000000000E+00 2.027109895E-03
 9.923202693E-01 2.169453830E-03 2.758655804E-01
 9.775940776E-01 5.169000011E-03 1.414715998E-01
 9.632365406E-01 8.080287371E-03 8.582185552E-02
 9.487018585E-01 1.100556133E-02 3.997706120E-02
 9.361068308E-01 1.351667102E-02 9.966416941E-03
 9.250113368E-01 1.571740629E-02 -1.509638822E-02
 9.143450558E-01 1.786569506E-02 -6.892330979E-02
 9.031088650E-01 2.004363388E-02 -8.800289194E-02
 8.910829425E-01 2.226488851E-02 -1.043618445E-01
 8.788821995E-01 2.449803520E-02 -1.293411813E-01
 8.669836819E-01 2.663162351E-02 -1.513356594E-01
 8.552795053E-01 2.868222352E-02 -1.767070793E-01
 8.437974453E-01 3.062841110E-02 -1.872161484E-01
 8.325290084E-01 3.249343671E-02 -2.104975044E-01
 8.205395937E-01 3.441968933E-02 -2.179901537E-01
 8.080729246E-01 3.636973724E-02 -2.340891476E-01
 7.961358130E-01 3.821092658E-02 -2.545769723E-01
 7.841022015E-01 3.999728709E-02 -2.606292201E-01
 7.720583379E-01 4.174404778E-02 -2.700113719E-01
 7.598822117E-01 4.350198992E-02 -2.933266493E-01
 7.469688356E-01 4.531645216E-02 -3.074174468E-01
 7.349767089E-01 4.695046879E-02 -3.273701850E-01
 7.235556841E-01 4.845266789E-02 -3.329193068E-01
 7.115849853E-01 4.998590797E-02 -3.489331645E-01
 6.989996135E-01 5.155904405E-02 -3.621535877E-01
 6.857894957E-01 5.315745063E-02 -3.812993706E-01
 6.733127534E-01 5.461099371E-02 -3.948576493E-01
 6.613275707E-01 5.594600551E-02 -4.072206790E-01
 6.496498287E-01 5.720375851E-02 -4.223420400E-01
 6.378886998E-01 5.841464922E-02 -4.376378064E-01
 6.257099807E-01 5.960054137E-02 -4.436357961E-01
 6.142274439E-01 6.067011692E-02 -4.653224960E-01
 6.026565433E-01 6.168255396E-02 -4.681090139E-01
 5.906018615E-01 6.267309748E-02 -4.845688378E-01
 5.776386261E-01 6.366334856E-02 -4.921975227E-01
 5.640210807E-01 6.461172551E-02 -5.020349984E-01
 5.507314503E-01 6.545308605E-02 -5.106740708E-01
 5.382649601E-01 6.616085768E-02 -5.140183452E-01
 5.262301862E-01 6.677838042E-02 -5.258137610E-01
 5.136730969E-01 6.734593958E-02 -5.306918299E-01
 5.019835979E-01 6.778980792E-02 -5.325384752E-01
 4.901284426E-01 6.816643476E-02 -5.340526787E-01
 4.771785885E-01 6.850157678E-02 -5.316682839E-01
 4.641127735E-01 6.876507401E-02 -5.383728553E-01
 4.504369795E-01 6.895000115E-02 -5.372339241E-01
 4.368072748E-01 6.903297454E-02 -5.307929115E-01
 4.235781431E-01 6.904108450E-02 -5.319820190E-01
 4.106135368E-01 6.897809356E-02 -5.322135569E-01
 3.974300027E-01 6.882669032E-02 -5.304063259E-01
 3.844113648E-01 6.859816983E-02 -5.265817742E-01
 3.724379539E-01 6.831386313E-02 -5.226052516E-01
 3.598598391E-01 6.795050949E-02 -5.222746581E-01
 3.466730565E-01 6.748839840E-02 -5.170099642E-01
 3.339522332E-01 6.695808843E-02 -5.095604636E-01
 3.225578815E-01 6.642699614E-02 -5.098273855E-01
 3.115138263E-01 6.584738195E-02 -5.010941619E-01
 2.994241416E-01 6.515295804E-02 -5.010692782E-01
 2.864682823E-01 6.432667002E-02 -4.913181890E-01
 2.735641450E-01 6.342232600E-02 -4.871103553E-01
 2.615160048E-01 6.250433624E-02 -4.807410228E-01
 2.494240552E-01 6.150589697E-02 -4.752941351E-01
 2.369930074E-01 6.040020287E-02 -4.660537119E-01
 2.247570604E-01 5.923405290E-02 -4.616287534E-01
 2.129675150E-01 5.803267285E-02 -4.562796047E-01
 2.012750059E-01 5.675169826E-02 -4.453191621E-01
 1.893719509E-01 5.536689050E-02 -4.381945196E-01
 1.775251031E-01 5.390513502E-02 -4.319398195E-01
 1.657982171E-01 5.235822126E-02 -4.210191330E-01
 1.540360600E-01 5.070913769E-02 -4.108258582E-01
 1.426600516E-01 4.901812039E-02 -4.022428473E-01
 1.314601824E-01 4.724989459E-02 -3.921328778E-01
 1.202879846E-01 4.537859745E-02 -3.837940835E-01
 1.094098911E-01 4.343452491E-02 -3.713929191E-01
 8.884043247E-02 3.940351121E-02 -3.488529308E-01
 7.813466340E-02 3.708104044E-02 -3.342124467E-01
 6.987990439E-02 -4.362149537E-02 -2.673311161E-01
 8.974428847E-02 -4.876456037E-02 -3.183037696E-01
 1.006720997E-01 -5.125506595E-02 -3.359732060E-01
 1.122607514E-01 -5.368345231E-02 -3.520177186E-01
 1.240816712E-01 -5.597358197E-02 -3.709185626E-01
 1.351989955E-01 -5.797541142E-02 -3.848180529E-01
 1.461680755E-01 -5.981652439E-02 -3.990054048E-01
 1.578383446E-01 -6.163989007E-02 -4.118464874E-01
 1.696393415E-01 -6.335513666E-02 -4.272945801E-01
 1.812610105E-01 -6.492060423E-02 -4.372954094E-01
 1.924451590E-01 -6.632429734E-02 -4.509856306E-01
 2.034870014E-01 -6.760712340E-02 -4.607395799E-01
 2.152689397E-01 -6.887204573E-02 -4.713530930E-01
 2.272730619E-01 -7.005569711E-02 -4.862102365E-01
 2.390710860E-01 -7.110317051E-02 -4.950100074E-01
 2.510443553E-01 -7.206587493E-02 -5.018878636E-01
 2.630045712E-01 -7.293177396E-02 -5.199782958E-01
 2.751901448E-01 -7.368756086E-02 -5.269866912E-01
 2.877435386E-01 -7.434757799E-02 -5.354591795E-01
 3.002886772E-01 -7.488013804E-02 -5.442463181E-01
 3.126274496E-01 -7.528098300E-02 -5.473514192E-01
 3.249315768E-01 -7.556502149E-02 -5.517687342E-01
 3.364702165E-01 -7.572514564E-02 -5.617336641E-01
 3.476325721E-01 -7.575873286E-02 -5.571344160E-01
 3.593243808E-01 -7.569095865E-02 -5.585451580E-01
 3.708124608E-01 -7.550329342E-02 -5.599010713E-01
 3.826483935E-01 -7.517883554E-02 -5.469550743E-01
 3.952491581E-01 -7.470857352E-02 -5.443179552E-01
 4.078110754E-01 -7.408757880E-02 -5.343595445E-01
 4.203686267E-01 -7.332111895E-02 -5.117242056E-01
 4.331295639E-01 -7.241367921E-02 -4.985294156E-01
 4.461048990E-01 -7.134681568E-02 -4.751736170E-01
 4.591315389E-01 -7.013962045E-02 -4.540392381E-01
 4.718111306E-01 -6.883689016E-02 -4.259993187E-01
 4.843909889E-01 -6.742619723E-02 -4.008982164E-01
 4.966076016E-01 -6.595406681E-02 -3.694525874E-01
 5.091965795E-01 -6.435280293E-02 -3.435041340E-01
 5.221431851E-01 -6.260300055E-02 -3.139963403E-01
 5.344704390E-01 -6.087091193E-02 -2.803345868E-01
 5.471720695E-01 -5.902454443E-02 -2.598505400E-01
 5.602878034E-01 -5.703877099E-02 -2.258852091E-01
 5.733516514E-01 -5.501262657E-02 -1.978325150E-01
 5.868125856E-01 -5.287342891E-02 -1.692086115E-01
 6.003867984E-01 -5.068933405E-02 -1.410074202E-01
 6.133806109E-01 -4.856113344E-02 -1.197655273E-01
 6.262295246E-01 -4.643584415E-02 -9.038562732E-02
 6.393512487E-01 -4.425201751E-02 -7.468648866E-02
 6.523825824E-01 -4.204093851E-02 -4.527266649E-02
 6.656779349E-01 -3.979080729E-02 -2.184314633E-02
 6.785469949E-01 -3.760222346E-02 -1.704607686E-03
 6.910294592E-01 -3.549243324E-02 2.204041284E-02
 7.046400905E-01 -3.319434263E-02 3.532162463E-02
 7.183763385E-01 -3.085608967E-02 6.377370642E-02
 7.305944264E-01 -2.879697923E-02 8.239853181E-02
 7.431347966E-01 -2.671276778E-02 9.830398175E-02
 7.565172911E-01 -2.447250206E-02 1.172272460E-01
 7.700784802E-01 -2.222737484E-02 1.459270135E-01
 7.832502723E-01 -2.009024378E-02 1.591817057E-01
 7.957955003E-01 -1.807158068E-02 1.821894086E-01
 8.075147867E-01 -1.620930014E-02 2.001811833E-01
 8.183574378E-01 -1.452530082E-02 2.223746595E-01
 8.298360109E-01 -1.281060604E-02 2.345283007E-01
 8.415902853E-01 -1.107821660E-02 2.538958506E-01
 8.534732163E-01 -9.395015426E-03 2.793783417E-01
 8.648717999E-01 -7.885761326E-03 2.939684634E-01
 8.755008280E-01 -6.553515326E-03 3.060153095E-01
 8.868417740E-01 -5.219238112E-03 3.236912427E-01
 9.082046747E-01 -3.032504814E-03 3.516859421E-01
 9.189067185E-01 -2.126019623E-03 3.610076707E-01
 9.295141697E-01 -1.369612815E-03 3.672660826E-01
 9.412245750E-01 -6.988324749E-04 3.697520625E-01
 9.546499848E-01 -1.147416842E-04 3.753518869E-01
 9.691065550E-01 2.890578835E-04 3.832018410E-01
 9.829083681E-01 4.771095264E-04 3.986813008E-01
 9.948706925E-01 5.192987737E-04 4.643592392E-01
 -5.000000000E-01 9.500000000E-01 2.942268146E-03
 -5.000000000E-01 9.000000000E-01 4.450859773E-03
 -5.000000000E-01 8.500000000E-01 6.198332094E-03
 -5.000000000E-01 8.000000000E-01 8.512058112E-03
 -5.000000000E-01 7.500000000E-01 1.154353751E-02
 -5.000000000E-01 7.000000000E-01 1.529682350E-02
 -5.000000000E-01 6.500000000E-01 1.990088388E-02
 -5.000000000E-01 6.000000000E-01 2.548871404E-02
 -5.000000000E-01 5.500000000E-01 3.184516419E-02
 -5.000000000E-01 5.000000000E-01 3.925643601E-02
 -5.000000000E-01 4.500000000E-01 4.732101302E-02
 -5.000000000E-01 4.000000000E-01 5.630956812E-02
 -5.000000000E-01 3.500000000E-01 6.582350407E-02
 -5.000000000E-01 3.000000000E-01 7.553145170E-02
 -5.000000000E-01 2.500000000E-01 8.536672367E-02
 -5.000000000E-01 2.000000000E-01 9.474536950E-02
 -5.000000000E-01 1.500000000E-01 1.031231847E-01
 -5.000000000E-01 1.000000000E-01 1.101860549E-01
 -5.000000000E-01 5.000000000E-02 1.154619975E-01
 -5.000000000E-01 2.752242878E-12 1.185985695E-01
 -5.000000000E-01 -5.000000000E-02 1.192674898E-01
 -5.000000000E-01 -1.000000000E-01 1.179988664E-01
 -5.000000000E-01 -1.500000000E-01 1.144759695E-01
 -5.000000000E-01 -2.000000000E-01 1.092426119E-01
 -5.000000000E-01 -2.500000000E-01 1.027234476E-01
 -5.000000000E-01 -3.000000000E-01 9.535342593E-02
 -5.000000000E-01 -3.500000000E-01 8.756242971E-02
 -5.000000000E-01 -4.000000000E-01 7.970249948E-02
 -5.000000000E-01 -4.500000000E-01 7.191759346E-02
 -5.000000000E-01 -5.000000000E-01 6.462138118E-02
 -5.000000000E-01 -5.500000000E-01 5.772732515E-02
 -5.000000000E-01 -6.000000000E-01 5.142365130E-02
 -5.000000000E-01 -6.500000000E-01 4.567257237E-02
 -5.000000000E-01 -7.000000000E-01 4.056157438E-02
 -5.000000000E-01 -7.500000000E-01 3.582893174E-02
 -5.000000000E-01 -8.000000000E-01 3.152764970E-02
 -5.000000000E-01 -8.500000000E-01 2.741071813E-02
 -5.000000000E-01 -9.000000000E-01 2.308590236E-02
 -5.000000000E-01 -9.500000000E-01 1.703424249E-02
 -4.500000000E-01 -1.000000000E+00 1.556672417E-02
 -4.000000000E-01 -1.000000000E+00 1.991995650E-02
 -3.500000000E-01 -1.000000000E+00 2.171613972E-02
 -3.000000000E-01 -1.000000000E+00 2.221954799E-02
 -2.500000000E-01 -1.000000000E+00 2.168944795E-02
 -2.000000000E-01 -1.000000000E+00 2.027978396E-02
 -1.500000000E-01 -1.000000000E+00 1.793941447E-02
 -1.000000000E-01 -1.000000000E+00 1.483840892E-02
 -5.000000000E-02 -1.000000000E+00 1.113692349E-02
 -9.424683256E-13 -1.000000000E+00 6.643803710E-03
 5.000000000E-02 -1.000000000E+00 1.676748308E-03
 1.000000000E-01 -1.000000000E+00 -3.430370696E-03
 1.500000000E-01 -1.000000000E+00 -8.546592867E-03
 2.000000000E-01 -1.000000000E+00 -1.369886604E-02
 2.500000000E-01 -1.000000000E+00 -1.840404082E-02
 3.000000000E-01 -1.000000000E+00 -2.265503368E-02
 3.500000000E-01 -1.000000000E+00 -2.613403959E-02
 4.000000000E-01 -1.000000000E+00 -2.879516310E-02
 4.500000000E-01 -1.000000000E+00 -3.048097936E-02
 5.000000000E-01 -1.000000000E+00 -3.113126986E-02
 5.500000000E-01 -1.000000000E+00 -3.079014328E-02
 6.000000000E-01 -1.000000000E+00 -2.948132677E-02
 6.500000000E-01 -1.000000000E+00 -2.723645542E-02
 7.000000000E-01 -1.000000000E+00 -2.431798505E-02
 7.500000000E-01 -1.000000000E+00 -2.062968180E-02
 8.000000000E-01 -1.000000000E+00 -1.657094632E-02
 8.500000000E-01 -1.000000000E+00 -1.219838400E-02
 9.000000000E-01 -1.000000000E+00 -7.507517690E-03
 9.500000000E-01 -1.000000000E+00 -2.974803885E-03
 1.000000000E+00 -1.000000000E+00 1.518389208E-03
 1.050000000E+00 -1.000000000E+00 5.664831110E-03
 1.100000000E+00 -1.000000000E+00 9.447594473E-03
 1.150000000E+00 -1.000000000E+00 1.293443328E-02
 1.200000000E+00 -1.000000000E+00 1.595613601E-02
 1.250000000E+00 -1.000000000E+00 1.857279770E-02
 1.300000000E+00 -1.000000000E+00 2.078719751E-02
 1.350000000E+00 -1.000000000E+00 2.263963928E-02
 1.400000000E+00 -1.000000000E+00 2.408814280E-02
 1.450000000E+00 -1.000000000E+00 2.521508172E-02
 1.500000000E+00 -1.000000000E+00 2.606027033E-02
 1.550000000E+00 -1.000000000E+00 2.662849076E-02
 1.600000000E+00 -1.000000000E+00 2.700134596E-02
 1.650000000E+00 -1.000000000E+00 2.718013567E-02
 1.700000000E+00 -1.000000000E+00 2.717182848E-02
 1.750000000E+00 -1.000000000E+00 2.707345129E-02
 1.800000000E+00 -1.000000000E+00 2.683948028E-02
 1.850000000E+00 -1.000000000E+00 2.655343174E-02
 1.900000000E+00 -1.000000000E+00 2.618914939E-02
 1.950000000E+00 -1.000000000E+00 2.582897083E-02
 2.000000000E+00 -1.000000000E+00 2.537004063E-02
 2.050000000E+00 -1.000000000E+00 2.497919133E-02
 2.100000000E+00 -1.000000000E+00 2.449203183E-02
 2.150000000E+00 -1.000000000E+00 2.406458411E-02
 2.200000000E+00 -1.000000000E+00 2.365070631E-02
 2.250000000E+00 -1.000000000E+00 2.321323392E-02
 2.300000000E+00 -1.000000000E+00 2.280249208E-02
 2.350000000E+00 -1.000000000E+00 2.242427615E-02
 2.400000000E+00 -1.000000000E+00 2.205112273E-02
 2.450000000E+00 -1.000000000E+00 2.171859462E-02
 2.500000000E+00 -1.000000000E+00 2.141752567E-02
 2.550000000E+00 -1.000000000E+00 2.113895654E-02
 2.600000000E+00 -1.000000000E+00 2.089613221E-02
 2.650000000E+00 -1.000000000E+00 2.065329097E-02
 2.700000000E+00 -1.000000000E+00 2.044929873E-02
 2.750000000E+00 -1.000000000E+00 2.023481482E-02
 2.800000000E+00 -1.000000000E+00 2.005626519E-02
 2.850000000E+00 -1.000000000E+00 1.989473601E-02
 2.900000000E+00 -1.000000000E+00 1.972460556E-02
 2.950000000E+00 -1.000000000E+00 1.956547728E-02
 3.000000000E+00 -1.000000000E+00 1.935738947E-02
 3.050000000E+00 -1.000000000E+00 1.911557856E-02
 3.100000000E+00 -1.000000000E+00 1.885113163E-02
 3.150000000E+00 -1.000000000E+00 1.845725113E-02
 3.200000000E+00 -1.000000000E+00 1.796917746E-02
 3.250000000E+00 -1.000000000E+00 1.739110401E-02
 3.300000000E+00 -1.000000000E+00 1.646258649E-02
 3.350000000E+00 -1.000000000E+00 1.533046319E-02
 3.400000000E+00 -1.000000000E+00 1.333674871E-02
 3.450000000E+00 -1.000000000E+00 1.018396785E-02
 3.500000000E+00 -9.500000000E-01 5.893055020E-03
 3.500000000E+00 -9.000000000E-01 7.605213208E-03
 3.500000000E+00 -8.500000000E-01 9.254855862E-03
 3.500000000E+00 -8.000000000E-01 1.099407832E-02
 3.500000000E+00 -7.500000000E-01 1.253657923E-02
 3.500000000E+00 -7.000000000E-01 1.412254342E-02
 3.500000000E+00 -6.500000000E-01 1.590810956E-02
 3.500000000E+00 -6.000000000E-01 1.788028274E-02
 3.500000000E+00 -5.500000000E-01 2.005200269E-02
 3.500000000E+00 -5.000000000E-01 2.240271104E-02
 3.500000000E+00 -4.500000000E-01 2.495615832E-02
 3.500000000E+00 -4.000000000E-01 2.770169888E-02
 3.500000000E+00 -3.500000000E-01 3.052328279E-02
 3.500000000E+00 -3.000000000E-01 3.329666716E-02
 3.500000000E+00 -2.500000000E-01 3.553608004E-02
 3.500000000E+00 -2.000000000E-01 3.704974563E-02
 3.500000000E+00 -1.500000000E-01 3.736716072E-02
 3.500000000E+00 -1.000000000E-01 3.727482535E-02
 3.500000000E+00 -5.000000000E-02 3.675983598E-02
 3.500000000E+00 -2.752242878E-12 3.627601169E-02
 3.500000000E+00 5.000000000E-02 3.560583984E-02
 3.500000000E+00 1.000000000E-01 3.443945755E-02
 3.500000000E+00 1.500000000E-01 3.257769545E-02
 3.500000000E+00 2.000000000E-01 2.979700648E-02
 3.500000000E+00 2.500000000E-01 2.648038083E-02
 3.500000000E+00 3.000000000E-01 2.311164627E-02
 3.500000000E+00 3.500000000E-01 1.982483787E-02
 3.500000000E+00 4.000000000E-01 1.666782063E-02
 3.500000000E+00 4.500000000E-01 1.384703704E-02
 3.500000000E+00 5.000000000E-01 1.114884509E-02
 3.500000000E+00 5.500000000E-01 8.959221736E-03
 3.500000000E+00 6.000000000E-01 7.341049179E-03
 3.500000000E+00 6.500000000E-01 6.461963579E-03
 3.500000000E+00 7.000000000E-01 6.171384138E-03
 3.500000000E+00 7.500000000E-01 5.201739574E-03
 3.500000000E+00 8.000000000E-01 2.580321484E-03
 3.500000000E+00 8.500000000E-01 -2.420032162E-03
 3.500000000E+00 9.000000000E-01 -9.584465345E-03
 3.500000000E+00 9.500000000E-01 -1.950247429E-02
 3.450000000E+00 1.000000000E+00 -1.072064933E-02
 3.400000000E+00 1.000000000E+00 -3.105658026E-03
 3.350000000E+00 1.000000000E+00 6.696017808E-04
 3.300000000E+00 1.000000000E+00 2.411766109E-03
 3.250000000E+00 1.000000000E+00 3.465692706E-03
 3.200000000E+00 1.000000000E+00 4.204842386E-03
 3.150000000E+00 1.000000000E+00 4.204424077E-03
 3.100000000E+00 1.000000000E+00 4.327396885E-03
 3.050000000E+00 1.000000000E+00 3.972935433E-03
 3.000000000E+00 1.000000000E+00 3.729486282E-03
 2.950000000E+00 1.000000000E+00 3.224074434E-03
 2.900000000E+00 1.000000000E+00 2.683753493E-03
 2.850000000E+00 1.000000000E+00 1.984668527E-03
 2.800000000E+00 1.000000000E+00 1.444796124E-03
 2.750000000E+00 1.000000000E+00 7.963615232E-04
 2.700000000E+00 1.000000000E+00 -4.329721486E-05
 2.650000000E+00 1.000000000E+00 -8.642981542E-04
 2.600000000E+00 1.000000000E+00 -1.925157903E-03
 2.550000000E+00 1.000000000E+00 -2.836965216E-03
 2.500000000E+00 1.000000000E+00 -4.143978802E-03
 2.450000000E+00 1.000000000E+00 -5.076259165E-03
 2.400000000E+00 1.000000000E+00 -6.385280849E-03
 2.350000000E+00 1.000000000E+00 -7.642717449E-03
 2.300000000E+00 1.000000000E+00 -8.983055026E-03
 2.250000000E+00 1.000000000E+00 -1.054749407E-02
 2.200000000E+00 1.000000000E+00 -1.184713479E-02
 2.150000000E+00 1.000000000E+00 -1.359868307E-02
 2.100000000E+00 1.000000000E+00 -1.528699663E-02
 2.050000000E+00 1.000000000E+00 -1.729766624E-02
 2.000000000E+00 1.000000000E+00 -1.963761317E-02
 1.950000000E+00 1.000000000E+00 -2.163950943E-02
 1.900000000E+00 1.000000000E+00 -2.413081795E-02
 1.850000000E+00 1.000000000E+00 -2.639104460E-02
 1.800000000E+00 1.000000000E+00 -2.940029533E-02
 1.750000000E+00 1.000000000E+00 -3.231341744E-02
 1.700000000E+00 1.000000000E+00 -3.559009075E-02
 1.650000000E+00 1.000000000E+00 -3.916212019E-02
 1.600000000E+00 1.000000000E+00 -4.244287117E-02
 1.550000000E+00 1.000000000E+00 -4.686513390E-02
 1.500000000E+00 1.000000000E+00 -5.057699442E-02
 1.450000000E+00 1.000000000E+00 -5.564409940E-02
 1.400000000E+00 1.000000000E+00 -6.028620314E-02
 1.350000000E+00 1.000000000E+00 -6.581388335E-02
 1.300000000E+00 1.000000000E+00 -7.073120218E-02
 1.250000000E+00 1.000000000E+00 -7.654985050E-02
 1.200000000E+00 1.000000000E+00 -8.141668991E-02
 1.150000000E+00 1.000000000E+00 -8.745559810E-02
 1.100000000E+00 1.000000000E+00 -9.295538834E-02
 1.050000000E+00 1.000000000E+00 -9.845194097E-02
 1.000000000E+00 1.000000000E+00 -1.037302100E-01
 9.500000000E-01 1.000000000E+00 -1.083084029E-01
 9.000000000E-01 1.000000000E+00 -1.122143909E-01
 8.500000000E-01 1.000000000E+00 -1.156576947E-01
 8.000000000E-01 1.000000000E+00 -1.170722758E-01
 7.500000000E-01 1.000000000E+00 -1.192918679E-01
 7.000000000E-01 1.000000000E+00 -1.191907526E-01
 6.500000000E-01 1.000000000E+00 -1.183321295E-01
 6.000000000E-01 1.000000000E+00 -1.161558803E-01
 5.500000000E-01 1.000000000E+00 -1.128270955E-01
 5.000000000E-01 1.000000000E+00 -1.083371731E-01
 4.500000000E-01 1.000000000E+00 -1.026823190E-01
 4.000000000E-01 1.000000000E+00 -9.616705397E-02
 3.500000000E-01 1.000000000E+00 -8.842832689E-02
 3.000000000E-01 1.000000000E+00 -8.066498813E-02
 2.500000000E-01 1.000000000E+00 -7.219724510E-02
 2.000000000E-01 1.000000000E+00 -6.344070319E-02
 1.500000000E-01 1.000000000E+00 -5.487355921E-02
 1.000000000E-01 1.000000000E+00 -4.627777574E-02
 5.000000000E-02 1.000000000E+00 -3.793109128E-02
 1.733724275E-12 1.000000000E+00 -3.014864296E-02
 -5.000000000E-02 1.000000000E+00 -2.300190240E-02
 -1.000000000E-01 1.000000000E+00 -1.677712686E-02
 -1.500000000E-01 1.000000000E+00 -1.130303465E-02
 -2.000000000E-01 1.000000000E+00 -6.776370981E-03
 -2.500000000E-01 1.000000000E+00 -2.989780566E-03
 -3.000000000E-01 1.000000000E+00 -3.280691976E-04
 -3.500000000E-01 1.000000000E+00 1.555551842E-03
 -4.000000000E-01 1.000000000E+00 2.477152012E-03
 -4.500000000E-01 1.000000000E+00 2.381939797E-03
 9.110487389E-01 -7.631937084E-03 3.452205400E-01
 8.337178742E-01 -1.768907723E-02 2.363985314E-01
 7.607761445E-01 -2.911668887E-02 1.271757624E-01
 6.899086484E-01 -4.083105786E-02 1.751875294E-02
 6.238365736E-01 -5.254237056E-02 -9.582931747E-02
 5.579324629E-01 -6.311260771E-02 -2.286555139E-01
 4.935067928E-01 -7.163577376E-02 -3.697265611E-01
 4.367028414E-01 -7.763020084E-02 -4.788500536E-01
 9.872029767E-01 -3.765836276E-03 4.062776827E-01
 3.803211739E-01 -8.040937282E-02 -5.366085454E-01
 3.215510771E-01 -8.144406423E-02 -5.377873117E-01