TITLE     = "Visualization of the solution"
VARIABLES = "x"
"y"
"Pressure_Coefficient"
ZONE T="Zone"
 STRANDID=0, SOLUTIONTIME=0
 Nodes=11855, Elements=23129, ZONETYPE=FEQuadrilateral
 DATAPACKING=POINT
 DT=(DOUBLE DOUBLE DOUBLE )
 1.000238657E+00 5.152723170E-04 2.422556505E-01
 9.896761179E-01 2.749414416E-03 2.650106606E-01
 9.773671031E-01 5.362004042E-03 1.677906170E-01
 9.603963494E-01 8.933329955E-03 1.006312100E-01
 9.454195499E-01 1.210208517E-02 4.748656012E-02
 9.297921062E-01 1.537920069E-02 -3.351108076E-04
 9.180820584E-01 1.778887771E-02 -2.744769058E-02
 9.070316553E-01 2.007125504E-02 -5.798136315E-02
 8.959360719E-01 2.235907502E-02 -1.026054566E-01
 8.846244812E-01 2.455409244E-02 -1.118231844E-01
 8.726456761E-01 2.689357102E-02 -1.449152836E-01
 8.600082397E-01 2.926401049E-02 -1.656769744E-01
 8.478824496E-01 3.149098903E-02 -1.841718907E-01
 8.378253579E-01 3.332050145E-02 -2.128615454E-01
 8.259948492E-01 3.535955772E-02 -2.140925493E-01
 8.134433627E-01 3.754974157E-02 -2.513103872E-01
 8.004508018E-01 3.965203092E-02 -2.490969105E-01
 7.871226072E-01 4.182761163E-02 -2.714468271E-01
 7.745913267E-01 4.381922632E-02 -2.890989519E-01
 7.627865672E-01 4.566238075E-02 -3.071569579E-01
 7.493790984E-01 4.770199209E-02 -3.303154932E-01
 7.352896929E-01 4.974419624E-02 -3.386484208E-01
 7.245960236E-01 5.128899217E-02 -3.600903689E-01
 7.133349180E-01 5.286131799E-02 -3.767385596E-01
 7.014344931E-01 5.446716398E-02 -3.911539427E-01
 6.877069473E-01 5.625666305E-02 -4.120797074E-01
 6.744008064E-01 5.790073425E-02 -4.244218007E-01
 6.642569900E-01 5.911811441E-02 -4.369342383E-01
 6.524477601E-01 6.048872322E-02 -4.557299868E-01
 6.399016976E-01 6.185956299E-02 -4.639439366E-01
 6.281070113E-01 6.311961263E-02 -4.918517904E-01
 6.159462333E-01 6.429107487E-02 -4.927145614E-01
 6.052312255E-01 6.529717892E-02 -5.087750076E-01
 5.926705003E-01 6.638075411E-02 -5.200269570E-01
 5.812714100E-01 6.728309393E-02 -5.213645143E-01
 5.680361986E-01 6.827908009E-02 -5.401332556E-01
 5.558763742E-01 6.908005476E-02 -5.407887243E-01
 5.441839099E-01 6.979484111E-02 -5.490142043E-01
 5.335056782E-01 7.038313895E-02 -5.543587042E-01
 5.226432085E-01 7.092211396E-02 -5.609377732E-01
 5.109899044E-01 7.141610235E-02 -5.625945648E-01
 4.997963905E-01 7.182081044E-02 -5.621941188E-01
 4.867526591E-01 7.220591605E-02 -5.614740195E-01
 4.730138183E-01 7.251256704E-02 -5.572615898E-01
 4.597473741E-01 7.273233682E-02 -5.578768976E-01
 4.469435811E-01 7.285767049E-02 -5.511589918E-01
 4.346406162E-01 7.293359190E-02 -5.597872713E-01
 4.222669005E-01 7.290124893E-02 -5.478919758E-01
 4.101686776E-01 7.283028960E-02 -5.515997412E-01
 3.984521031E-01 7.268057764E-02 -5.467912593E-01
 3.862321973E-01 7.245296240E-02 -5.387806971E-01
 3.746545315E-01 7.219453156E-02 -5.392829649E-01
 3.620519936E-01 7.183349133E-02 -5.356020244E-01
 3.493507504E-01 7.138874382E-02 -5.265485597E-01
 3.359073997E-01 7.085546851E-02 -5.263532092E-01
 3.245763183E-01 7.033349574E-02 -5.188511586E-01
 3.117541075E-01 6.968549639E-02 -5.174348774E-01
 2.984285355E-01 6.891912222E-02 -5.116843944E-01
 2.843874693E-01 6.801435351E-02 -5.033879400E-01
 2.726361156E-01 6.720018387E-02 -5.044792184E-01
 2.606194913E-01 6.627171487E-02 -4.935628765E-01
 2.482145876E-01 6.524586678E-02 -4.892411029E-01
 2.359259725E-01 6.414210796E-02 -4.809998468E-01
 2.235001922E-01 6.294789165E-02 -4.770671130E-01
 2.114166915E-01 6.169293076E-02 -4.701361438E-01
 1.992421448E-01 6.033179164E-02 -4.600577896E-01
 1.866526157E-01 5.882434547E-02 -4.510124456E-01
 1.747681797E-01 5.730773136E-02 -4.451472987E-01
 1.633365899E-01 5.573638156E-02 -4.323845575E-01
 1.513665318E-01 5.398277566E-02 -4.203667026E-01
 1.406623721E-01 5.231923237E-02 -4.099513539E-01
 1.287111640E-01 5.033564940E-02 -3.977345042E-01
 1.174251065E-01 4.832511023E-02 -3.837976045E-01
 1.068941876E-01 4.631988704E-02 -3.691815680E-01
 9.697166830E-02 4.430255294E-02 -3.515457604E-01
 8.604718745E-02 4.192208499E-02 -3.295725281E-01
 7.463409752E-02 3.922579437E-02 -3.035776124E-01
 6.487987190E-02 3.672119975E-02 -2.761832444E-01
 5.498078838E-02 3.395913169E-02 -2.433230081E-01
 4.668089747E-02 3.143380955E-02 -2.096167481E-01
 3.953005373E-02 2.907444909E-02 -1.767742654E-01
 3.306509554E-02 2.675026841E-02 -1.314954796E-01
 2.742858231E-02 2.453621477E-02 -9.399957460E-02
 2.327601798E-02 2.277054824E-02 -5.068198848E-02
 1.929706521E-02 2.094167843E-02 -8.312175142E-03
 1.593467966E-02 1.925567910E-02 5.126247922E-02
 1.277657505E-02 1.753014512E-02 1.080852231E-01
 1.046738215E-02 1.615211740E-02 1.596741267E-01
 8.502495475E-03 1.487546694E-02 2.068959546E-01
 6.705656648E-03 1.359143946E-02 2.920569334E-01
 4.396499600E-03 1.173694804E-02 4.092361115E-01
 2.381863073E-03 9.791575372E-03 5.154221513E-01
 7.781061577E-04 7.830706425E-03 7.745383457E-01
 -7.728819037E-04 4.943048116E-03 1.018032302E+00
 -1.262246165E-03 2.881347435E-03 1.111110555E+00
 -1.273938804E-03 1.253254595E-03 1.086097892E+00
 -9.650964057E-04 -2.947698813E-04 1.002308932E+00
 -4.374055716E-04 -1.654748688E-03 8.400822803E-01
 5.734888837E-04 -3.345487406E-03 6.787884553E-01
 1.935739885E-03 -4.987558816E-03 4.598866402E-01
 3.770805197E-03 -6.691702642E-03 3.110788149E-01
 5.471033510E-03 -7.996211760E-03 1.819567585E-01
 7.318823133E-03 -9.218947031E-03 1.161769880E-01
 8.970201015E-03 -1.019249111E-02 5.130480147E-02
 1.106699370E-02 -1.131023001E-02 1.891098555E-02
 1.336144097E-02 -1.241459791E-02 -2.807026303E-02
 1.663316227E-02 -1.382043306E-02 -6.047977781E-02
 1.937656105E-02 -1.488872152E-02 -1.011085594E-01
 2.296822518E-02 -1.616492867E-02 -1.159908531E-01
 2.818651870E-02 -1.782687567E-02 -1.303944979E-01
 3.383767605E-02 -1.943804137E-02 -1.525840082E-01
 4.056616873E-02 -2.115929127E-02 -1.605200054E-01
 4.811646789E-02 -2.290546335E-02 -1.680133536E-01
 5.702883005E-02 -2.476288378E-02 -1.747748987E-01
 6.560359150E-02 -2.639633790E-02 -1.813676285E-01
 7.554312795E-02 -2.814635448E-02 -1.840262939E-01
 8.574747294E-02 -2.980897948E-02 -1.911053036E-01
 9.573978186E-02 -3.132861480E-02 -1.957212091E-01
 1.071791053E-01 -3.295536339E-02 -2.018246858E-01
 1.184501722E-01 -3.445626795E-02 -2.073006304E-01
 1.305723339E-01 -3.597922623E-02 -2.146601661E-01
 1.415437609E-01 -3.727929667E-02 -2.220200381E-01
 1.528374404E-01 -3.854551539E-02 -2.286667642E-01
 1.655802280E-01 -3.989987820E-02 -2.377082865E-01
 1.776347458E-01 -4.110244662E-02 -2.454160923E-01
 1.900207996E-01 -4.227168858E-02 -2.551106557E-01
 2.013613135E-01 -4.327837378E-02 -2.641669124E-01
 2.130696625E-01 -4.425263405E-02 -2.718920060E-01
 2.258163542E-01 -4.524890333E-02 -2.827639710E-01
 2.389987260E-01 -4.619541392E-02 -2.917925790E-01
 2.518437207E-01 -4.704539850E-02 -3.035667852E-01
 2.644152343E-01 -4.779515788E-02 -3.128390532E-01
 2.761053741E-01 -4.842175916E-02 -3.226769964E-01
 2.888435721E-01 -4.902487621E-02 -3.326292195E-01
 3.014647365E-01 -4.952864721E-02 -3.400306179E-01
 3.146510422E-01 -4.996982217E-02 -3.520904136E-01
 3.270768821E-01 -5.027734488E-02 -3.581885520E-01
 3.399707675E-01 -5.048833042E-02 -3.614588498E-01
 3.513628542E-01 -5.060426146E-02 -3.743280792E-01
 3.627450466E-01 -5.059462786E-02 -3.685185181E-01
 3.736871481E-01 -5.052586645E-02 -3.774744770E-01
 3.847113252E-01 -5.035110936E-02 -3.763007937E-01
 3.966399431E-01 -5.005133152E-02 -3.729194068E-01
 4.101618826E-01 -4.957136512E-02 -3.649548673E-01
 4.226805568E-01 -4.899804667E-02 -3.577185824E-01
 4.350015521E-01 -4.829301685E-02 -3.405676089E-01
 4.472931325E-01 -4.749635980E-02 -3.327939975E-01
 4.584025145E-01 -4.664393514E-02 -3.093067626E-01
 4.695773423E-01 -4.572100565E-02 -2.967483227E-01
 4.812728167E-01 -4.464186728E-02 -2.712669692E-01
 4.921742678E-01 -4.356317595E-02 -2.504159487E-01
 5.048214197E-01 -4.224312678E-02 -2.302034011E-01
 5.180551410E-01 -4.074062034E-02 -1.965501744E-01
 5.307867527E-01 -3.924039379E-02 -1.722546805E-01
 5.437039733E-01 -3.765212744E-02 -1.441372052E-01
 5.551427603E-01 -3.621564806E-02 -1.232383664E-01
 5.682994723E-01 -3.451260179E-02 -9.532733717E-02
 5.803148150E-01 -3.293887526E-02 -7.309497545E-02
 5.920165181E-01 -3.140622750E-02 -5.759222865E-02
 6.043133140E-01 -2.975633368E-02 -3.356191186E-02
 6.188995838E-01 -2.777304687E-02 -4.655963488E-03
 6.332553029E-01 -2.586116828E-02 1.273219088E-02
 6.485272050E-01 -2.380579710E-02 3.865227143E-02
 6.610737443E-01 -2.214927971E-02 5.314197434E-02
 6.738637090E-01 -2.046038397E-02 7.166346002E-02
 6.857448220E-01 -1.889434271E-02 9.200949742E-02
 6.979324818E-01 -1.734023727E-02 1.035043762E-01
 7.119576335E-01 -1.557708904E-02 1.180050791E-01
 7.246558070E-01 -1.397942286E-02 1.379224518E-01
 7.367606163E-01 -1.248877868E-02 1.551998070E-01
 7.507044673E-01 -1.085355971E-02 1.652872667E-01
 7.621440887E-01 -9.514092468E-03 1.843546686E-01
 7.753921151E-01 -8.035544306E-03 1.965099060E-01
 7.869964838E-01 -6.793802138E-03 2.078955805E-01
 7.996538281E-01 -5.459635518E-03 2.273952805E-01
 8.107156157E-01 -4.382226150E-03 2.358820401E-01
 8.225487471E-01 -3.287101164E-03 2.471543170E-01
 8.358708620E-01 -2.114070812E-03 2.630341858E-01
 8.485151529E-01 -1.113674021E-03 2.741165663E-01
 8.606412411E-01 -2.441102115E-04 2.864385065E-01
 8.726376891E-01 4.923940287E-04 2.933040754E-01
 8.844225407E-01 1.121619483E-03 3.031150459E-01
 8.979928493E-01 1.671852428E-03 3.039975421E-01
 9.079155326E-01 1.987784170E-03 3.115559745E-01
 9.189753532E-01 2.212928142E-03 3.096341107E-01
 9.284954667E-01 2.320202533E-03 3.093953627E-01
 9.370569587E-01 2.344900509E-03 3.099122112E-01
 9.482486248E-01 2.278461587E-03 3.058247392E-01
 9.604184628E-01 2.085824264E-03 3.020431731E-01
 9.745779634E-01 1.690273173E-03 2.930223341E-01
 9.875830412E-01 1.190800453E-03 2.852055158E-01
 -5.000000000E-01 -1.000000000E+00 1.481267190E-02
 3.500000000E+00 -1.000000000E+00 8.859154153E-03
 3.500000000E+00 1.000000000E+00 -2.659170261E-02
 -5.000000000E-01 1.000000000E+00 -1.949908682E-03
 9.949573874E-01 1.632343366E-03 3.445410143E-01
 9.835216105E-01 4.055709229E-03 2.054239431E-01
 9.688817263E-01 7.147666998E-03 1.306144669E-01
 9.529079497E-01 1.051770756E-02 7.161365240E-02
 9.376058280E-01 1.374064293E-02 2.158868107E-02
 9.239370823E-01 1.658403920E-02 -1.317240717E-02
 9.125568569E-01 1.893006638E-02 -4.237338132E-02
 9.014838636E-01 2.121516503E-02 -8.569682657E-02
 8.902802765E-01 2.345658373E-02 -1.034289933E-01
 8.786350787E-01 2.572383173E-02 -1.308629554E-01
 8.663269579E-01 2.807879075E-02 -1.548027104E-01
 8.539453447E-01 3.037749976E-02 -1.736233696E-01
 8.428539038E-01 3.240574524E-02 -2.029903733E-01
 8.319101036E-01 3.434002958E-02 -2.086650979E-01
 8.197191060E-01 3.645464964E-02 -2.389362308E-01
 8.069470823E-01 3.860088624E-02 -2.455446959E-01
 7.937867045E-01 4.073982127E-02 -2.609242436E-01
 7.808569670E-01 4.282341897E-02 -2.797849588E-01
 7.686889470E-01 4.474080354E-02 -2.987956247E-01
 7.560828328E-01 4.668218642E-02 -3.208351553E-01
 7.423343956E-01 4.872309417E-02 -3.315967076E-01
 7.299428582E-01 5.051659420E-02 -3.508744720E-01
 7.189654708E-01 5.207515508E-02 -3.689655684E-01
 7.073847055E-01 5.366424099E-02 -3.843164900E-01
 6.945707202E-01 5.536191352E-02 -4.024451872E-01
 6.810538769E-01 5.707869865E-02 -4.163387004E-01
 6.693288982E-01 5.850942433E-02 -4.310362554E-01
 6.583523750E-01 5.980341882E-02 -4.481260899E-01
 6.461747289E-01 6.117414311E-02 -4.572853538E-01
 6.340043545E-01 6.248958781E-02 -4.824080347E-01
 6.220266223E-01 6.370534375E-02 -4.885079665E-01
 6.105887294E-01 6.479412690E-02 -5.037054481E-01
 5.989508629E-01 6.583896652E-02 -5.143825966E-01
 5.869709551E-01 6.683192402E-02 -5.194772409E-01
 5.746538043E-01 6.778108701E-02 -5.329516401E-01
 5.619562864E-01 6.867956743E-02 -5.389373038E-01
 5.500301421E-01 6.943744794E-02 -5.444168485E-01
 5.388447940E-01 7.008899003E-02 -5.517472750E-01
 5.280744433E-01 7.065262645E-02 -5.592947829E-01
 5.168165565E-01 7.116910815E-02 -5.611361537E-01
 5.053931475E-01 7.161845639E-02 -5.637938793E-01
 4.932745248E-01 7.201336324E-02 -5.626738374E-01
 4.798832387E-01 7.235924155E-02 -5.584725152E-01
 4.663805962E-01 7.262245193E-02 -5.579344774E-01
 4.533454776E-01 7.279500365E-02 -5.526023514E-01
 4.407920986E-01 7.289563119E-02 -5.586953906E-01
 4.284537584E-01 7.291742042E-02 -5.511026518E-01
 4.162177891E-01 7.286576927E-02 -5.506648454E-01
 4.043103904E-01 7.275543362E-02 -5.496832928E-01
 3.923421502E-01 7.256677002E-02 -5.408440268E-01
 3.804433644E-01 7.232374698E-02 -5.407399288E-01
 3.683532625E-01 7.201401144E-02 -5.378561400E-01
 3.557013720E-01 7.161111757E-02 -5.306461399E-01
 3.426290751E-01 7.112210616E-02 -5.258086302E-01
 3.302418590E-01 7.059448212E-02 -5.224356417E-01
 3.181652129E-01 7.000949606E-02 -5.194091586E-01
 3.050913215E-01 6.930230930E-02 -5.155996226E-01
 2.914080024E-01 6.846673787E-02 -5.049970508E-01
 2.785117924E-01 6.760726869E-02 -5.057245984E-01
 2.666278034E-01 6.673594937E-02 -4.984523863E-01
 2.544170395E-01 6.575879082E-02 -4.918110338E-01
 2.420702800E-01 6.469398737E-02 -4.848719076E-01
 2.297130823E-01 6.354499981E-02 -4.793900196E-01
 2.174584419E-01 6.232041121E-02 -4.739718128E-01
 2.053294182E-01 6.101236120E-02 -4.651763486E-01
 1.929473802E-01 5.957806855E-02 -4.546853871E-01
 1.807103977E-01 5.806603841E-02 -4.487660909E-01
 1.690523848E-01 5.652205646E-02 -4.394001151E-01
 1.573515609E-01 5.485957861E-02 -4.250371879E-01
 1.460144520E-01 5.315100402E-02 -4.169134201E-01
 1.346867681E-01 5.132744089E-02 -4.042456576E-01
 1.230681352E-01 4.933037981E-02 -3.907362542E-01
 1.121596470E-01 4.732249863E-02 -3.756892583E-01
 1.019329280E-01 4.531121999E-02 -3.626272534E-01
 9.150942788E-02 4.311231896E-02 -3.437636142E-01
 8.034064248E-02 4.057393968E-02 -3.219196495E-01
 5.993033014E-02 3.534016572E-02 -2.675507766E-01
 8.064530045E-02 -2.897766698E-02 -1.890946490E-01
 9.074362740E-02 -3.056879714E-02 -1.948442277E-01
 1.014594436E-01 -3.214198910E-02 -1.990550044E-01
 1.128146388E-01 -3.370581567E-02 -2.053859409E-01
 1.245112531E-01 -3.521774709E-02 -2.107126878E-01
 1.360580474E-01 -3.662926145E-02 -2.196577225E-01
 1.471906006E-01 -3.791240603E-02 -2.251940073E-01
 1.592088342E-01 -3.922269680E-02 -2.321987925E-01
 1.716074869E-01 -4.050116241E-02 -2.423521031E-01
 1.838277727E-01 -4.168706760E-02 -2.498375835E-01
 1.956910565E-01 -4.277503118E-02 -2.603051634E-01
 2.072154880E-01 -4.376550391E-02 -2.678347962E-01
 2.194430083E-01 -4.475076869E-02 -2.762648356E-01
 2.324075401E-01 -4.572215863E-02 -2.872526474E-01
 2.454212233E-01 -4.662040621E-02 -2.973515463E-01
 2.581294775E-01 -4.742027819E-02 -3.086936475E-01
 2.702603042E-01 -4.810845852E-02 -3.177956696E-01
 2.824744731E-01 -4.872331768E-02 -3.268443631E-01
 2.951541543E-01 -4.927676171E-02 -3.365887211E-01
 3.080578893E-01 -4.974923469E-02 -3.448091020E-01
 3.208639622E-01 -5.012358353E-02 -3.561789910E-01
 3.335238248E-01 -5.038283765E-02 -3.599377967E-01
 3.456668109E-01 -5.054629594E-02 -3.673806705E-01
 3.570539504E-01 -5.059944466E-02 -3.739942410E-01
 3.682160974E-01 -5.056024715E-02 -3.711495608E-01
 3.791992366E-01 -5.043848790E-02 -3.774904768E-01
 3.906756341E-01 -5.020122044E-02 -3.739440852E-01
 4.034009129E-01 -4.981134832E-02 -3.677888486E-01
 4.164212197E-01 -4.928470589E-02 -3.623850415E-01
 4.288410544E-01 -4.864553176E-02 -3.512082539E-01
 4.411473423E-01 -4.789468832E-02 -3.354576743E-01
 4.528478235E-01 -4.707014747E-02 -3.248221957E-01
 4.639899284E-01 -4.618247040E-02 -3.016776860E-01
 4.754250795E-01 -4.518143646E-02 -2.853508181E-01
 4.867235422E-01 -4.410252161E-02 -2.615587073E-01
 4.984978437E-01 -4.290315136E-02 -2.387072281E-01
 5.114382803E-01 -4.149187356E-02 -2.152106512E-01
 5.244209468E-01 -3.999050707E-02 -1.843231278E-01
 5.372453630E-01 -3.844626062E-02 -1.588366428E-01
 5.494233668E-01 -3.693388775E-02 -1.334565803E-01
 5.617211163E-01 -3.536412492E-02 -1.101224999E-01
 5.743071437E-01 -3.372573853E-02 -8.450510505E-02
 5.861656666E-01 -3.217255138E-02 -6.453386275E-02
 5.981649160E-01 -3.058128059E-02 -4.646938805E-02
 6.116064489E-01 -2.876469027E-02 -2.013880240E-02
 6.260774434E-01 -2.681710757E-02 5.423704915E-03
 6.408912539E-01 -2.483348269E-02 2.438351626E-02
 6.548004746E-01 -2.297753841E-02 4.745964718E-02
 6.674687266E-01 -2.130483184E-02 6.210857318E-02
 6.798042655E-01 -1.967736334E-02 8.058929095E-02
 6.918386519E-01 -1.811728999E-02 9.877478232E-02
 7.049450576E-01 -1.645866316E-02 1.108023031E-01
 7.183067203E-01 -1.477825595E-02 1.269606977E-01
 7.307082117E-01 -1.323410077E-02 1.461804392E-01
 7.437325418E-01 -1.167116920E-02 1.610138847E-01
 7.564242780E-01 -1.018382609E-02 1.734658782E-01
 7.687681019E-01 -8.774818387E-03 1.903085150E-01
 7.811942995E-01 -7.414673222E-03 2.032631175E-01
 7.933251560E-01 -6.126718828E-03 2.157074877E-01
 8.051847219E-01 -4.920930834E-03 2.335290946E-01
 8.166321814E-01 -3.834663657E-03 2.408873298E-01
 8.292098045E-01 -2.700585988E-03 2.531457074E-01
 8.421930075E-01 -1.613872417E-03 2.693543485E-01
 8.545781970E-01 -6.788921164E-04 2.798675101E-01
 8.666394651E-01 1.241419086E-04 2.903822502E-01
 8.785301149E-01 8.070067561E-04 2.973569032E-01
 8.912076950E-01 1.396735955E-03 3.042405341E-01
 9.134454429E-01 2.100356156E-03 3.129548445E-01
 9.426527917E-01 2.311681048E-03 3.064906278E-01
 9.543335438E-01 2.182142925E-03 3.030950580E-01
 9.674982131E-01 1.888048719E-03 2.969490078E-01
 9.810805023E-01 1.440536813E-03 2.932197787E-01
 9.939108491E-01 8.530363848E-04 3.441655372E-01
 -5.000000000E-01 9.500000000E-01 -2.518898795E-03
 -5.000000000E-01 9.000000000E-01 -2.826131918E-03
 -5.000000000E-01 8.500000000E-01 -2.217982010E-03
 -5.000000000E-01 8.000000000E-01 -7.744773189E-04
 -5.000000000E-01 7.500000000E-01 1.393531962E-03
 -5.000000000E-01 7.000000000E-01 4.426260512E-03
 -5.000000000E-01 6.500000000E-01 8.324400278E-03
 -5.000000000E-01 6.000000000E-01 1.316386231E-02
 -5.000000000E-01 5.500000000E-01 1.877731004E-02
 -5.000000000E-01 5.000000000E-01 2.538758853E-02
 -5.000000000E-01 4.500000000E-01 3.279523022E-02
 -5.000000000E-01 4.000000000E-01 4.087786926E-02
 -5.000000000E-01 3.500000000E-01 4.958099261E-02
 -5.000000000E-01 3.000000000E-01 5.845406686E-02
 -5.000000000E-01 2.500000000E-01 6.750931753E-02
 -5.000000000E-01 2.000000000E-01 7.595391175E-02
 -5.000000000E-01 1.500000000E-01 8.371884551E-02
 -5.000000000E-01 1.000000000E-01 9.044811026E-02
 -5.000000000E-01 5.000000000E-02 9.551270195E-02
 -5.000000000E-01 2.752242878E-12 9.871189625E-02
 -5.000000000E-01 -5.000000000E-02 1.002868022E-01
 -5.000000000E-01 -1.000000000E-01 9.983400545E-02
 -5.000000000E-01 -1.500000000E-01 9.785208144E-02
 -5.000000000E-01 -2.000000000E-01 9.441099735E-02
 -5.000000000E-01 -2.500000000E-01 8.996963610E-02
 -5.000000000E-01 -3.000000000E-01 8.479435892E-02
 -5.000000000E-01 -3.500000000E-01 7.931617050E-02
 -5.000000000E-01 -4.000000000E-01 7.362263332E-02
 -5.000000000E-01 -4.500000000E-01 6.809015945E-02
 -5.000000000E-01 -5.000000000E-01 6.259726946E-02
 -5.000000000E-01 -5.500000000E-01 5.748502030E-02
 -5.000000000E-01 -6.000000000E-01 5.266573920E-02
 -5.000000000E-01 -6.500000000E-01 4.814567805E-02
 -5.000000000E-01 -7.000000000E-01 4.384773998E-02
 -5.000000000E-01 -7.500000000E-01 3.982440905E-02
 -5.000000000E-01 -8.000000000E-01 3.582297537E-02
 -5.000000000E-01 -8.500000000E-01 3.176765927E-02
 -5.000000000E-01 -9.000000000E-01 2.713790792E-02
 -5.000000000E-01 -9.500000000E-01 2.029505583E-02
 -4.500000000E-01 -1.000000000E+00 1.852650536E-02
 -4.000000000E-01 -1.000000000E+00 2.410091937E-02
 -3.500000000E-01 -1.000000000E+00 2.686260278E-02
 -3.000000000E-01 -1.000000000E+00 2.839447664E-02
 -2.500000000E-01 -1.000000000E+00 2.918488425E-02
 -2.000000000E-01 -1.000000000E+00 2.921220867E-02
 -1.500000000E-01 -1.000000000E+00 2.858867321E-02
 -1.000000000E-01 -1.000000000E+00 2.738568411E-02
 -5.000000000E-02 -1.000000000E+00 2.571015107E-02
 -9.424683256E-13 -1.000000000E+00 2.358802520E-02
 5.000000000E-02 -1.000000000E+00 2.121148829E-02
 1.000000000E-01 -1.000000000E+00 1.860111597E-02
 1.500000000E-01 -1.000000000E+00 1.596259578E-02
 2.000000000E-01 -1.000000000E+00 1.335034935E-02
 2.500000000E-01 -1.000000000E+00 1.103322343E-02
 3.000000000E-01 -1.000000000E+00 9.059761554E-03
 3.500000000E-01 -1.000000000E+00 7.615304497E-03
 4.000000000E-01 -1.000000000E+00 6.605970654E-03
 4.500000000E-01 -1.000000000E+00 6.216134838E-03
 5.000000000E-01 -1.000000000E+00 6.440038124E-03
 5.500000000E-01 -1.000000000E+00 7.261707846E-03
 6.000000000E-01 -1.000000000E+00 8.733235085E-03
 6.500000000E-01 -1.000000000E+00 1.066869863E-02
 7.000000000E-01 -1.000000000E+00 1.300379903E-02
 7.500000000E-01 -1.000000000E+00 1.564880898E-02
 8.000000000E-01 -1.000000000E+00 1.847814714E-02
 8.500000000E-01 -1.000000000E+00 2.143423158E-02
 9.000000000E-01 -1.000000000E+00 2.431902399E-02
 9.500000000E-01 -1.000000000E+00 2.697993816E-02
 1.000000000E+00 -1.000000000E+00 2.958644405E-02
 1.050000000E+00 -1.000000000E+00 3.194496125E-02
 1.100000000E+00 -1.000000000E+00 3.395929177E-02
 1.150000000E+00 -1.000000000E+00 3.560687582E-02
 1.200000000E+00 -1.000000000E+00 3.695144719E-02
 1.250000000E+00 -1.000000000E+00 3.799179640E-02
 1.300000000E+00 -1.000000000E+00 3.869702958E-02
 1.350000000E+00 -1.000000000E+00 3.910486721E-02
 1.400000000E+00 -1.000000000E+00 3.926356800E-02
 1.450000000E+00 -1.000000000E+00 3.916545118E-02
 1.500000000E+00 -1.000000000E+00 3.887866037E-02
 1.550000000E+00 -1.000000000E+00 3.842820792E-02
 1.600000000E+00 -1.000000000E+00 3.783207399E-02
 1.650000000E+00 -1.000000000E+00 3.713589644E-02
 1.700000000E+00 -1.000000000E+00 3.637213465E-02
 1.750000000E+00 -1.000000000E+00 3.546577643E-02
 1.800000000E+00 -1.000000000E+00 3.465001334E-02
 1.850000000E+00 -1.000000000E+00 3.359871392E-02
 1.900000000E+00 -1.000000000E+00 3.272408838E-02
 1.950000000E+00 -1.000000000E+00 3.177966880E-02
 2.000000000E+00 -1.000000000E+00 3.088533273E-02
 2.050000000E+00 -1.000000000E+00 2.993447144E-02
 2.100000000E+00 -1.000000000E+00 2.913759877E-02
 2.150000000E+00 -1.000000000E+00 2.816479005E-02
 2.200000000E+00 -1.000000000E+00 2.739656356E-02
 2.250000000E+00 -1.000000000E+00 2.658617481E-02
 2.300000000E+00 -1.000000000E+00 2.587832480E-02
 2.350000000E+00 -1.000000000E+00 2.517736083E-02
 2.400000000E+00 -1.000000000E+00 2.453902388E-02
 2.450000000E+00 -1.000000000E+00 2.392836314E-02
 2.500000000E+00 -1.000000000E+00 2.334910053E-02
 2.550000000E+00 -1.000000000E+00 2.282052588E-02
 2.600000000E+00 -1.000000000E+00 2.233340036E-02
 2.650000000E+00 -1.000000000E+00 2.188990046E-02
 2.700000000E+00 -1.000000000E+00 2.151017035E-02
 2.750000000E+00 -1.000000000E+00 2.112231200E-02
 2.800000000E+00 -1.000000000E+00 2.083047263E-02
 2.850000000E+00 -1.000000000E+00 2.045855780E-02
 2.900000000E+00 -1.000000000E+00 2.020085713E-02
 2.950000000E+00 -1.000000000E+00 1.988401364E-02
 3.000000000E+00 -1.000000000E+00 1.965491290E-02
 3.050000000E+00 -1.000000000E+00 1.932174675E-02
 3.100000000E+00 -1.000000000E+00 1.906017947E-02
 3.150000000E+00 -1.000000000E+00 1.864149251E-02
 3.200000000E+00 -1.000000000E+00 1.823391437E-02
 3.250000000E+00 -1.000000000E+00 1.766514929E-02
 3.300000000E+00 -1.000000000E+00 1.695165639E-02
 3.350000000E+00 -1.000000000E+00 1.593075524E-02
 3.400000000E+00 -1.000000000E+00 1.438755912E-02
 3.450000000E+00 -1.000000000E+00 1.177629215E-02
 3.500000000E+00 -9.500000000E-01 8.202347598E-03
 3.500000000E+00 -9.000000000E-01 9.634475145E-03
 3.500000000E+00 -8.500000000E-01 1.110302807E-02
 3.500000000E+00 -8.000000000E-01 1.262871872E-02
 3.500000000E+00 -7.500000000E-01 1.403885803E-02
 3.500000000E+00 -7.000000000E-01 1.550529731E-02
 3.500000000E+00 -6.500000000E-01 1.699574124E-02
 3.500000000E+00 -6.000000000E-01 1.856960122E-02
 3.500000000E+00 -5.500000000E-01 2.024026849E-02
 3.500000000E+00 -5.000000000E-01 2.202468048E-02
 3.500000000E+00 -4.500000000E-01 2.389131822E-02
 3.500000000E+00 -4.000000000E-01 2.599458295E-02
 3.500000000E+00 -3.500000000E-01 2.795673973E-02
 3.500000000E+00 -3.000000000E-01 2.977372212E-02
 3.500000000E+00 -2.500000000E-01 3.112559964E-02
 3.500000000E+00 -2.000000000E-01 3.176582473E-02
 3.500000000E+00 -1.500000000E-01 3.152615417E-02
 3.500000000E+00 -1.000000000E-01 3.066158821E-02
 3.500000000E+00 -5.000000000E-02 2.972996159E-02
 3.500000000E+00 -2.752242878E-12 2.901376933E-02
 3.500000000E+00 5.000000000E-02 2.833386420E-02
 3.500000000E+00 1.000000000E-01 2.733520909E-02
 3.500000000E+00 1.500000000E-01 2.577883847E-02
 3.500000000E+00 2.000000000E-01 2.313401665E-02
 3.500000000E+00 2.500000000E-01 2.005245368E-02
 3.500000000E+00 3.000000000E-01 1.684444460E-02
 3.500000000E+00 3.500000000E-01 1.395227335E-02
 3.500000000E+00 4.000000000E-01 1.118408462E-02
 3.500000000E+00 4.500000000E-01 8.614639238E-03
 3.500000000E+00 5.000000000E-01 6.321143108E-03
 3.500000000E+00 5.500000000E-01 4.333202066E-03
 3.500000000E+00 6.000000000E-01 3.255130387E-03
 3.500000000E+00 6.500000000E-01 2.891230884E-03
 3.500000000E+00 7.000000000E-01 2.894249905E-03
 3.500000000E+00 7.500000000E-01 2.208369691E-03
 3.500000000E+00 8.000000000E-01 -8.190121391E-04
 3.500000000E+00 8.500000000E-01 -6.638002512E-03
 3.500000000E+00 9.000000000E-01 -1.620437103E-02
 3.500000000E+00 9.500000000E-01 -2.663785186E-02
 3.450000000E+00 1.000000000E+00 -1.636259450E-02
 3.400000000E+00 1.000000000E+00 -7.990231201E-03
 3.350000000E+00 1.000000000E+00 -3.909181657E-03
 3.300000000E+00 1.000000000E+00 -2.149452935E-03
 3.250000000E+00 1.000000000E+00 -1.035118149E-03
 3.200000000E+00 1.000000000E+00 -3.449654315E-04
 3.150000000E+00 1.000000000E+00 -3.252033532E-04
 3.100000000E+00 1.000000000E+00 -1.028983402E-04
 3.050000000E+00 1.000000000E+00 -5.143489659E-04
 3.000000000E+00 1.000000000E+00 -7.457308917E-04
 2.950000000E+00 1.000000000E+00 -1.202095396E-03
 2.900000000E+00 1.000000000E+00 -1.782431537E-03
 2.850000000E+00 1.000000000E+00 -2.273990181E-03
 2.800000000E+00 1.000000000E+00 -3.061525721E-03
 2.750000000E+00 1.000000000E+00 -3.896727924E-03
 2.700000000E+00 1.000000000E+00 -4.732286956E-03
 2.650000000E+00 1.000000000E+00 -5.787284571E-03
 2.600000000E+00 1.000000000E+00 -6.709919103E-03
 2.550000000E+00 1.000000000E+00 -7.962464102E-03
 2.500000000E+00 1.000000000E+00 -8.993296519E-03
 2.450000000E+00 1.000000000E+00 -1.026418975E-02
 2.400000000E+00 1.000000000E+00 -1.154536104E-02
 2.350000000E+00 1.000000000E+00 -1.291915834E-02
 2.300000000E+00 1.000000000E+00 -1.455188952E-02
 2.250000000E+00 1.000000000E+00 -1.621363858E-02
 2.200000000E+00 1.000000000E+00 -1.803935178E-02
 2.150000000E+00 1.000000000E+00 -1.994955381E-02
 2.100000000E+00 1.000000000E+00 -2.196653102E-02
 2.050000000E+00 1.000000000E+00 -2.409840045E-02
 2.000000000E+00 1.000000000E+00 -2.637061729E-02
 1.950000000E+00 1.000000000E+00 -2.863184968E-02
 1.900000000E+00 1.000000000E+00 -3.123097710E-02
 1.850000000E+00 1.000000000E+00 -3.402852063E-02
 1.800000000E+00 1.000000000E+00 -3.713786170E-02
 1.750000000E+00 1.000000000E+00 -4.050080193E-02
 1.700000000E+00 1.000000000E+00 -4.413495052E-02
 1.650000000E+00 1.000000000E+00 -4.781370140E-02
 1.600000000E+00 1.000000000E+00 -5.174946024E-02
 1.550000000E+00 1.000000000E+00 -5.627522172E-02
 1.500000000E+00 1.000000000E+00 -6.052667808E-02
 1.450000000E+00 1.000000000E+00 -6.564866781E-02
 1.400000000E+00 1.000000000E+00 -7.046588831E-02
 1.350000000E+00 1.000000000E+00 -7.650668621E-02
 1.300000000E+00 1.000000000E+00 -8.154142418E-02
 1.250000000E+00 1.000000000E+00 -8.779692181E-02
 1.200000000E+00 1.000000000E+00 -9.319723699E-02
 1.150000000E+00 1.000000000E+00 -9.863574455E-02
 1.100000000E+00 1.000000000E+00 -1.052444422E-01
 1.050000000E+00 1.000000000E+00 -1.107928893E-01
 1.000000000E+00 1.000000000E+00 -1.159031168E-01
 9.500000000E-01 1.000000000E+00 -1.211515969E-01
 9.000000000E-01 1.000000000E+00 -1.247689884E-01
 8.500000000E-01 1.000000000E+00 -1.286285336E-01
 8.000000000E-01 1.000000000E+00 -1.309064309E-01
 7.500000000E-01 1.000000000E+00 -1.318178102E-01
 7.000000000E-01 1.000000000E+00 -1.331189108E-01
 6.500000000E-01 1.000000000E+00 -1.312389134E-01
 6.000000000E-01 1.000000000E+00 -1.296362865E-01
 5.500000000E-01 1.000000000E+00 -1.250039363E-01
 5.000000000E-01 1.000000000E+00 -1.213167237E-01
 4.500000000E-01 1.000000000E+00 -1.147456908E-01
 4.000000000E-01 1.000000000E+00 -1.082005814E-01
 3.500000000E-01 1.000000000E+00 -1.007053620E-01
 3.000000000E-01 1.000000000E+00 -9.275186712E-02
 2.500000000E-01 1.000000000E+00 -8.323472473E-02
 2.000000000E-01 1.000000000E+00 -7.489434409E-02
 1.500000000E-01 1.000000000E+00 -6.586152273E-02
 1.000000000E-01 1.000000000E+00 -5.698885155E-02
 5.000000000E-02 1.000000000E+00 -4.848564513E-02
 1.733724275E-12 1.000000000E+00 -4.053942596E-02
 -5.000000000E-02 1.000000000E+00 -3.319649252E-02
 -1.000000000E-01 1.000000000E+00 -2.659842414E-02
 -1.500000000E-01 1.000000000E+00 -2.084011438E-02
 -2.000000000E-01 1.000000000E+00 -1.589086215E-02
 -2.500000000E-01 1.000000000E+00 -1.177285861E-02
 -3.000000000E-01 1.000000000E+00 -8.466230386E-03
 -3.500000000E-01 1.000000000E+00 -5.969001381E-03
 -4.000000000E-01 1.000000000E+00 -4.114809075E-03
 -4.500000000E-01 1.000000000E+00 -2.640386271E-03
 8.880377641E-01 -4.231912006E-03 2.953223929E-01
 8.027832045E-01 -9.803425377E-03 2.256797793E-01
 7.342165599E-01 -1.769855221E-02 1.480952907E-01
 6.651882371E-01 -2.719596154E-02 5.776472271E-02
 5.957535070E-01 -3.612683196E-02 -4.994306029E-02
 9.844022118E-01 -4.022355401E-03 2.885683200E-01
 5.349702136E-01 -4.398589601E-02 -1.604855853E-01
 4.729579031E-01 -5.040075562E-02 -2.813914622E-01
 4.193767915E-01 -5.456099958E-02 -3.487514998E-01
 3.595440844E-01 -5.556007517E-02 -3.618528978E-01
 3.046518626E-01 -5.473012547E-02 -3.349573840E-01
 2.418419206E-01 -5.196995591E-02 -2.886704065E-01