TITLE     = "Visualization of the solution"
VARIABLES = "x"
"y"
"Pressure_Coefficient"
ZONE T="Zone"
 STRANDID=0, SOLUTIONTIME=0
 Nodes=11931, Elements=23282, ZONETYPE=FEQuadrilateral
 DATAPACKING=POINT
 DT=(DOUBLE DOUBLE DOUBLE )
 1.000206113E+00 5.189082003E-04 2.173739874E-01
 9.895237088E-01 2.640186343E-03 1.978735374E-01
 9.772902131E-01 4.962526727E-03 1.290743137E-01
 9.623584151E-01 7.846577093E-03 7.289089675E-02
 9.486622214E-01 1.053097099E-02 1.268702182E-02
 9.340121746E-01 1.326286979E-02 -9.269102826E-03
 9.232153893E-01 1.535756979E-02 -5.895744287E-02
 9.110400081E-01 1.758929342E-02 -8.383367042E-02
 8.996121883E-01 1.964906976E-02 -1.098627297E-01
 8.875423670E-01 2.176999301E-02 -1.409992183E-01
 8.749734163E-01 2.385748550E-02 -1.471758374E-01
 8.628421426E-01 2.589334361E-02 -1.818917549E-01
 8.498259187E-01 2.794150636E-02 -2.003823716E-01
 8.383628130E-01 2.964240871E-02 -1.942991580E-01
 8.264116049E-01 3.144661710E-02 -2.165224733E-01
 8.130026460E-01 3.338854760E-02 -2.288159490E-01
 7.998552918E-01 3.524639457E-02 -2.395415304E-01
 7.875466347E-01 3.696243837E-02 -2.561098041E-01
 7.753713727E-01 3.860998154E-02 -2.663105557E-01
 7.631809711E-01 4.023762047E-02 -2.828450259E-01
 7.499683499E-01 4.194358364E-02 -2.965222680E-01
 7.357231379E-01 4.372156784E-02 -3.081686952E-01
 7.250754833E-01 4.502511024E-02 -3.205288018E-01
 7.140352726E-01 4.634633288E-02 -3.329679715E-01
 7.022802830E-01 4.771692306E-02 -3.477634256E-01
 6.881186962E-01 4.929893091E-02 -3.605103699E-01
 6.749606729E-01 5.072050542E-02 -3.770605871E-01
 6.654374003E-01 5.170141160E-02 -3.819141170E-01
 6.538984776E-01 5.286984891E-02 -4.027087005E-01
 6.420921683E-01 5.397593603E-02 -4.022733356E-01
 6.303423643E-01 5.507145450E-02 -4.256471804E-01
 6.190255284E-01 5.603305250E-02 -4.252408579E-01
 6.079226732E-01 5.696734414E-02 -4.451618560E-01
 5.947856307E-01 5.796430632E-02 -4.514203310E-01
 5.831018686E-01 5.879509076E-02 -4.586982562E-01
 5.695652366E-01 5.968559533E-02 -4.703254313E-01
 5.571545959E-01 6.041663140E-02 -4.738409406E-01
 5.453611016E-01 6.106265634E-02 -4.883962251E-01
 5.347821116E-01 6.155255064E-02 -4.814318060E-01
 5.235392451E-01 6.204817072E-02 -4.924055300E-01
 5.107126832E-01 6.251291186E-02 -4.917519885E-01
 4.994809628E-01 6.286540627E-02 -4.941647448E-01
 4.862234890E-01 6.319598109E-02 -4.916931358E-01
 4.726742804E-01 6.346926093E-02 -4.954349350E-01
 4.581834972E-01 6.366012245E-02 -4.986443269E-01
 4.443933070E-01 6.372387707E-02 -4.868668097E-01
 4.313813150E-01 6.374696642E-02 -4.924117822E-01
 4.184972644E-01 6.367392093E-02 -4.883277633E-01
 4.060453176E-01 6.353173405E-02 -4.821006952E-01
 3.940181732E-01 6.333984435E-02 -4.781418672E-01
 3.815821409E-01 6.308424473E-02 -4.775139766E-01
 3.704579473E-01 6.279526651E-02 -4.727138196E-01
 3.573704064E-01 6.238624081E-02 -4.675071611E-01
 3.448931277E-01 6.192934513E-02 -4.604402630E-01
 3.319458067E-01 6.139917672E-02 -4.583458840E-01
 3.208105862E-01 6.088569015E-02 -4.534722207E-01
 3.082735837E-01 6.024732068E-02 -4.496794563E-01
 2.946072221E-01 5.946549773E-02 -4.423234881E-01
 2.803999186E-01 5.856534466E-02 -4.345661924E-01
 2.673274577E-01 5.766183883E-02 -4.268323736E-01
 2.550035119E-01 5.675063655E-02 -4.234675991E-01
 2.422436476E-01 5.571969599E-02 -4.127396065E-01
 2.293527573E-01 5.461623892E-02 -4.076670940E-01
 2.167630196E-01 5.345788598E-02 -4.016372555E-01
 2.051036507E-01 5.231007561E-02 -3.927749609E-01
 1.936464608E-01 5.111982301E-02 -3.876028258E-01
 1.809745580E-01 4.970195889E-02 -3.736495856E-01
 1.691261828E-01 4.831552878E-02 -3.684370636E-01
 1.579118967E-01 4.692548886E-02 -3.634662357E-01
 1.459991187E-01 4.534190521E-02 -3.518604940E-01
 1.354302466E-01 4.385570437E-02 -3.406669138E-01
 1.239266992E-01 4.214817286E-02 -3.300095969E-01
 1.125898957E-01 4.036314785E-02 -3.211960036E-01
 1.020459011E-01 3.859881684E-02 -3.099251824E-01
 9.213750064E-02 3.682573140E-02 -2.969228620E-01
 8.115927875E-02 3.473063931E-02 -2.829167629E-01
 6.921602041E-02 3.226158395E-02 -2.627047513E-01
 5.962798372E-02 3.010432236E-02 -2.440411732E-01
 4.974509403E-02 2.769980766E-02 -2.261272226E-01
 4.132215306E-02 2.544068545E-02 -2.035081399E-01
 3.426389396E-02 2.336195856E-02 -1.769036517E-01
 2.811438031E-02 2.137669735E-02 -1.429828735E-01
 2.273249440E-02 1.947008632E-02 -1.158121802E-01
 1.890464500E-02 1.797915995E-02 -7.872629957E-02
 1.521442644E-02 1.640379615E-02 -4.113908157E-02
 1.248017978E-02 1.512027066E-02 5.411016576E-03
 1.001679525E-02 1.386640407E-02 4.248030906E-02
 8.205332793E-03 1.285304222E-02 7.992100418E-02
 6.619858555E-03 1.188842300E-02 1.272902562E-01
 5.176640581E-03 1.092586014E-02 2.048914987E-01
 3.291402478E-03 9.516244754E-03 3.147833749E-01
 1.603395096E-03 8.008865640E-03 4.247212301E-01
 1.834830618E-04 6.413633469E-03 6.554011789E-01
 -1.184200402E-03 4.177189432E-03 9.089109972E-01
 -1.723127789E-03 2.495015971E-03 1.058007425E+00
 -1.848503016E-03 1.187039074E-03 1.107055187E+00
 -1.699191867E-03 -2.239335445E-04 1.057677096E+00
 -1.243777573E-03 -1.629657927E-03 9.262092528E-01
 -3.204194072E-04 -3.274750663E-03 7.167336341E-01
 1.076548942E-03 -4.956926685E-03 5.080795062E-01
 3.046444850E-03 -6.717817392E-03 3.015152458E-01
 4.775563721E-03 -7.963838987E-03 1.718099414E-01
 6.733754650E-03 -9.173913859E-03 1.121157561E-01
 8.272471838E-03 -1.002336014E-02 4.538754473E-02
 1.030153874E-02 -1.103033312E-02 1.381044661E-02
 1.264073048E-02 -1.208105218E-02 -3.205427213E-02
 1.588518918E-02 -1.338268723E-02 -6.485721712E-02
 1.881698705E-02 -1.443549711E-02 -1.023863736E-01
 2.265045792E-02 -1.569134183E-02 -1.177638040E-01
 2.812397107E-02 -1.728615537E-02 -1.290987506E-01
 3.400588408E-02 -1.880607195E-02 -1.496042171E-01
 4.162199795E-02 -2.055654489E-02 -1.551394091E-01
 4.928056896E-02 -2.213630080E-02 -1.650993369E-01
 5.855971202E-02 -2.386462502E-02 -1.687190324E-01
 6.732944399E-02 -2.535471320E-02 -1.799410159E-01
 7.750922441E-02 -2.694370598E-02 -1.794019600E-01
 8.766214550E-02 -2.840268798E-02 -1.842003410E-01
 9.790622443E-02 -2.977826260E-02 -1.902693488E-01
 1.087756008E-01 -3.113981150E-02 -1.938691743E-01
 1.203068644E-01 -3.249306604E-02 -2.000064416E-01
 1.317726076E-01 -3.375019133E-02 -2.044183730E-01
 1.424535960E-01 -3.485772759E-02 -2.116351094E-01
 1.534997523E-01 -3.593558818E-02 -2.166256913E-01
 1.655495912E-01 -3.704334423E-02 -2.224116038E-01
 1.773869246E-01 -3.807216510E-02 -2.315751715E-01
 1.894607395E-01 -3.904983029E-02 -2.379708231E-01
 2.002402097E-01 -3.986381367E-02 -2.437173498E-01
 2.115347087E-01 -4.066928104E-02 -2.519480288E-01
 2.240841091E-01 -4.149369895E-02 -2.580773674E-01
 2.375976741E-01 -4.231218621E-02 -2.673586019E-01
 2.503637075E-01 -4.301453754E-02 -2.779654827E-01
 2.630551457E-01 -4.362536594E-02 -2.834655597E-01
 2.742512524E-01 -4.410578310E-02 -2.920233540E-01
 2.872487903E-01 -4.458116367E-02 -2.969294768E-01
 3.002795577E-01 -4.498744383E-02 -3.084801678E-01
 3.133143783E-01 -4.529445246E-02 -3.155125883E-01
 3.249365985E-01 -4.547177628E-02 -3.169752364E-01
 3.373704255E-01 -4.558913782E-02 -3.239545440E-01
 3.483693004E-01 -4.560635239E-02 -3.264605178E-01
 3.597221673E-01 -4.554748163E-02 -3.300221003E-01
 3.704066277E-01 -4.541140422E-02 -3.322685989E-01
 3.807395399E-01 -4.518907145E-02 -3.269200200E-01
 3.919949532E-01 -4.488201067E-02 -3.296891098E-01
 4.047470093E-01 -4.439833015E-02 -3.197695860E-01
 4.169539213E-01 -4.382916167E-02 -3.141765609E-01
 4.294316769E-01 -4.311294854E-02 -2.973121553E-01
 4.416917264E-01 -4.231461138E-02 -2.870441139E-01
 4.535961747E-01 -4.142338410E-02 -2.686787258E-01
 4.652833641E-01 -4.045345262E-02 -2.493788412E-01
 4.771522582E-01 -3.937780857E-02 -2.268211496E-01
 4.880617559E-01 -3.833523393E-02 -2.112278986E-01
 5.003121495E-01 -3.707171604E-02 -1.835041209E-01
 5.140275359E-01 -3.560382873E-02 -1.627263987E-01
 5.274583101E-01 -3.406508267E-02 -1.308066087E-01
 5.410746932E-01 -3.248231858E-02 -1.113897025E-01
 5.536748171E-01 -3.094121628E-02 -7.947012835E-02
 5.662295222E-01 -2.941996604E-02 -6.243285926E-02
 5.790967941E-01 -2.783621289E-02 -4.171205833E-02
 5.902270079E-01 -2.644818649E-02 -2.193336855E-02
 6.019437909E-01 -2.499185875E-02 -5.251599465E-03
 6.160123944E-01 -2.323192731E-02 1.725062133E-02
 6.303691864E-01 -2.144856006E-02 3.804840872E-02
 6.450766921E-01 -1.964612305E-02 5.619630860E-02
 6.582008004E-01 -1.805895567E-02 7.225407459E-02
 6.715860963E-01 -1.646037772E-02 8.756826165E-02
 6.837293506E-01 -1.502394117E-02 1.029540964E-01
 6.962183118E-01 -1.358059514E-02 1.152621260E-01
 7.101417184E-01 -1.196576189E-02 1.377035891E-01
 7.234289646E-01 -1.052067522E-02 1.447268626E-01
 7.353672385E-01 -9.235409088E-03 1.583293719E-01
 7.478435636E-01 -7.927968167E-03 1.697063281E-01
 7.593964934E-01 -6.721408106E-03 1.889073906E-01
 7.722352147E-01 -5.478393752E-03 1.957869660E-01
 7.836358547E-01 -4.395687021E-03 2.110236922E-01
 7.965679765E-01 -3.255661810E-03 2.178640212E-01
 8.076117039E-01 -2.312040888E-03 2.309818500E-01
 8.194298148E-01 -1.352195977E-03 2.449653111E-01
 8.326729536E-01 -3.812332288E-04 2.539920911E-01
 8.451666236E-01 4.553065810E-04 2.659965226E-01
 8.576746583E-01 1.179231913E-03 2.732918416E-01
 8.702859879E-01 1.819940051E-03 2.841594647E-01
 8.831702471E-01 2.334343502E-03 2.895573440E-01
 8.971795440E-01 2.736584283E-03 2.924561058E-01
 9.072363973E-01 2.926423680E-03 2.975690361E-01
 9.177239537E-01 3.021107754E-03 2.952425832E-01
 9.267882109E-01 3.025756683E-03 2.945387374E-01
 9.350664616E-01 2.968950430E-03 2.947480421E-01
 9.467698336E-01 2.783629810E-03 2.888256016E-01
 9.592198133E-01 2.460107673E-03 2.820293578E-01
 9.752344489E-01 1.871104934E-03 2.738065991E-01
 9.883547425E-01 1.219346421E-03 2.652622756E-01
 -5.000000000E-01 -1.000000000E+00 1.321248664E-02
 3.500000000E+00 -1.000000000E+00 7.887299922E-03
 3.500000000E+00 1.000000000E+00 -2.220416704E-02
 -5.000000000E-01 1.000000000E+00 -2.387179790E-03
 9.948649108E-01 1.579547272E-03 2.903581984E-01
 9.834069610E-01 3.801356535E-03 1.600585643E-01
 9.698243141E-01 6.404551910E-03 9.876228777E-02
 9.555103183E-01 9.188774042E-03 3.743335347E-02
 9.413371980E-01 1.189692039E-02 4.647986262E-03
 9.286137819E-01 1.431021979E-02 -4.077324088E-02
 9.171276987E-01 1.647343161E-02 -7.097815072E-02
 9.053260982E-01 1.861918159E-02 -9.731637431E-02
 8.935772777E-01 2.070953138E-02 -1.283836155E-01
 8.812578917E-01 2.281373926E-02 -1.398634259E-01
 8.689077795E-01 2.487541456E-02 -1.688992860E-01
 8.563340306E-01 2.691742498E-02 -1.921252207E-01
 8.440943658E-01 2.879195753E-02 -1.925625890E-01
 8.323872089E-01 3.054451291E-02 -2.081583338E-01
 8.197071254E-01 3.241758235E-02 -2.224868522E-01
 8.064289689E-01 3.431747109E-02 -2.332283752E-01
 7.937009633E-01 3.610441647E-02 -2.488278495E-01
 7.814590037E-01 3.778620996E-02 -2.602990523E-01
 7.692761719E-01 3.942380100E-02 -2.756930017E-01
 7.565746605E-01 4.109060206E-02 -2.903091027E-01
 7.428457439E-01 4.283257574E-02 -3.009874521E-01
 7.303993106E-01 4.437333904E-02 -3.143655509E-01
 7.195553780E-01 4.568572156E-02 -3.267669816E-01
 7.081577778E-01 4.703162797E-02 -3.419036839E-01
 6.951994896E-01 4.850792699E-02 -3.533788454E-01
 6.815396845E-01 5.000971816E-02 -3.695328772E-01
 6.596679389E-01 5.228563026E-02 -3.957775725E-01
 6.479953229E-01 5.342289247E-02 -3.994016161E-01
 6.362172663E-01 5.452369526E-02 -4.170063900E-01
 6.246839464E-01 5.555225350E-02 -4.224447781E-01
 6.134741008E-01 5.650019832E-02 -4.393022943E-01
 6.013541520E-01 5.746582523E-02 -4.468216485E-01
 5.889437497E-01 5.837969854E-02 -4.557665534E-01
 5.763335526E-01 5.924034305E-02 -4.649787526E-01
 5.633599162E-01 6.005111337E-02 -4.708490123E-01
 5.512578487E-01 6.073964387E-02 -4.828483774E-01
 5.400716066E-01 6.130760349E-02 -4.823849786E-01
 5.291606784E-01 6.180036068E-02 -4.902124524E-01
 5.171259642E-01 6.228054129E-02 -4.903265212E-01
 5.050968230E-01 6.268915907E-02 -4.948922297E-01
 4.928522259E-01 6.303069368E-02 -4.921611721E-01
 4.794488847E-01 6.333262101E-02 -4.949208077E-01
 4.654288888E-01 6.356469169E-02 -4.983989759E-01
 4.512884021E-01 6.369199976E-02 -4.894498161E-01
 4.378873110E-01 6.373542175E-02 -4.911601821E-01
 4.249392897E-01 6.371044368E-02 -4.902257018E-01
 4.122712910E-01 6.360282749E-02 -4.842317042E-01
 4.000317454E-01 6.343578920E-02 -4.801973471E-01
 3.878001571E-01 6.321204454E-02 -4.775983445E-01
 3.760200441E-01 6.293975562E-02 -4.764717780E-01
 3.639141768E-01 6.259075366E-02 -4.698637504E-01
 3.511317670E-01 6.215779297E-02 -4.636490004E-01
 3.384194672E-01 6.166426092E-02 -4.586920084E-01
 3.263781965E-01 6.114243343E-02 -4.563991574E-01
 3.145420849E-01 6.056650542E-02 -4.529563957E-01
 3.014404029E-01 5.985640921E-02 -4.465709914E-01
 2.875035703E-01 5.901542120E-02 -4.378060182E-01
 2.738636881E-01 5.811359175E-02 -4.298033267E-01
 2.611654848E-01 5.720623769E-02 -4.265263541E-01
 2.486235797E-01 5.623516627E-02 -4.173079041E-01
 2.357982025E-01 5.516796745E-02 -4.105147727E-01
 2.230578884E-01 5.403706245E-02 -4.045217555E-01
 2.109333351E-01 5.288398080E-02 -3.964942974E-01
 1.993750557E-01 5.171494931E-02 -3.922448235E-01
 1.873105094E-01 5.041089095E-02 -3.787395016E-01
 1.750503704E-01 4.900874384E-02 -3.711023863E-01
 1.635190398E-01 4.762050882E-02 -3.676272455E-01
 1.519555077E-01 4.613369703E-02 -3.562329533E-01
 1.407146826E-01 4.459880479E-02 -3.466941529E-01
 1.296784729E-01 4.300193861E-02 -3.358560432E-01
 1.182582974E-01 4.125566036E-02 -3.249091485E-01
 1.073178984E-01 3.948098235E-02 -3.195530221E-01
 8.664838970E-02 3.577818535E-02 -2.936869464E-01
 7.518764958E-02 3.349611163E-02 -2.766701658E-01
 5.468653888E-02 2.890206501E-02 -2.414714552E-01
 7.241933420E-02 -2.614920959E-02 -1.795201565E-01
 8.258568496E-02 -2.767319698E-02 -1.835095639E-01
 9.278418496E-02 -2.909047529E-02 -1.872669209E-01
 1.033409126E-01 -3.045903705E-02 -1.918088109E-01
 1.145412326E-01 -3.181643877E-02 -1.966663370E-01
 1.260397360E-01 -3.312162869E-02 -2.029320973E-01
 1.371131018E-01 -3.430395946E-02 -2.084646122E-01
 1.479766741E-01 -3.539665788E-02 -2.142040755E-01
 1.595246717E-01 -3.648946621E-02 -2.191068853E-01
 1.714682579E-01 -3.755775467E-02 -2.267811178E-01
 1.834238321E-01 -3.856099769E-02 -2.348160164E-01
 1.948504746E-01 -3.945682198E-02 -2.419049800E-01
 2.058874592E-01 -4.026654735E-02 -2.469963498E-01
 2.178094089E-01 -4.108149000E-02 -2.545273710E-01
 2.308408916E-01 -4.190294258E-02 -2.618736366E-01
 2.439806908E-01 -4.266336188E-02 -2.726141127E-01
 2.567094266E-01 -4.331995174E-02 -2.814748279E-01
 2.686531991E-01 -4.386557452E-02 -2.881277275E-01
 2.807500213E-01 -4.434347339E-02 -2.936219384E-01
 2.937641740E-01 -4.478430375E-02 -3.013188871E-01
 3.067969680E-01 -4.514094815E-02 -3.121196051E-01
 3.191254884E-01 -4.538311437E-02 -3.182734680E-01
 3.311535120E-01 -4.553045705E-02 -3.191789839E-01
 3.428698629E-01 -4.559774511E-02 -3.269351266E-01
 3.540457338E-01 -4.557691701E-02 -3.275096067E-01
 3.650643975E-01 -4.547944292E-02 -3.315354020E-01
 3.755730838E-01 -4.530023783E-02 -3.308823516E-01
 3.863672465E-01 -4.503554106E-02 -3.261890321E-01
 3.983709812E-01 -4.464017041E-02 -3.245105046E-01
 4.108504653E-01 -4.411374591E-02 -3.167624732E-01
 4.231927991E-01 -4.347105511E-02 -3.072928280E-01
 4.355617017E-01 -4.271377996E-02 -2.917947851E-01
 4.476439506E-01 -4.186899774E-02 -2.792433265E-01
 4.594397694E-01 -4.093841836E-02 -2.597793752E-01
 4.712178111E-01 -3.991563059E-02 -2.387531741E-01
 4.826070070E-01 -3.885652125E-02 -2.187031617E-01
 4.941869527E-01 -3.770347498E-02 -1.983331444E-01
 5.071698427E-01 -3.633777238E-02 -1.721975210E-01
 5.207429230E-01 -3.483445570E-02 -1.490802956E-01
 5.342665017E-01 -3.327370062E-02 -1.198572851E-01
 5.473747551E-01 -3.171176743E-02 -9.789281100E-02
 5.599521697E-01 -3.018059116E-02 -6.963750781E-02
 5.726631582E-01 -2.862808947E-02 -5.220421385E-02
 5.846619010E-01 -2.714219969E-02 -3.225378142E-02
 5.960853994E-01 -2.572002262E-02 -1.328756590E-02
 6.089780927E-01 -2.411189303E-02 5.401863822E-03
 6.231907904E-01 -2.234024368E-02 2.746984343E-02
 6.377229393E-01 -2.054734156E-02 4.724028704E-02
 6.516387463E-01 -1.885253936E-02 6.480537324E-02
 6.648934484E-01 -1.725966670E-02 7.976874963E-02
 6.776577234E-01 -1.574215945E-02 9.516602216E-02
 6.899738312E-01 -1.430226816E-02 1.094147076E-01
 7.031800151E-01 -1.277317852E-02 1.244362253E-01
 7.167853415E-01 -1.124321856E-02 1.435961423E-01
 7.293981016E-01 -9.878042154E-03 1.514050428E-01
 7.416054010E-01 -8.581688628E-03 1.639358419E-01
 7.536200285E-01 -7.324688137E-03 1.777232961E-01
 7.658158541E-01 -6.099900929E-03 1.934869856E-01
 7.779355347E-01 -4.937040387E-03 2.025433052E-01
 7.901019156E-01 -3.825674416E-03 2.148902590E-01
 8.020898402E-01 -2.783851349E-03 2.241489147E-01
 8.135207593E-01 -1.832118433E-03 2.365000638E-01
 8.260513842E-01 -8.667146030E-04 2.492307735E-01
 8.389197886E-01 3.703667608E-05 2.595505590E-01
 8.514206409E-01 8.172692469E-04 2.700500373E-01
 8.639803231E-01 1.499585982E-03 2.778906072E-01
 8.767281175E-01 2.077141777E-03 2.871112757E-01
 8.901748955E-01 2.535463893E-03 2.912762789E-01
 9.124801755E-01 2.973765717E-03 2.978649764E-01
 9.409181476E-01 2.876290120E-03 2.903418225E-01
 9.529948235E-01 2.621868742E-03 2.852086901E-01
 9.672271311E-01 2.165606304E-03 2.763357996E-01
 9.817945957E-01 1.545225678E-03 2.729423533E-01
 9.942804277E-01 8.691273106E-04 3.181642388E-01
 -5.000000000E-01 9.500000000E-01 -3.139394034E-03
 -5.000000000E-01 9.000000000E-01 -3.735055011E-03
 -5.000000000E-01 8.500000000E-01 -3.372698464E-03
 -5.000000000E-01 8.000000000E-01 -2.296927672E-03
 -5.000000000E-01 7.500000000E-01 -4.847225919E-04
 -5.000000000E-01 7.000000000E-01 2.036230879E-03
 -5.000000000E-01 6.500000000E-01 5.344636132E-03
 -5.000000000E-01 6.000000000E-01 9.457600661E-03
 -5.000000000E-01 5.500000000E-01 1.440193548E-02
 -5.000000000E-01 5.000000000E-01 1.999921235E-02
 -5.000000000E-01 4.500000000E-01 2.660622312E-02
 -5.000000000E-01 4.000000000E-01 3.356642418E-02
 -5.000000000E-01 3.500000000E-01 4.115299007E-02
 -5.000000000E-01 3.000000000E-01 4.903096436E-02
 -5.000000000E-01 2.500000000E-01 5.694791998E-02
 -5.000000000E-01 2.000000000E-01 6.452461055E-02
 -5.000000000E-01 1.500000000E-01 7.154687814E-02
 -5.000000000E-01 1.000000000E-01 7.749454313E-02
 -5.000000000E-01 5.000000000E-02 8.213694324E-02
 -5.000000000E-01 2.752242878E-12 8.523148031E-02
 -5.000000000E-01 -5.000000000E-02 8.673723843E-02
 -5.000000000E-01 -1.000000000E-01 8.660046053E-02
 -5.000000000E-01 -1.500000000E-01 8.504214074E-02
 -5.000000000E-01 -2.000000000E-01 8.221137204E-02
 -5.000000000E-01 -2.500000000E-01 7.853107830E-02
 -5.000000000E-01 -3.000000000E-01 7.422364295E-02
 -5.000000000E-01 -3.500000000E-01 6.948823224E-02
 -5.000000000E-01 -4.000000000E-01 6.461637790E-02
 -5.000000000E-01 -4.500000000E-01 5.982182377E-02
 -5.000000000E-01 -5.000000000E-01 5.515709121E-02
 -5.000000000E-01 -5.500000000E-01 5.073427444E-02
 -5.000000000E-01 -6.000000000E-01 4.652086722E-02
 -5.000000000E-01 -6.500000000E-01 4.259589108E-02
 -5.000000000E-01 -7.000000000E-01 3.890507956E-02
 -5.000000000E-01 -7.500000000E-01 3.533444381E-02
 -5.000000000E-01 -8.000000000E-01 3.187379994E-02
 -5.000000000E-01 -8.500000000E-01 2.828288472E-02
 -5.000000000E-01 -9.000000000E-01 2.419471935E-02
 -5.000000000E-01 -9.500000000E-01 1.804676600E-02
 -4.500000000E-01 -1.000000000E+00 1.654584906E-02
 -4.000000000E-01 -1.000000000E+00 2.153337433E-02
 -3.500000000E-01 -1.000000000E+00 2.397711195E-02
 -3.000000000E-01 -1.000000000E+00 2.539027569E-02
 -2.500000000E-01 -1.000000000E+00 2.615948856E-02
 -2.000000000E-01 -1.000000000E+00 2.630936350E-02
 -1.500000000E-01 -1.000000000E+00 2.582232528E-02
 -1.000000000E-01 -1.000000000E+00 2.493963913E-02
 -5.000000000E-02 -1.000000000E+00 2.358979531E-02
 -9.424683256E-13 -1.000000000E+00 2.191259962E-02
 5.000000000E-02 -1.000000000E+00 2.000823278E-02
 1.000000000E-01 -1.000000000E+00 1.793171651E-02
 1.500000000E-01 -1.000000000E+00 1.588710506E-02
 2.000000000E-01 -1.000000000E+00 1.390115591E-02
 2.500000000E-01 -1.000000000E+00 1.219015164E-02
 3.000000000E-01 -1.000000000E+00 1.076744065E-02
 3.500000000E-01 -1.000000000E+00 9.775143148E-03
 4.000000000E-01 -1.000000000E+00 9.218174031E-03
 4.500000000E-01 -1.000000000E+00 9.228565102E-03
 5.000000000E-01 -1.000000000E+00 9.790243420E-03
 5.500000000E-01 -1.000000000E+00 1.087367654E-02
 6.000000000E-01 -1.000000000E+00 1.242040785E-02
 6.500000000E-01 -1.000000000E+00 1.438939253E-02
 7.000000000E-01 -1.000000000E+00 1.665039246E-02
 7.500000000E-01 -1.000000000E+00 1.916573967E-02
 8.000000000E-01 -1.000000000E+00 2.180596248E-02
 8.500000000E-01 -1.000000000E+00 2.444774763E-02
 9.000000000E-01 -1.000000000E+00 2.700222532E-02
 9.500000000E-01 -1.000000000E+00 2.944400760E-02
 1.000000000E+00 -1.000000000E+00 3.165582843E-02
 1.050000000E+00 -1.000000000E+00 3.360046315E-02
 1.100000000E+00 -1.000000000E+00 3.524876392E-02
 1.150000000E+00 -1.000000000E+00 3.660844574E-02
 1.200000000E+00 -1.000000000E+00 3.762095207E-02
 1.250000000E+00 -1.000000000E+00 3.831889629E-02
 1.300000000E+00 -1.000000000E+00 3.873794677E-02
 1.350000000E+00 -1.000000000E+00 3.888087167E-02
 1.400000000E+00 -1.000000000E+00 3.880822767E-02
 1.450000000E+00 -1.000000000E+00 3.852191093E-02
 1.500000000E+00 -1.000000000E+00 3.807085112E-02
 1.550000000E+00 -1.000000000E+00 3.745668281E-02
 1.600000000E+00 -1.000000000E+00 3.673500075E-02
 1.650000000E+00 -1.000000000E+00 3.592532083E-02
 1.700000000E+00 -1.000000000E+00 3.504507896E-02
 1.750000000E+00 -1.000000000E+00 3.412713262E-02
 1.800000000E+00 -1.000000000E+00 3.312664457E-02
 1.850000000E+00 -1.000000000E+00 3.213916360E-02
 1.900000000E+00 -1.000000000E+00 3.115546174E-02
 1.950000000E+00 -1.000000000E+00 3.019096255E-02
 2.000000000E+00 -1.000000000E+00 2.920901417E-02
 2.050000000E+00 -1.000000000E+00 2.831526243E-02
 2.100000000E+00 -1.000000000E+00 2.738600028E-02
 2.150000000E+00 -1.000000000E+00 2.652377019E-02
 2.200000000E+00 -1.000000000E+00 2.567535684E-02
 2.250000000E+00 -1.000000000E+00 2.488798122E-02
 2.300000000E+00 -1.000000000E+00 2.415122302E-02
 2.350000000E+00 -1.000000000E+00 2.342791696E-02
 2.400000000E+00 -1.000000000E+00 2.277704688E-02
 2.450000000E+00 -1.000000000E+00 2.214097531E-02
 2.500000000E+00 -1.000000000E+00 2.154773516E-02
 2.550000000E+00 -1.000000000E+00 2.102641596E-02
 2.600000000E+00 -1.000000000E+00 2.052649936E-02
 2.650000000E+00 -1.000000000E+00 2.008755242E-02
 2.700000000E+00 -1.000000000E+00 1.965702207E-02
 2.750000000E+00 -1.000000000E+00 1.925726418E-02
 2.800000000E+00 -1.000000000E+00 1.891936102E-02
 2.850000000E+00 -1.000000000E+00 1.856465427E-02
 2.900000000E+00 -1.000000000E+00 1.828064632E-02
 2.950000000E+00 -1.000000000E+00 1.796238852E-02
 3.000000000E+00 -1.000000000E+00 1.769665006E-02
 3.050000000E+00 -1.000000000E+00 1.737979138E-02
 3.100000000E+00 -1.000000000E+00 1.706753856E-02
 3.150000000E+00 -1.000000000E+00 1.671841741E-02
 3.200000000E+00 -1.000000000E+00 1.629501462E-02
 3.250000000E+00 -1.000000000E+00 1.581532744E-02
 3.300000000E+00 -1.000000000E+00 1.512222766E-02
 3.350000000E+00 -1.000000000E+00 1.424343840E-02
 3.400000000E+00 -1.000000000E+00 1.275609051E-02
 3.450000000E+00 -1.000000000E+00 1.045616471E-02
 3.500000000E+00 -9.500000000E-01 7.240625946E-03
 3.500000000E+00 -9.000000000E-01 8.619466252E-03
 3.500000000E+00 -8.500000000E-01 9.827630432E-03
 3.500000000E+00 -8.000000000E-01 1.117312922E-02
 3.500000000E+00 -7.500000000E-01 1.236420791E-02
 3.500000000E+00 -7.000000000E-01 1.370841455E-02
 3.500000000E+00 -6.500000000E-01 1.501364660E-02
 3.500000000E+00 -6.000000000E-01 1.635605967E-02
 3.500000000E+00 -5.500000000E-01 1.779423281E-02
 3.500000000E+00 -5.000000000E-01 1.931297424E-02
 3.500000000E+00 -4.500000000E-01 2.093360157E-02
 3.500000000E+00 -4.000000000E-01 2.270052155E-02
 3.500000000E+00 -3.500000000E-01 2.441867641E-02
 3.500000000E+00 -3.000000000E-01 2.604516305E-02
 3.500000000E+00 -2.500000000E-01 2.716062654E-02
 3.500000000E+00 -2.000000000E-01 2.753903423E-02
 3.500000000E+00 -1.500000000E-01 2.703539659E-02
 3.500000000E+00 -1.000000000E-01 2.613786978E-02
 3.500000000E+00 -5.000000000E-02 2.508822594E-02
 3.500000000E+00 -2.752242878E-12 2.433877896E-02
 3.500000000E+00 5.000000000E-02 2.389518880E-02
 3.500000000E+00 1.000000000E-01 2.321801451E-02
 3.500000000E+00 1.500000000E-01 2.197494522E-02
 3.500000000E+00 2.000000000E-01 1.972437750E-02
 3.500000000E+00 2.500000000E-01 1.706370618E-02
 3.500000000E+00 3.000000000E-01 1.423287200E-02
 3.500000000E+00 3.500000000E-01 1.163610926E-02
 3.500000000E+00 4.000000000E-01 9.218116910E-03
 3.500000000E+00 4.500000000E-01 6.982918688E-03
 3.500000000E+00 5.000000000E-01 4.952217929E-03
 3.500000000E+00 5.500000000E-01 3.281085075E-03
 3.500000000E+00 6.000000000E-01 2.188437999E-03
 3.500000000E+00 6.500000000E-01 1.848238874E-03
 3.500000000E+00 7.000000000E-01 1.882639104E-03
 3.500000000E+00 7.500000000E-01 1.507907436E-03
 3.500000000E+00 8.000000000E-01 -7.574459526E-04
 3.500000000E+00 8.500000000E-01 -5.650352981E-03
 3.500000000E+00 9.000000000E-01 -1.319467747E-02
 3.500000000E+00 9.500000000E-01 -2.204281375E-02
 3.450000000E+00 1.000000000E+00 -1.406149294E-02
 3.400000000E+00 1.000000000E+00 -7.049271415E-03
 3.350000000E+00 1.000000000E+00 -3.622814023E-03
 3.300000000E+00 1.000000000E+00 -2.035987603E-03
 3.250000000E+00 1.000000000E+00 -1.394686712E-03
 3.200000000E+00 1.000000000E+00 -9.726726829E-04
 3.150000000E+00 1.000000000E+00 -9.668807511E-04
 3.100000000E+00 1.000000000E+00 -8.474055774E-04
 3.050000000E+00 1.000000000E+00 -1.384661553E-03
 3.000000000E+00 1.000000000E+00 -1.224620144E-03
 2.950000000E+00 1.000000000E+00 -1.843314425E-03
 2.900000000E+00 1.000000000E+00 -2.340724103E-03
 2.850000000E+00 1.000000000E+00 -3.000159055E-03
 2.800000000E+00 1.000000000E+00 -3.694131429E-03
 2.750000000E+00 1.000000000E+00 -4.555183979E-03
 2.700000000E+00 1.000000000E+00 -5.169680818E-03
 2.650000000E+00 1.000000000E+00 -6.345977457E-03
 2.600000000E+00 1.000000000E+00 -6.989740744E-03
 2.550000000E+00 1.000000000E+00 -8.169600033E-03
 2.500000000E+00 1.000000000E+00 -9.121079834E-03
 2.450000000E+00 1.000000000E+00 -1.044313197E-02
 2.400000000E+00 1.000000000E+00 -1.164426321E-02
 2.350000000E+00 1.000000000E+00 -1.297616466E-02
 2.300000000E+00 1.000000000E+00 -1.446640789E-02
 2.250000000E+00 1.000000000E+00 -1.589078094E-02
 2.200000000E+00 1.000000000E+00 -1.768260273E-02
 2.150000000E+00 1.000000000E+00 -1.930705622E-02
 2.100000000E+00 1.000000000E+00 -2.114049951E-02
 2.050000000E+00 1.000000000E+00 -2.308390175E-02
 2.000000000E+00 1.000000000E+00 -2.526469652E-02
 1.950000000E+00 1.000000000E+00 -2.743163108E-02
 1.900000000E+00 1.000000000E+00 -3.000799204E-02
 1.850000000E+00 1.000000000E+00 -3.228287292E-02
 1.800000000E+00 1.000000000E+00 -3.533736823E-02
 1.750000000E+00 1.000000000E+00 -3.832368217E-02
 1.700000000E+00 1.000000000E+00 -4.168147968E-02
 1.650000000E+00 1.000000000E+00 -4.471586541E-02
 1.600000000E+00 1.000000000E+00 -4.895545907E-02
 1.550000000E+00 1.000000000E+00 -5.229852582E-02
 1.500000000E+00 1.000000000E+00 -5.642761081E-02
 1.450000000E+00 1.000000000E+00 -6.105440196E-02
 1.400000000E+00 1.000000000E+00 -6.546259377E-02
 1.350000000E+00 1.000000000E+00 -7.026572860E-02
 1.300000000E+00 1.000000000E+00 -7.552463487E-02
 1.250000000E+00 1.000000000E+00 -8.008995950E-02
 1.200000000E+00 1.000000000E+00 -8.575146478E-02
 1.150000000E+00 1.000000000E+00 -9.048708676E-02
 1.100000000E+00 1.000000000E+00 -9.618046845E-02
 1.050000000E+00 1.000000000E+00 -1.008785603E-01
 1.000000000E+00 1.000000000E+00 -1.049277740E-01
 9.500000000E-01 1.000000000E+00 -1.098838045E-01
 9.000000000E-01 1.000000000E+00 -1.128697078E-01
 8.500000000E-01 1.000000000E+00 -1.159466456E-01
 8.000000000E-01 1.000000000E+00 -1.180386708E-01
 7.500000000E-01 1.000000000E+00 -1.183791744E-01
 7.000000000E-01 1.000000000E+00 -1.191119510E-01
 6.500000000E-01 1.000000000E+00 -1.174726215E-01
 6.000000000E-01 1.000000000E+00 -1.155035876E-01
 5.500000000E-01 1.000000000E+00 -1.123548331E-01
 5.000000000E-01 1.000000000E+00 -1.083023672E-01
 4.500000000E-01 1.000000000E+00 -1.025224979E-01
 4.000000000E-01 1.000000000E+00 -9.698054623E-02
 3.500000000E-01 1.000000000E+00 -8.998506246E-02
 3.000000000E-01 1.000000000E+00 -8.298266276E-02
 2.500000000E-01 1.000000000E+00 -7.492222306E-02
 2.000000000E-01 1.000000000E+00 -6.740925012E-02
 1.500000000E-01 1.000000000E+00 -5.928610268E-02
 1.000000000E-01 1.000000000E+00 -5.173720843E-02
 5.000000000E-02 1.000000000E+00 -4.439731095E-02
 1.733724275E-12 1.000000000E+00 -3.735631839E-02
 -5.000000000E-02 1.000000000E+00 -3.087148621E-02
 -1.000000000E-01 1.000000000E+00 -2.507259107E-02
 -1.500000000E-01 1.000000000E+00 -1.998278084E-02
 -2.000000000E-01 1.000000000E+00 -1.555190031E-02
 -2.500000000E-01 1.000000000E+00 -1.185079570E-02
 -3.000000000E-01 1.000000000E+00 -8.851705292E-03
 -3.500000000E-01 1.000000000E+00 -6.538166698E-03
 -4.000000000E-01 1.000000000E+00 -4.769672943E-03
 -4.500000000E-01 1.000000000E+00 -3.171774686E-03
 1.974534541E+00 -9.622905575E-01 2.939632065E-02
 1.975523828E+00 9.596255405E-01 -2.510362391E-02
 9.153522223E-01 -1.121051428E-03 2.911497645E-01
 8.358690150E-01 -5.444213225E-03 2.523946731E-01
 7.570522729E-01 -1.196183381E-02 1.807660028E-01
 6.875392167E-01 -2.006665889E-02 1.044965909E-01
 9.911197838E-01 -4.216620451E-03 2.413123969E-01
 6.204398226E-01 -2.865634710E-02 2.152867938E-02
 5.447383756E-01 -3.706972148E-02 -1.008633932E-01
 4.806533032E-01 -4.454877644E-02 -2.159462160E-01
 4.272678303E-01 -4.841491318E-02 -2.919923254E-01
 3.677176338E-01 -4.997591132E-02 -3.228301797E-01
 3.169814271E-01 -5.092295696E-02 -3.083012443E-01