TITLE     = "Visualization of the solution"
VARIABLES = "x"
"y"
"Pressure_Coefficient"
ZONE T="Zone"
 STRANDID=0, SOLUTIONTIME=0
 Nodes=12128, Elements=23675, ZONETYPE=FEQuadrilateral
 DATAPACKING=POINT
 DT=(DOUBLE DOUBLE DOUBLE )
 1.000117898E+00 5.100504495E-04 2.396886764E-01
 9.866689444E-01 3.040745622E-03 1.591606495E-01
 9.739744067E-01 5.454539787E-03 1.084449559E-01
 9.589290023E-01 8.361433633E-03 4.685002506E-02
 9.441914558E-01 1.107341517E-02 2.930183595E-02
 9.310944676E-01 1.361338049E-02 -2.439578798E-02
 9.194055796E-01 1.577772573E-02 -4.812361338E-02
 9.070974588E-01 1.803912595E-02 -7.638475722E-02
 8.951759934E-01 2.018643729E-02 -1.049916565E-01
 8.826947212E-01 2.234843932E-02 -1.194317203E-01
 8.704088330E-01 2.446055412E-02 -1.421492608E-01
 8.582618833E-01 2.650546469E-02 -1.669984928E-01
 8.455987573E-01 2.854430489E-02 -1.773379876E-01
 8.341501951E-01 3.037116490E-02 -1.942301268E-01
 8.224653602E-01 3.219423443E-02 -2.119565109E-01
 8.097285628E-01 3.411101550E-02 -2.210200126E-01
 7.969554663E-01 3.600717708E-02 -2.376357437E-01
 7.848523855E-01 3.775091097E-02 -2.458258636E-01
 7.725607157E-01 3.951212019E-02 -2.612130758E-01
 7.609927058E-01 4.115294293E-02 -2.835490737E-01
 7.480726838E-01 4.289838672E-02 -2.898697598E-01
 7.345148325E-01 4.471661523E-02 -3.135048824E-01
 7.236667275E-01 4.609899595E-02 -3.154307059E-01
 7.127442360E-01 4.749653861E-02 -3.327543095E-01
 7.012481093E-01 4.892530665E-02 -3.469837953E-01
 6.880441308E-01 5.051821470E-02 -3.640430824E-01
 6.753137708E-01 5.199643597E-02 -3.800364664E-01
 6.649965048E-01 5.315130949E-02 -3.904109756E-01
 6.536325216E-01 5.438813195E-02 -4.062506016E-01
 6.423816085E-01 5.555178598E-02 -4.162038292E-01
 6.305877566E-01 5.672607198E-02 -4.274025395E-01
 6.194718480E-01 5.779721215E-02 -4.482665978E-01
 6.087295413E-01 5.874763802E-02 -4.511419625E-01
 5.963461399E-01 5.979419872E-02 -4.578826838E-01
 5.848431587E-01 6.074183807E-02 -4.812381857E-01
 5.712939501E-01 6.172683463E-02 -4.868091559E-01
 5.586972237E-01 6.256706268E-02 -4.926071853E-01
 5.462540984E-01 6.333342195E-02 -5.050190104E-01
 5.350926518E-01 6.393929571E-02 -5.067536193E-01
 5.231816769E-01 6.452291459E-02 -5.085124360E-01
 5.104947686E-01 6.508683413E-02 -5.196522909E-01
 4.994755983E-01 6.550045311E-02 -5.219485668E-01
 4.862412214E-01 6.590819359E-02 -5.214029456E-01
 4.730796516E-01 6.623724103E-02 -5.250259618E-01
 4.589106143E-01 6.648202986E-02 -5.215382495E-01
 4.451356530E-01 6.663938612E-02 -5.209820302E-01
 4.322592020E-01 6.671446562E-02 -5.227984931E-01
 4.191666543E-01 6.670264155E-02 -5.203038661E-01
 4.066782296E-01 6.662043184E-02 -5.193425789E-01
 3.939219415E-01 6.645208597E-02 -5.122819775E-01
 3.818054497E-01 6.624204665E-02 -5.151833321E-01
 3.702177703E-01 6.595772505E-02 -5.055402524E-01
 3.569226563E-01 6.557501853E-02 -5.038596059E-01
 3.444990814E-01 6.514362246E-02 -4.993418126E-01
 3.318529129E-01 6.463788450E-02 -4.987581489E-01
 3.210531175E-01 6.413695216E-02 -4.908505305E-01
 3.084943593E-01 6.349473447E-02 -4.847912670E-01
 2.954543829E-01 6.276101619E-02 -4.834719835E-01
 2.815837264E-01 6.187460199E-02 -4.747023534E-01
 2.689934969E-01 6.099824607E-02 -4.701529886E-01
 2.570387721E-01 6.008791178E-02 -4.612303487E-01
 2.444453090E-01 5.906013027E-02 -4.568389815E-01
 2.317074239E-01 5.792704970E-02 -4.458581426E-01
 2.194730341E-01 5.677653477E-02 -4.426566493E-01
 2.076542825E-01 5.557955801E-02 -4.363571182E-01
 1.961670965E-01 5.433219299E-02 -4.260388351E-01
 1.837860346E-01 5.290395021E-02 -4.167269882E-01
 1.720041037E-01 5.146374926E-02 -4.107302588E-01
 1.604960561E-01 4.996196181E-02 -4.015504722E-01
 1.487397105E-01 4.832899198E-02 -3.925556926E-01
 1.379682571E-01 4.673652351E-02 -3.786992505E-01
 1.267025471E-01 4.498571157E-02 -3.721410815E-01
 1.153469160E-01 4.309365526E-02 -3.593824438E-01
 1.047756076E-01 4.122379422E-02 -3.460790382E-01
 9.492813051E-02 3.937413171E-02 -3.347410633E-01
 8.399794996E-02 3.717945889E-02 -3.191368298E-01
 7.232089341E-02 3.465120122E-02 -3.050495358E-01
 6.246633455E-02 3.233218938E-02 -2.835737152E-01
 5.278768390E-02 2.986359224E-02 -2.612948323E-01
 4.392910376E-02 2.739683539E-02 -2.389219150E-01
 3.641061112E-02 2.510655858E-02 -2.157055320E-01
 2.981645241E-02 2.290164120E-02 -1.863083445E-01
 2.420056611E-02 2.083834819E-02 -1.637240133E-01
 2.017959952E-02 1.922230236E-02 -1.290516893E-01
 1.634869166E-02 1.753632911E-02 -1.008499855E-01
 1.348686498E-02 1.616446860E-02 -6.047587259E-02
 1.092811022E-02 1.482142601E-02 -2.463982848E-02
 9.038417600E-03 1.374838594E-02 8.968384825E-03
 7.333707064E-03 1.269323844E-02 4.578339584E-02
 5.755513906E-03 1.162356231E-02 1.216976003E-01
 3.685103962E-03 1.004018914E-02 2.106740414E-01
 1.923413831E-03 8.433843032E-03 3.124186545E-01
 4.305752518E-04 6.736272946E-03 5.374165433E-01
 -1.005929545E-03 4.420374054E-03 7.976621672E-01
 -1.651575323E-03 2.605064306E-03 9.629138900E-01
 -1.871305518E-03 1.173911500E-03 1.065443612E+00
 -1.830501482E-03 -4.899411579E-04 1.120116246E+00
 -1.412324607E-03 -2.326119458E-03 1.046099092E+00
 -4.543269752E-04 -4.472746048E-03 9.386049530E-01
 1.064984710E-03 -6.722644903E-03 7.505964273E-01
 3.185906215E-03 -9.054781869E-03 5.670530392E-01
 5.080157891E-03 -1.075464208E-02 4.316332547E-01
 7.317230571E-03 -1.248622313E-02 3.490893675E-01
 8.985526860E-03 -1.364208106E-02 2.611837350E-01
 1.108510233E-02 -1.497573406E-02 2.043033371E-01
 1.349989977E-02 -1.637586020E-02 1.407811908E-01
 1.681014150E-02 -1.811345108E-02 8.265059039E-02
 1.990995370E-02 -1.959118061E-02 1.995356046E-02
 2.393956110E-02 -2.135499194E-02 -1.877338484E-02
 2.934491448E-02 -2.348843031E-02 -6.625096982E-02
 3.511687368E-02 -2.552969567E-02 -1.095063483E-01
 4.234852269E-02 -2.784823440E-02 -1.404931761E-01
 4.994120076E-02 -3.003691323E-02 -1.690806180E-01
 5.890738219E-02 -3.238549829E-02 -1.889008600E-01
 6.769692153E-02 -3.449065611E-02 -2.141237661E-01
 7.800990343E-02 -3.675133735E-02 -2.275088510E-01
 8.794014901E-02 -3.876158968E-02 -2.457493858E-01
 9.836892039E-02 -4.070518166E-02 -2.535062181E-01
 1.094110385E-01 -4.263669625E-02 -2.699186822E-01
 1.206821874E-01 -4.445837811E-02 -2.779934047E-01
 1.322771758E-01 -4.622215778E-02 -2.923480270E-01
 1.427786052E-01 -4.771110788E-02 -3.018956293E-01
 1.539047509E-01 -4.919843003E-02 -3.128230392E-01
 1.658483297E-01 -5.069240555E-02 -3.234653959E-01
 1.774138659E-01 -5.204082280E-02 -3.332586917E-01
 1.891346574E-01 -5.332035944E-02 -3.437865369E-01
 1.996210665E-01 -5.439234152E-02 -3.551072336E-01
 2.108583748E-01 -5.546316877E-02 -3.652967520E-01
 2.230540663E-01 -5.653605610E-02 -3.766645660E-01
 2.353455275E-01 -5.751287937E-02 -3.835943822E-01
 2.474834919E-01 -5.840256438E-02 -3.987199072E-01
 2.598787248E-01 -5.920462683E-02 -4.086927607E-01
 2.707084119E-01 -5.980965123E-02 -4.134342604E-01
 2.832196951E-01 -6.042554602E-02 -4.220108577E-01
 2.956271768E-01 -6.094409898E-02 -4.346094451E-01
 3.083623648E-01 -6.134667248E-02 -4.384242715E-01
 3.199599087E-01 -6.161823124E-02 -4.459409134E-01
 3.323940337E-01 -6.179973856E-02 -4.509017723E-01
 3.429318964E-01 -6.184402481E-02 -4.477321301E-01
 3.544186056E-01 -6.183221936E-02 -4.618006832E-01
 3.652968407E-01 -6.167722121E-02 -4.495431209E-01
 3.759596050E-01 -6.144878268E-02 -4.491059541E-01
 3.874175251E-01 -6.110912934E-02 -4.489733094E-01
 4.001567066E-01 -6.056533754E-02 -4.289438300E-01
 4.124431908E-01 -5.994356796E-02 -4.236845620E-01
 4.253947139E-01 -5.914309993E-02 -4.071893795E-01
 4.380193949E-01 -5.822665617E-02 -3.869555759E-01
 4.506717026E-01 -5.720757321E-02 -3.740817158E-01
 4.626975656E-01 -5.609409511E-02 -3.451778186E-01
 4.751322269E-01 -5.484531447E-02 -3.191367668E-01
 4.869302511E-01 -5.359600857E-02 -3.008010354E-01
 4.995644987E-01 -5.215843022E-02 -2.738016887E-01
 5.132253766E-01 -5.049393699E-02 -2.388819315E-01
 5.270639658E-01 -4.876602069E-02 -2.183142227E-01
 5.402378440E-01 -4.701827466E-02 -1.853224739E-01
 5.537250042E-01 -4.519091547E-02 -1.613030508E-01
 5.667573214E-01 -4.335833341E-02 -1.299785146E-01
 5.801675320E-01 -4.146280885E-02 -1.067546890E-01
 5.925563574E-01 -3.968426958E-02 -8.295842758E-02
 6.052345634E-01 -3.786341101E-02 -6.457866767E-02
 6.190992594E-01 -3.584848717E-02 -4.190287834E-02
 6.332820654E-01 -3.374305367E-02 -1.193092624E-02
 6.477808356E-01 -3.165066242E-02 1.766988321E-03
 6.609103680E-01 -2.971708402E-02 2.721028982E-02
 6.746741533E-01 -2.772967331E-02 4.117729163E-02
 6.872074008E-01 -2.589316480E-02 6.595236646E-02
 6.998164058E-01 -2.410593629E-02 7.540179676E-02
 7.144346833E-01 -2.200773545E-02 9.989817172E-02
 7.274362445E-01 -2.016143873E-02 1.205995327E-01
 7.393655181E-01 -1.854850352E-02 1.256620366E-01
 7.520613074E-01 -1.678087004E-02 1.524014566E-01
 7.645856738E-01 -1.510568988E-02 1.670326140E-01
 7.779884934E-01 -1.338680089E-02 1.767334436E-01
 7.900220752E-01 -1.184813213E-02 1.952135299E-01
 8.026370406E-01 -1.027195435E-02 2.142661751E-01
 8.140844703E-01 -8.933822624E-03 2.204847032E-01
 8.252384663E-01 -7.610154804E-03 2.456985171E-01
 8.379821181E-01 -6.232903805E-03 2.532722763E-01
 8.504493237E-01 -4.950485658E-03 2.678096239E-01
 8.624144793E-01 -3.774345154E-03 2.870174173E-01
 8.740432262E-01 -2.761603333E-03 2.957250922E-01
 8.857152462E-01 -1.834330498E-03 3.089305880E-01
 8.989854455E-01 -9.433532832E-04 3.139886706E-01
 9.090626240E-01 -3.527353110E-04 3.228939366E-01
 9.191704988E-01 1.429552358E-04 3.292201088E-01
 9.288617373E-01 5.105250748E-04 3.316220713E-01
 9.379102588E-01 7.734312676E-04 3.358232566E-01
 9.501934052E-01 1.001382247E-03 3.356181432E-01
 9.632940888E-01 1.094566192E-03 3.382206353E-01
 9.771842957E-01 1.024006284E-03 3.457189611E-01
 9.895166159E-01 8.113325457E-04 3.687155748E-01
 -5.000000000E-01 -1.000000000E+00 1.305972817E-02
 3.500000000E+00 -1.000000000E+00 7.776331274E-03
 3.500000000E+00 1.000000000E+00 -2.161813308E-02
 -5.000000000E-01 1.000000000E+00 -4.595253461E-04
 9.933934212E-01 1.775398036E-03 2.518624562E-01
 9.803216755E-01 4.247642704E-03 1.351100328E-01
 9.664517045E-01 6.907986710E-03 7.255222190E-02
 9.515602291E-01 9.717424400E-03 4.204185392E-02
 9.376429617E-01 1.234339783E-02 -2.508547021E-03
 9.252500236E-01 1.469555311E-02 -3.577347842E-02
 9.132515192E-01 1.690842584E-02 -6.270832633E-02
 9.011367261E-01 1.911278162E-02 -9.267057222E-02
 8.889353573E-01 2.126743831E-02 -1.102488220E-01
 8.765517771E-01 2.340449672E-02 -1.311889785E-01
 8.643353581E-01 2.548300941E-02 -1.571576477E-01
 8.519303203E-01 2.752488479E-02 -1.701066465E-01
 8.398744762E-01 2.945773490E-02 -1.859665671E-01
 8.283077776E-01 3.128269967E-02 -2.045808055E-01
 8.160969615E-01 3.315262496E-02 -2.153418334E-01
 8.033420146E-01 3.505909629E-02 -2.299226225E-01
 7.909039259E-01 3.687904403E-02 -2.403104110E-01
 7.787065506E-01 3.863151558E-02 -2.528502013E-01
 7.667767107E-01 4.033253156E-02 -2.756284411E-01
 7.545326948E-01 4.202566482E-02 -2.850164593E-01
 7.412937582E-01 4.380750097E-02 -3.031012822E-01
 7.290907800E-01 4.540780559E-02 -3.117286544E-01
 7.182054818E-01 4.679776728E-02 -3.247363196E-01
 7.069961727E-01 4.821092263E-02 -3.405680538E-01
 6.946461201E-01 4.972176068E-02 -3.557763092E-01
 6.816789508E-01 5.125732534E-02 -3.715420692E-01
 6.701551378E-01 5.257387273E-02 -3.848739538E-01
 6.593145132E-01 5.376972072E-02 -3.994160621E-01
 6.480070651E-01 5.496995896E-02 -4.112257325E-01
 6.364846826E-01 5.613892898E-02 -4.206500481E-01
 6.250298023E-01 5.726164207E-02 -4.402569849E-01
 6.141006947E-01 5.827242509E-02 -4.492067328E-01
 6.025378406E-01 5.927091837E-02 -4.522910409E-01
 5.905946493E-01 6.026801839E-02 -4.745880683E-01
 5.780685544E-01 6.123433635E-02 -4.831819352E-01
 5.649955869E-01 6.214694865E-02 -4.888744826E-01
 5.524756610E-01 6.295024231E-02 -4.994542003E-01
 5.406733751E-01 6.363635883E-02 -5.059053247E-01
 5.291371644E-01 6.423110515E-02 -5.070102113E-01
 5.168382227E-01 6.480487436E-02 -5.140147279E-01
 5.049851835E-01 6.529364362E-02 -5.228976879E-01
 4.928584099E-01 6.570432335E-02 -5.208360271E-01
 4.796604365E-01 6.607271731E-02 -5.248725146E-01
 4.659951329E-01 6.635963544E-02 -5.225937870E-01
 4.520231336E-01 6.656070799E-02 -5.202098109E-01
 4.386974275E-01 6.667692587E-02 -5.229614278E-01
 4.257129282E-01 6.670855358E-02 -5.209544875E-01
 4.129224420E-01 6.666153669E-02 -5.206894052E-01
 4.003000855E-01 6.653625891E-02 -5.141571753E-01
 3.878636956E-01 6.634706631E-02 -5.150089103E-01
 3.760116100E-01 6.609988585E-02 -5.100447255E-01
 3.635702133E-01 6.576637179E-02 -5.045720042E-01
 3.507108688E-01 6.535932049E-02 -5.016203848E-01
 3.381759971E-01 6.489075348E-02 -4.985384790E-01
 3.264530152E-01 6.438741833E-02 -4.955306507E-01
 3.147737384E-01 6.381584331E-02 -4.877078803E-01
 3.019743711E-01 6.312787533E-02 -4.861026210E-01
 2.885190547E-01 6.231780909E-02 -4.777970877E-01
 2.752886117E-01 6.143642403E-02 -4.725099594E-01
 2.630161345E-01 6.054307893E-02 -4.660226291E-01
 2.507420406E-01 5.957402103E-02 -4.600460201E-01
 2.380763665E-01 5.849358998E-02 -4.499140453E-01
 2.255902290E-01 5.735179223E-02 -4.449568930E-01
 2.135636583E-01 5.617804639E-02 -4.397505167E-01
 2.019106895E-01 5.495587550E-02 -4.315840412E-01
 1.899765655E-01 5.361807160E-02 -4.208985680E-01
 1.778950691E-01 5.218384974E-02 -4.141002225E-01
 1.662500799E-01 5.071285553E-02 -4.071575439E-01
 1.546178833E-01 4.914547689E-02 -3.962476682E-01
 1.433539838E-01 4.753275774E-02 -3.855184399E-01
 1.323354021E-01 4.586111754E-02 -3.772046103E-01
 1.210247315E-01 4.403968342E-02 -3.648699298E-01
 1.100612618E-01 4.215872474E-02 -3.554820383E-01
 8.946304023E-02 3.827679530E-02 -3.301479477E-01
 7.815942168E-02 3.591533005E-02 -3.106118699E-01
 6.739361398E-02 3.349169530E-02 -2.984972761E-01
 7.285341248E-02 -3.562099673E-02 -2.238499799E-01
 8.297502622E-02 -3.775646351E-02 -2.384426281E-01
 9.315453470E-02 -3.973338567E-02 -2.507188734E-01
 1.038899794E-01 -4.167093895E-02 -2.603286342E-01
 1.150466129E-01 -4.354753718E-02 -2.752071782E-01
 1.264796816E-01 -4.534026794E-02 -2.848606617E-01
 1.375278905E-01 -4.696663283E-02 -2.991716168E-01
 1.483416781E-01 -4.845476896E-02 -3.065971616E-01
 1.598765403E-01 -4.994541779E-02 -3.176641357E-01
 1.716310978E-01 -5.136661418E-02 -3.293495624E-01
 1.832742617E-01 -5.268059112E-02 -3.386002893E-01
 1.943778619E-01 -5.385635048E-02 -3.505055188E-01
 2.052397206E-01 -5.492775515E-02 -3.591752811E-01
 2.169562206E-01 -5.599961244E-02 -3.701372890E-01
 2.291997969E-01 -5.702446774E-02 -3.808548354E-01
 2.414145097E-01 -5.795772187E-02 -3.901212236E-01
 2.536811084E-01 -5.880359560E-02 -4.039338397E-01
 2.652935684E-01 -5.950713903E-02 -4.135594443E-01
 2.769640535E-01 -6.011759862E-02 -4.155829359E-01
 2.894234359E-01 -6.068482250E-02 -4.276593799E-01
 3.019947708E-01 -6.114538573E-02 -4.376795261E-01
 3.141611367E-01 -6.148245186E-02 -4.426236651E-01
 3.261769712E-01 -6.170898490E-02 -4.474336166E-01
 3.376629651E-01 -6.182188168E-02 -4.529286100E-01
 3.486752510E-01 -6.183812208E-02 -4.504021565E-01
 3.598577231E-01 -6.175472029E-02 -4.598567621E-01
 3.706282228E-01 -6.156300195E-02 -4.482038344E-01
 3.816885650E-01 -6.127895601E-02 -4.471277739E-01
 3.937871158E-01 -6.083723344E-02 -4.403827806E-01
 4.062999487E-01 -6.025445275E-02 -4.252763333E-01
 4.189189523E-01 -5.954333395E-02 -4.157478864E-01
 4.317070544E-01 -5.868487805E-02 -3.984297566E-01
 4.443455487E-01 -5.771711469E-02 -3.789757818E-01
 4.566846341E-01 -5.665083416E-02 -3.629154572E-01
 4.689148962E-01 -5.546970479E-02 -3.327242760E-01
 4.810312390E-01 -5.422066152E-02 -3.087411223E-01
 4.932473749E-01 -5.287721939E-02 -2.877119771E-01
 5.063949376E-01 -5.132618360E-02 -2.575428811E-01
 5.201446712E-01 -4.962997884E-02 -2.270088669E-01
 5.336509049E-01 -4.789214768E-02 -2.043060910E-01
 5.469814241E-01 -4.610459507E-02 -1.725310407E-01
 5.602411628E-01 -4.427462444E-02 -1.470793919E-01
 5.734624267E-01 -4.241057113E-02 -1.180241457E-01
 5.863619447E-01 -4.057353921E-02 -9.543575935E-02
 5.988954604E-01 -3.877384029E-02 -7.313549768E-02
 6.121669114E-01 -3.685594909E-02 -5.385505028E-02
 6.261906624E-01 -3.479577042E-02 -2.885984739E-02
 6.405314505E-01 -3.269685805E-02 -2.764926715E-03
 6.543456018E-01 -3.068387322E-02 1.272795545E-02
 6.677922606E-01 -2.872337867E-02 3.536861235E-02
 6.809407771E-01 -2.681141905E-02 5.213285410E-02
 6.935119033E-01 -2.499955054E-02 7.279525061E-02
 7.071255445E-01 -2.305683587E-02 8.602332714E-02
 7.209354639E-01 -2.108458709E-02 1.099972450E-01
 7.334008813E-01 -1.935497113E-02 1.263954149E-01
 7.457134128E-01 -1.766468678E-02 1.357881791E-01
 7.583234906E-01 -1.594327996E-02 1.602432025E-01
 7.712870836E-01 -1.424624538E-02 1.730126093E-01
 7.840052843E-01 -1.261746651E-02 1.851960244E-01
 7.963295579E-01 -1.106004324E-02 2.036504630E-01
 8.083607554E-01 -9.602888487E-03 2.198317158E-01
 8.196614683E-01 -8.271988714E-03 2.295100034E-01
 8.316102922E-01 -6.921529304E-03 2.496710217E-01
 8.442157209E-01 -5.591694731E-03 2.602615536E-01
 8.564319015E-01 -4.362415406E-03 2.757638054E-01
 8.682288527E-01 -3.267974243E-03 2.924346070E-01
 8.798792362E-01 -2.297966916E-03 3.013842205E-01
 8.923503458E-01 -1.388841891E-03 3.117632945E-01
 9.141165614E-01 -1.048900376E-04 3.289346090E-01
 9.440518320E-01 8.874067571E-04 3.342273932E-01
 9.567437470E-01 1.047974220E-03 3.360085900E-01
 9.702391922E-01 1.059286238E-03 3.401655773E-01
 9.833504558E-01 9.176694148E-04 3.528647742E-01
 9.948172569E-01 6.606914976E-04 4.108282606E-01
 -5.000000000E-01 9.500000000E-01 -4.741328194E-04
 -5.000000000E-01 9.000000000E-01 -1.330655679E-04
 -5.000000000E-01 8.500000000E-01 8.392092565E-04
 -5.000000000E-01 8.000000000E-01 2.537900689E-03
 -5.000000000E-01 7.500000000E-01 4.909184809E-03
 -5.000000000E-01 7.000000000E-01 8.081415508E-03
 -5.000000000E-01 6.500000000E-01 1.206711606E-02
 -5.000000000E-01 6.000000000E-01 1.691324622E-02
 -5.000000000E-01 5.500000000E-01 2.262541908E-02
 -5.000000000E-01 5.000000000E-01 2.917752426E-02
 -5.000000000E-01 4.500000000E-01 3.663059676E-02
 -5.000000000E-01 4.000000000E-01 4.461421312E-02
 -5.000000000E-01 3.500000000E-01 5.337206901E-02
 -5.000000000E-01 3.000000000E-01 6.218380571E-02
 -5.000000000E-01 2.500000000E-01 7.123436387E-02
 -5.000000000E-01 2.000000000E-01 7.984540753E-02
 -5.000000000E-01 1.500000000E-01 8.761086951E-02
 -5.000000000E-01 1.000000000E-01 9.423806475E-02
 -5.000000000E-01 5.000000000E-02 9.927267069E-02
 -5.000000000E-01 2.752242878E-12 1.025382356E-01
 -5.000000000E-01 -5.000000000E-02 1.037761430E-01
 -5.000000000E-01 -1.000000000E-01 1.029919501E-01
 -5.000000000E-01 -1.500000000E-01 1.005159165E-01
 -5.000000000E-01 -2.000000000E-01 9.653510141E-02
 -5.000000000E-01 -2.500000000E-01 9.142098408E-02
 -5.000000000E-01 -3.000000000E-01 8.556569448E-02
 -5.000000000E-01 -3.500000000E-01 7.931518734E-02
 -5.000000000E-01 -4.000000000E-01 7.293313724E-02
 -5.000000000E-01 -4.500000000E-01 6.666881602E-02
 -5.000000000E-01 -5.000000000E-01 6.057749858E-02
 -5.000000000E-01 -5.500000000E-01 5.495905677E-02
 -5.000000000E-01 -6.000000000E-01 4.962039706E-02
 -5.000000000E-01 -6.500000000E-01 4.483384434E-02
 -5.000000000E-01 -7.000000000E-01 4.029917917E-02
 -5.000000000E-01 -7.500000000E-01 3.617322871E-02
 -5.000000000E-01 -8.000000000E-01 3.222902914E-02
 -5.000000000E-01 -8.500000000E-01 2.833667874E-02
 -5.000000000E-01 -9.000000000E-01 2.404420477E-02
 -5.000000000E-01 -9.500000000E-01 1.787276041E-02
 -4.500000000E-01 -1.000000000E+00 1.631950085E-02
 -4.000000000E-01 -1.000000000E+00 2.112490642E-02
 -3.500000000E-01 -1.000000000E+00 2.331388316E-02
 -3.000000000E-01 -1.000000000E+00 2.423067079E-02
 -2.500000000E-01 -1.000000000E+00 2.448121306E-02
 -2.000000000E-01 -1.000000000E+00 2.382456977E-02
 -1.500000000E-01 -1.000000000E+00 2.249513045E-02
 -1.000000000E-01 -1.000000000E+00 2.043517175E-02
 -5.000000000E-02 -1.000000000E+00 1.788744549E-02
 -9.424683256E-13 -1.000000000E+00 1.483949413E-02
 5.000000000E-02 -1.000000000E+00 1.144281577E-02
 1.000000000E-01 -1.000000000E+00 7.827379656E-03
 1.500000000E-01 -1.000000000E+00 4.183032397E-03
 2.000000000E-01 -1.000000000E+00 8.222339133E-04
 2.500000000E-01 -1.000000000E+00 -2.454323063E-03
 3.000000000E-01 -1.000000000E+00 -5.193331830E-03
 3.500000000E-01 -1.000000000E+00 -7.445063805E-03
 4.000000000E-01 -1.000000000E+00 -8.966917245E-03
 4.500000000E-01 -1.000000000E+00 -9.768302881E-03
 5.000000000E-01 -1.000000000E+00 -9.766820653E-03
 5.500000000E-01 -1.000000000E+00 -9.014383772E-03
 6.000000000E-01 -1.000000000E+00 -7.518410270E-03
 6.500000000E-01 -1.000000000E+00 -5.332286023E-03
 7.000000000E-01 -1.000000000E+00 -2.736028228E-03
 7.500000000E-01 -1.000000000E+00 3.422218033E-04
 8.000000000E-01 -1.000000000E+00 3.691269460E-03
 8.500000000E-01 -1.000000000E+00 7.250615981E-03
 9.000000000E-01 -1.000000000E+00 1.091303457E-02
 9.500000000E-01 -1.000000000E+00 1.444798658E-02
 1.000000000E+00 -1.000000000E+00 1.763892943E-02
 1.050000000E+00 -1.000000000E+00 2.070579655E-02
 1.100000000E+00 -1.000000000E+00 2.344087454E-02
 1.150000000E+00 -1.000000000E+00 2.578724454E-02
 1.200000000E+00 -1.000000000E+00 2.775993573E-02
 1.250000000E+00 -1.000000000E+00 2.940596856E-02
 1.300000000E+00 -1.000000000E+00 3.068242501E-02
 1.350000000E+00 -1.000000000E+00 3.164145927E-02
 1.400000000E+00 -1.000000000E+00 3.229255764E-02
 1.450000000E+00 -1.000000000E+00 3.267900179E-02
 1.500000000E+00 -1.000000000E+00 3.284499166E-02
 1.550000000E+00 -1.000000000E+00 3.277867599E-02
 1.600000000E+00 -1.000000000E+00 3.257043557E-02
 1.650000000E+00 -1.000000000E+00 3.220014425E-02
 1.700000000E+00 -1.000000000E+00 3.172548593E-02
 1.750000000E+00 -1.000000000E+00 3.117975827E-02
 1.800000000E+00 -1.000000000E+00 3.057024322E-02
 1.850000000E+00 -1.000000000E+00 2.990411504E-02
 1.900000000E+00 -1.000000000E+00 2.920737183E-02
 1.950000000E+00 -1.000000000E+00 2.850706421E-02
 2.000000000E+00 -1.000000000E+00 2.778207025E-02
 2.050000000E+00 -1.000000000E+00 2.709579444E-02
 2.100000000E+00 -1.000000000E+00 2.639054780E-02
 2.150000000E+00 -1.000000000E+00 2.570339960E-02
 2.200000000E+00 -1.000000000E+00 2.505166431E-02
 2.250000000E+00 -1.000000000E+00 2.445153829E-02
 2.300000000E+00 -1.000000000E+00 2.383210427E-02
 2.350000000E+00 -1.000000000E+00 2.329265345E-02
 2.400000000E+00 -1.000000000E+00 2.278267474E-02
 2.450000000E+00 -1.000000000E+00 2.223648705E-02
 2.500000000E+00 -1.000000000E+00 2.184920157E-02
 2.550000000E+00 -1.000000000E+00 2.135659363E-02
 2.600000000E+00 -1.000000000E+00 2.098339882E-02
 2.650000000E+00 -1.000000000E+00 2.064908603E-02
 2.700000000E+00 -1.000000000E+00 2.034050573E-02
 2.750000000E+00 -1.000000000E+00 2.003322689E-02
 2.800000000E+00 -1.000000000E+00 1.979080734E-02
 2.850000000E+00 -1.000000000E+00 1.950726244E-02
 2.900000000E+00 -1.000000000E+00 1.928338452E-02
 2.950000000E+00 -1.000000000E+00 1.900082852E-02
 3.000000000E+00 -1.000000000E+00 1.877853035E-02
 3.050000000E+00 -1.000000000E+00 1.850184662E-02
 3.100000000E+00 -1.000000000E+00 1.824893811E-02
 3.150000000E+00 -1.000000000E+00 1.784655086E-02
 3.200000000E+00 -1.000000000E+00 1.743998210E-02
 3.250000000E+00 -1.000000000E+00 1.681111014E-02
 3.300000000E+00 -1.000000000E+00 1.607164245E-02
 3.350000000E+00 -1.000000000E+00 1.499172918E-02
 3.400000000E+00 -1.000000000E+00 1.335775177E-02
 3.450000000E+00 -1.000000000E+00 1.071627591E-02
 3.500000000E+00 -9.500000000E-01 6.996658457E-03
 3.500000000E+00 -9.000000000E-01 8.493015013E-03
 3.500000000E+00 -8.500000000E-01 9.758937764E-03
 3.500000000E+00 -8.000000000E-01 1.118097777E-02
 3.500000000E+00 -7.500000000E-01 1.270452057E-02
 3.500000000E+00 -7.000000000E-01 1.414053302E-02
 3.500000000E+00 -6.500000000E-01 1.571377353E-02
 3.500000000E+00 -6.000000000E-01 1.744810550E-02
 3.500000000E+00 -5.500000000E-01 1.928011546E-02
 3.500000000E+00 -5.000000000E-01 2.124204296E-02
 3.500000000E+00 -4.500000000E-01 2.332826961E-02
 3.500000000E+00 -4.000000000E-01 2.547752139E-02
 3.500000000E+00 -3.500000000E-01 2.780506242E-02
 3.500000000E+00 -3.000000000E-01 3.010734388E-02
 3.500000000E+00 -2.500000000E-01 3.181286900E-02
 3.500000000E+00 -2.000000000E-01 3.268758351E-02
 3.500000000E+00 -1.500000000E-01 3.269023006E-02
 3.500000000E+00 -1.000000000E-01 3.220517050E-02
 3.500000000E+00 -5.000000000E-02 3.144031337E-02
 3.500000000E+00 -2.752242878E-12 3.078809085E-02
 3.500000000E+00 5.000000000E-02 3.014561881E-02
 3.500000000E+00 1.000000000E-01 2.913146855E-02
 3.500000000E+00 1.500000000E-01 2.718503178E-02
 3.500000000E+00 2.000000000E-01 2.468346201E-02
 3.500000000E+00 2.500000000E-01 2.163350956E-02
 3.500000000E+00 3.000000000E-01 1.860026043E-02
 3.500000000E+00 3.500000000E-01 1.553514298E-02
 3.500000000E+00 4.000000000E-01 1.280976607E-02
 3.500000000E+00 4.500000000E-01 1.022017391E-02
 3.500000000E+00 5.000000000E-01 7.894661678E-03
 3.500000000E+00 5.500000000E-01 5.868098109E-03
 3.500000000E+00 6.000000000E-01 4.511798889E-03
 3.500000000E+00 6.500000000E-01 3.905792730E-03
 3.500000000E+00 7.000000000E-01 3.709474640E-03
 3.500000000E+00 7.500000000E-01 3.225337903E-03
 3.500000000E+00 8.000000000E-01 6.111190669E-04
 3.500000000E+00 8.500000000E-01 -4.592635491E-03
 3.500000000E+00 9.000000000E-01 -1.172314809E-02
 3.500000000E+00 9.500000000E-01 -2.141061096E-02
 3.450000000E+00 1.000000000E+00 -1.277362388E-02
 3.400000000E+00 1.000000000E+00 -5.342248689E-03
 3.350000000E+00 1.000000000E+00 -1.804957081E-03
 3.300000000E+00 1.000000000E+00 -4.219727434E-05
 3.250000000E+00 1.000000000E+00 7.654349438E-04
 3.200000000E+00 1.000000000E+00 1.315286898E-03
 3.150000000E+00 1.000000000E+00 1.548467856E-03
 3.100000000E+00 1.000000000E+00 1.537467281E-03
 3.050000000E+00 1.000000000E+00 1.219921104E-03
 3.000000000E+00 1.000000000E+00 1.132212588E-03
 2.950000000E+00 1.000000000E+00 5.604747451E-04
 2.900000000E+00 1.000000000E+00 3.371702632E-05
 2.850000000E+00 1.000000000E+00 -5.342033911E-04
 2.800000000E+00 1.000000000E+00 -1.238859964E-03
 2.750000000E+00 1.000000000E+00 -2.000006593E-03
 2.700000000E+00 1.000000000E+00 -2.782008687E-03
 2.650000000E+00 1.000000000E+00 -3.827013572E-03
 2.600000000E+00 1.000000000E+00 -4.738618219E-03
 2.550000000E+00 1.000000000E+00 -5.849849609E-03
 2.500000000E+00 1.000000000E+00 -6.669607706E-03
 2.450000000E+00 1.000000000E+00 -8.040292276E-03
 2.400000000E+00 1.000000000E+00 -9.110187285E-03
 2.350000000E+00 1.000000000E+00 -1.064105874E-02
 2.300000000E+00 1.000000000E+00 -1.187144105E-02
 2.250000000E+00 1.000000000E+00 -1.353057984E-02
 2.200000000E+00 1.000000000E+00 -1.506449623E-02
 2.150000000E+00 1.000000000E+00 -1.669654111E-02
 2.100000000E+00 1.000000000E+00 -1.861589182E-02
 2.050000000E+00 1.000000000E+00 -2.054602078E-02
 2.000000000E+00 1.000000000E+00 -2.268646440E-02
 1.950000000E+00 1.000000000E+00 -2.502971275E-02
 1.900000000E+00 1.000000000E+00 -2.735113310E-02
 1.850000000E+00 1.000000000E+00 -3.004671158E-02
 1.800000000E+00 1.000000000E+00 -3.278779635E-02
 1.750000000E+00 1.000000000E+00 -3.586500743E-02
 1.700000000E+00 1.000000000E+00 -3.918542618E-02
 1.650000000E+00 1.000000000E+00 -4.253170738E-02
 1.600000000E+00 1.000000000E+00 -4.637611605E-02
 1.550000000E+00 1.000000000E+00 -5.001638438E-02
 1.500000000E+00 1.000000000E+00 -5.436021862E-02
 1.450000000E+00 1.000000000E+00 -5.899773887E-02
 1.400000000E+00 1.000000000E+00 -6.359187074E-02
 1.350000000E+00 1.000000000E+00 -6.884857523E-02
 1.300000000E+00 1.000000000E+00 -7.357478456E-02
 1.250000000E+00 1.000000000E+00 -7.922300922E-02
 1.200000000E+00 1.000000000E+00 -8.461396396E-02
 1.150000000E+00 1.000000000E+00 -9.003004379E-02
 1.100000000E+00 1.000000000E+00 -9.526893304E-02
 1.050000000E+00 1.000000000E+00 -1.006856265E-01
 1.000000000E+00 1.000000000E+00 -1.055548557E-01
 9.500000000E-01 1.000000000E+00 -1.101495894E-01
 9.000000000E-01 1.000000000E+00 -1.138862180E-01
 8.500000000E-01 1.000000000E+00 -1.171162850E-01
 8.000000000E-01 1.000000000E+00 -1.189641611E-01
 7.500000000E-01 1.000000000E+00 -1.204113662E-01
 7.000000000E-01 1.000000000E+00 -1.204565908E-01
 6.500000000E-01 1.000000000E+00 -1.197987154E-01
 6.000000000E-01 1.000000000E+00 -1.174144968E-01
 5.500000000E-01 1.000000000E+00 -1.147642316E-01
 5.000000000E-01 1.000000000E+00 -1.092206539E-01
 4.500000000E-01 1.000000000E+00 -1.048333731E-01
 4.000000000E-01 1.000000000E+00 -9.744599392E-02
 3.500000000E-01 1.000000000E+00 -9.110107382E-02
 3.000000000E-01 1.000000000E+00 -8.334714395E-02
 2.500000000E-01 1.000000000E+00 -7.512415391E-02
 2.000000000E-01 1.000000000E+00 -6.689677767E-02
 1.500000000E-01 1.000000000E+00 -5.846983552E-02
 1.000000000E-01 1.000000000E+00 -5.030392401E-02
 5.000000000E-02 1.000000000E+00 -4.241497928E-02
 1.733724275E-12 1.000000000E+00 -3.488016029E-02
 -5.000000000E-02 1.000000000E+00 -2.831191718E-02
 -1.000000000E-01 1.000000000E+00 -2.195201756E-02
 -1.500000000E-01 1.000000000E+00 -1.653598550E-02
 -2.000000000E-01 1.000000000E+00 -1.186164906E-02
 -2.500000000E-01 1.000000000E+00 -8.124331542E-03
 -3.000000000E-01 1.000000000E+00 -5.162869613E-03
 -3.500000000E-01 1.000000000E+00 -3.043558847E-03
 -4.000000000E-01 1.000000000E+00 -1.593266831E-03
 -4.500000000E-01 1.000000000E+00 -7.497400188E-04
 1.975000000E+00 -9.566987298E-01 2.785655733E-02
 1.975431158E+00 9.568583922E-01 -2.259513472E-02
 9.168581704E-01 -4.357805609E-03 3.228496885E-01
 8.419590143E-01 -1.130628603E-02 2.539512720E-01
 7.697081859E-01 -2.065724139E-02 1.675915244E-01
 6.976046622E-01 -2.925324126E-02 7.340608082E-02
 9.860145063E-01 -4.034216221E-03 3.550149245E-01
 6.304689907E-01 -4.108851242E-02 -2.102916644E-02
 5.575589552E-01 -5.043151770E-02 -1.503285347E-01
 4.973385034E-01 -5.835508356E-02 -2.717986512E-01
 4.421409879E-01 -6.405490047E-02 -3.704837358E-01
 3.845327943E-01 -6.606423844E-02 -4.358398168E-01