TITLE     = "Visualization of the solution"
VARIABLES = "x"
"y"
"Pressure_Coefficient"
ZONE T="Zone"
 STRANDID=0, SOLUTIONTIME=0
 Nodes=12191, Elements=23801, ZONETYPE=FEQuadrilateral
 DATAPACKING=POINT
 DT=(DOUBLE DOUBLE DOUBLE )
 9.998950362E-01 5.123080336E-04 2.429941864E-01
 9.875630140E-01 2.939855913E-03 1.730435050E-01
 9.747591615E-01 5.384958815E-03 1.144408083E-01
 9.589756131E-01 8.447701111E-03 5.223031969E-02
 9.435452223E-01 1.130694430E-02 3.143677322E-02
 9.292345643E-01 1.406239346E-02 -9.488301754E-03
 9.174476862E-01 1.631545275E-02 -3.888171630E-02
 9.054727554E-01 1.861253195E-02 -7.949100508E-02
 8.935531378E-01 2.079784870E-02 -9.720935510E-02
 8.815272450E-01 2.298904769E-02 -1.236658151E-01
 8.693699241E-01 2.514894865E-02 -1.549810906E-01
 8.567398787E-01 2.724687755E-02 -1.484979141E-01
 8.444820046E-01 2.935152128E-02 -1.788528109E-01
 8.335081935E-01 3.118865751E-02 -2.023377599E-01
 8.219501376E-01 3.304399550E-02 -2.128571957E-01
 8.093101978E-01 3.502951190E-02 -2.238476073E-01
 7.966374159E-01 3.700315207E-02 -2.465846748E-01
 7.842347026E-01 3.885502368E-02 -2.533299366E-01
 7.719611526E-01 4.067783058E-02 -2.705731855E-01
 7.602983117E-01 4.237248749E-02 -2.836113530E-01
 7.473561764E-01 4.422745481E-02 -3.060613369E-01
 7.335179448E-01 4.612972587E-02 -3.161353443E-01
 7.230450511E-01 4.755973816E-02 -3.360972060E-01
 7.121140361E-01 4.899531603E-02 -3.460818353E-01
 7.007152438E-01 5.046340451E-02 -3.610441305E-01
 6.874760985E-01 5.211419240E-02 -3.775415265E-01
 6.746540070E-01 5.365777016E-02 -3.958742223E-01
 6.645791531E-01 5.482058600E-02 -4.033658982E-01
 6.534355283E-01 5.608562753E-02 -4.243511749E-01
 6.421307325E-01 5.729499087E-02 -4.325293210E-01
 6.304211617E-01 5.850945041E-02 -4.556956604E-01
 6.190542579E-01 5.958158895E-02 -4.466707184E-01
 6.087533236E-01 6.057961658E-02 -4.779169318E-01
 5.962367058E-01 6.165758520E-02 -4.819892542E-01
 5.846399069E-01 6.260186434E-02 -4.896204950E-01
 5.712307096E-01 6.362297386E-02 -5.039061964E-01
 5.587036610E-01 6.448717415E-02 -5.110081463E-01
 5.462389588E-01 6.527386606E-02 -5.210737949E-01
 5.353166461E-01 6.589033455E-02 -5.221586612E-01
 5.236007571E-01 6.650627404E-02 -5.359573834E-01
 5.110421777E-01 6.705066562E-02 -5.335303488E-01
 4.999310076E-01 6.748115271E-02 -5.376553311E-01
 4.864335060E-01 6.790835410E-02 -5.370198747E-01
 4.730900824E-01 6.825118512E-02 -5.403614603E-01
 4.588645101E-01 6.850514561E-02 -5.356668540E-01
 4.452275932E-01 6.868012995E-02 -5.402420998E-01
 4.322300553E-01 6.875035912E-02 -5.383423737E-01
 4.192298949E-01 6.873327494E-02 -5.325702396E-01
 4.068891704E-01 6.865657121E-02 -5.316707983E-01
 3.944920897E-01 6.850564480E-02 -5.292448036E-01
 3.822887838E-01 6.828442961E-02 -5.227352061E-01
 3.708207607E-01 6.803446263E-02 -5.256981959E-01
 3.573466539E-01 6.763414294E-02 -5.153665740E-01
 3.447788358E-01 6.720796227E-02 -5.150880873E-01
 3.317713737E-01 6.667787582E-02 -5.078390762E-01
 3.208815753E-01 6.619177014E-02 -5.095838066E-01
 3.081327081E-01 6.552321464E-02 -4.978064373E-01
 2.949188352E-01 6.477043033E-02 -4.940199045E-01
 2.809889317E-01 6.388654560E-02 -4.915704291E-01
 2.686065733E-01 6.300831586E-02 -4.826545039E-01
 2.567695975E-01 6.210521236E-02 -4.769386810E-01
 2.443573773E-01 6.108020619E-02 -4.698123765E-01
 2.319939882E-01 5.998450890E-02 -4.654857640E-01
 2.198240757E-01 5.881763995E-02 -4.586188907E-01
 2.080678791E-01 5.760575086E-02 -4.498396108E-01
 1.965665966E-01 5.634287745E-02 -4.405525872E-01
 1.845237017E-01 5.494149774E-02 -4.359931502E-01
 1.728362888E-01 5.347625539E-02 -4.241862403E-01
 1.616431177E-01 5.199410021E-02 -4.161439542E-01
 1.498725861E-01 5.033381283E-02 -4.082565438E-01
 1.393374056E-01 4.874252155E-02 -3.925694090E-01
 1.279397756E-01 4.693470895E-02 -3.852436862E-01
 1.166720837E-01 4.501870275E-02 -3.735158582E-01
 1.062550098E-01 4.312763736E-02 -3.583442067E-01
 9.663485736E-02 4.127333313E-02 -3.443764529E-01
 8.568973839E-02 3.902224824E-02 -3.265001195E-01
 7.390299439E-02 3.640524298E-02 -3.108180020E-01
 6.395826489E-02 3.399847448E-02 -2.859712242E-01
 5.398796499E-02 3.138191253E-02 -2.570248239E-01
 4.518887028E-02 2.886462398E-02 -2.312397560E-01
 3.759279475E-02 2.649242803E-02 -2.013931147E-01
 3.087146580E-02 2.419140562E-02 -1.638760791E-01
 2.518194355E-02 2.206396125E-02 -1.392804710E-01
 2.104774676E-02 2.037487924E-02 -9.896759031E-02
 1.708601043E-02 1.860674843E-02 -6.524054008E-02
 1.411549561E-02 1.717224345E-02 -2.213880897E-02
 1.136090048E-02 1.571817324E-02 2.004758053E-02
 9.310513735E-03 1.453934517E-02 6.281327314E-02
 7.514106110E-03 1.342062559E-02 9.891697483E-02
 5.876730662E-03 1.231020782E-02 1.709077293E-01
 3.727368079E-03 1.066337712E-02 2.720275616E-01
 1.871352084E-03 8.976470679E-03 3.696659327E-01
 2.939981059E-04 7.189465221E-03 5.892592873E-01
 -1.211740193E-03 4.739236552E-03 8.537177018E-01
 -1.843763399E-03 2.870058641E-03 1.026622735E+00
 -2.032313496E-03 1.414228347E-03 1.098945077E+00
 -1.934324275E-03 -1.966932905E-04 1.114259845E+00
 -1.500257989E-03 -1.860774821E-03 1.017242615E+00
 -5.534521770E-04 -3.839053446E-03 8.690767430E-01
 9.002005681E-04 -5.869891495E-03 6.985981168E-01
 2.911837539E-03 -7.974195294E-03 5.079338290E-01
 4.727742635E-03 -9.522415698E-03 3.723820610E-01
 6.828836165E-03 -1.106806844E-02 2.902933173E-01
 8.468907326E-03 -1.215115841E-02 2.071932696E-01
 1.054075174E-02 -1.339153573E-02 1.583059201E-01
 1.291860733E-02 -1.469139569E-02 1.087730074E-01
 1.621333696E-02 -1.631861925E-02 5.658763250E-02
 1.919643767E-02 -1.766349934E-02 8.166623968E-04
 2.309794538E-02 -1.926182210E-02 -2.935488621E-02
 2.848814614E-02 -2.125979401E-02 -6.691879880E-02
 3.426490352E-02 -2.318336070E-02 -1.085595206E-01
 4.140249267E-02 -2.533044480E-02 -1.275706156E-01
 4.886692390E-02 -2.735857293E-02 -1.546601503E-01
 5.783475190E-02 -2.956723049E-02 -1.685900132E-01
 6.649033725E-02 -3.153052554E-02 -1.891366025E-01
 7.672826946E-02 -3.366287053E-02 -2.018886156E-01
 8.662386984E-02 -3.556334600E-02 -2.134643061E-01
 9.674982727E-02 -3.737521917E-02 -2.255142604E-01
 1.076991409E-01 -3.920932487E-02 -2.369292840E-01
 1.187802479E-01 -4.094123468E-02 -2.458460140E-01
 1.302945912E-01 -4.263401404E-02 -2.571430247E-01
 1.407585740E-01 -4.407989979E-02 -2.668771060E-01
 1.518832147E-01 -4.553514346E-02 -2.774953175E-01
 1.639602035E-01 -4.702277854E-02 -2.887898271E-01
 1.756312698E-01 -4.836941883E-02 -2.997546321E-01
 1.873759180E-01 -4.963530228E-02 -3.078215272E-01
 1.979959309E-01 -5.071931332E-02 -3.201796955E-01
 2.091668844E-01 -5.178531632E-02 -3.299404627E-01
 2.213943154E-01 -5.287312344E-02 -3.422621483E-01
 2.337379158E-01 -5.386894569E-02 -3.490552312E-01
 2.460439950E-01 -5.478399247E-02 -3.599207918E-01
 2.585609555E-01 -5.563950166E-02 -3.760875006E-01
 2.696171105E-01 -5.629286543E-02 -3.807481418E-01
 2.823694348E-01 -5.697067454E-02 -3.937058349E-01
 2.947861850E-01 -5.752010271E-02 -4.000606994E-01
 3.076287508E-01 -5.799005181E-02 -4.101969316E-01
 3.195197880E-01 -5.832714215E-02 -4.202786252E-01
 3.321221173E-01 -5.855397880E-02 -4.202399265E-01
 3.430111110E-01 -5.867300183E-02 -4.299784529E-01
 3.543807268E-01 -5.868644267E-02 -4.291926583E-01
 3.653678000E-01 -5.860997364E-02 -4.331417222E-01
 3.760395050E-01 -5.842390656E-02 -4.261855407E-01
 3.875728250E-01 -5.813052505E-02 -4.228324703E-01
 4.008595645E-01 -5.767046288E-02 -4.199115401E-01
 4.132787883E-01 -5.708117783E-02 -4.056258022E-01
 4.262522757E-01 -5.633268133E-02 -3.898045596E-01
 4.390264153E-01 -5.547558516E-02 -3.759890834E-01
 4.513786137E-01 -5.451669917E-02 -3.566110868E-01
 4.634727538E-01 -5.346637964E-02 -3.355646755E-01
 4.759386182E-01 -5.227124691E-02 -3.095277615E-01
 4.875163734E-01 -5.107984319E-02 -2.869885301E-01
 5.004659891E-01 -4.967747629E-02 -2.680386570E-01
 5.144200325E-01 -4.802355543E-02 -2.314794033E-01
 5.280345082E-01 -4.634748027E-02 -2.066606646E-01
 5.413668156E-01 -4.461113736E-02 -1.721276161E-01
 5.543527603E-01 -4.289964214E-02 -1.501967164E-01
 5.678006411E-01 -4.107787088E-02 -1.241403382E-01
 5.809511542E-01 -3.925707564E-02 -9.936898986E-02
 5.932093263E-01 -3.754481673E-02 -8.036592717E-02
 6.057227850E-01 -3.575346619E-02 -5.392232147E-02
 6.198118925E-01 -3.371516988E-02 -2.560930920E-02
 6.345338821E-01 -3.163175657E-02 -9.799077318E-03
 6.492109299E-01 -2.950783633E-02 1.868602329E-02
 6.623132229E-01 -2.765175514E-02 3.289438667E-02
 6.757717729E-01 -2.572828345E-02 5.544670943E-02
 6.884161830E-01 -2.394883893E-02 7.061253274E-02
 7.005829811E-01 -2.222959511E-02 9.196517335E-02
 7.153035998E-01 -2.021077834E-02 1.054364842E-01
 7.284016609E-01 -1.841581054E-02 1.244959908E-01
 7.401503325E-01 -1.683075726E-02 1.399715806E-01
 7.530586123E-01 -1.510100719E-02 1.611231859E-01
 7.654522061E-01 -1.351198461E-02 1.726673413E-01
 7.784879804E-01 -1.186935510E-02 1.902556591E-01
 7.904792428E-01 -1.040119305E-02 2.061387329E-01
 8.034439683E-01 -8.896417916E-03 2.161927598E-01
 8.145123720E-01 -7.636613213E-03 2.318285974E-01
 8.259630799E-01 -6.384831853E-03 2.457071878E-01
 8.384233117E-01 -5.081616342E-03 2.624409811E-01
 8.507326841E-01 -3.895581467E-03 2.743282394E-01
 8.627638221E-01 -2.813167172E-03 2.894414425E-01
 8.741858006E-01 -1.888779923E-03 3.007777439E-01
 8.860017061E-01 -1.052565407E-03 3.085593029E-01
 8.988484740E-01 -2.670085814E-04 3.176170422E-01
 9.089538455E-01 2.414487681E-04 3.228719053E-01
 9.189151525E-01 6.548535312E-04 3.276504157E-01
 9.282740355E-01 9.440028807E-04 3.307668084E-01
 9.368721247E-01 1.137992367E-03 3.325583923E-01
 9.483068585E-01 1.288914820E-03 3.324712493E-01
 9.617583752E-01 1.315805595E-03 3.332515473E-01
 9.762042761E-01 1.172208460E-03 3.399188970E-01
 9.889596701E-01 8.870343445E-04 3.590012309E-01
 -5.000000000E-01 -1.000000000E+00 1.390729592E-02
 3.500000000E+00 -1.000000000E+00 8.291911324E-03
 3.500000000E+00 1.000000000E+00 -2.381902418E-02
 -5.000000000E-01 1.000000000E+00 -1.161118273E-03
 9.937290251E-01 1.726081973E-03 2.560744550E-01
 9.811610878E-01 4.162407364E-03 1.400223445E-01
 9.668673873E-01 6.916329963E-03 7.818003249E-02
 9.512604177E-01 9.877322707E-03 4.513820290E-02
 9.363898933E-01 1.268466888E-02 8.684028886E-03
 9.233411252E-01 1.518892311E-02 -2.433026391E-02
 9.114602208E-01 1.746399235E-02 -6.273147672E-02
 8.995129466E-01 1.970519032E-02 -8.660882200E-02
 8.875401914E-01 2.189344820E-02 -1.113872278E-01
 8.754485846E-01 2.406899817E-02 -1.436960010E-01
 8.630549014E-01 2.619791310E-02 -1.455416610E-01
 8.506109416E-01 2.829919942E-02 -1.650301913E-01
 8.389950991E-01 3.027008940E-02 -1.931273344E-01
 8.277291656E-01 3.211632650E-02 -2.070469213E-01
 8.156301677E-01 3.403675370E-02 -2.168691765E-01
 8.029738069E-01 3.601633199E-02 -2.371542327E-01
 7.904360592E-01 3.792908788E-02 -2.480983414E-01
 7.780979276E-01 3.976642713E-02 -2.621278495E-01
 7.661297321E-01 4.152515903E-02 -2.766611168E-01
 7.538272440E-01 4.329997115E-02 -2.964510234E-01
 7.404370606E-01 4.517859034E-02 -3.089364046E-01
 7.282814980E-01 4.684473202E-02 -3.279760996E-01
 7.175795436E-01 4.827752709E-02 -3.403632430E-01
 7.064146399E-01 4.972936027E-02 -3.542828635E-01
 6.940956712E-01 5.128879845E-02 -3.694177056E-01
 6.810650527E-01 5.288598128E-02 -3.864232961E-01
 6.696165800E-01 5.423917808E-02 -3.983396713E-01
 6.590073407E-01 5.545310676E-02 -4.158333789E-01
 6.477831304E-01 5.669030920E-02 -4.274623403E-01
 6.362759471E-01 5.790222064E-02 -4.470463243E-01
 6.247377098E-01 5.904551968E-02 -4.449095904E-01
 6.139037907E-01 6.008060277E-02 -4.693729417E-01
 6.024950147E-01 6.111860089E-02 -4.783030058E-01
 5.904383063E-01 6.212972477E-02 -4.859890318E-01
 5.779353082E-01 6.311241910E-02 -4.972854426E-01
 5.649671853E-01 6.405507401E-02 -5.073366260E-01
 5.524713099E-01 6.488052011E-02 -5.158246750E-01
 5.407778025E-01 6.558210030E-02 -5.203034637E-01
 5.294587016E-01 6.619830430E-02 -5.323615322E-01
 5.173214674E-01 6.677846983E-02 -5.323038843E-01
 5.054865927E-01 6.726590917E-02 -5.380663329E-01
 4.931822568E-01 6.769475341E-02 -5.367509100E-01
 4.797617942E-01 6.807976961E-02 -5.405370855E-01
 4.659772962E-01 6.837816536E-02 -5.364006801E-01
 4.520460516E-01 6.859263778E-02 -5.385939514E-01
 4.387288243E-01 6.871524453E-02 -5.397421685E-01
 4.257299751E-01 6.874181703E-02 -5.340427725E-01
 4.130595326E-01 6.869492307E-02 -5.324825363E-01
 4.006906301E-01 6.858110800E-02 -5.306672832E-01
 3.883904368E-01 6.839503720E-02 -5.239792065E-01
 3.765547723E-01 6.815944612E-02 -5.278000049E-01
 3.640837073E-01 6.783430278E-02 -5.185093206E-01
 3.510627449E-01 6.742105260E-02 -5.167419888E-01
 3.382751048E-01 6.694291905E-02 -5.089305128E-01
 3.263264745E-01 6.643482298E-02 -5.122286256E-01
 3.145071417E-01 6.585749239E-02 -5.025065274E-01
 3.015257716E-01 6.514682248E-02 -4.969143752E-01
 2.879538834E-01 6.432848796E-02 -4.927500830E-01
 2.747977525E-01 6.344743073E-02 -4.859719021E-01
 2.626880854E-01 6.255676411E-02 -4.803134400E-01
 2.505634874E-01 6.159270927E-02 -4.731985610E-01
 2.381756827E-01 6.053235754E-02 -4.681375936E-01
 2.259090319E-01 5.940107442E-02 -4.620098009E-01
 2.139459774E-01 5.821169540E-02 -4.539445817E-01
 2.023172379E-01 5.697431415E-02 -4.454192317E-01
 1.905451491E-01 5.564218760E-02 -4.392315596E-01
 1.786799952E-01 5.420887657E-02 -4.293065110E-01
 1.672397032E-01 5.273517780E-02 -4.213966873E-01
 1.557578519E-01 5.116395652E-02 -4.115472250E-01
 1.446049958E-01 4.953816719E-02 -4.002907553E-01
 1.336385906E-01 4.783861525E-02 -3.904209429E-01
 1.223059297E-01 4.597670585E-02 -3.789536708E-01
 1.114635468E-01 4.407317005E-02 -3.671720304E-01
 9.116229787E-02 4.014779069E-02 -3.392746980E-01
 7.979636639E-02 3.771374561E-02 -3.174380692E-01
 6.893062964E-02 3.520185873E-02 -2.994459256E-01
 5.897311494E-02 3.269019350E-02 -2.778037382E-01
 7.160930336E-02 -3.259669803E-02 -1.991811031E-01
 9.168684855E-02 -3.646928258E-02 -2.232899775E-01
 1.022244841E-01 -3.829227202E-02 -2.303447110E-01
 1.132396944E-01 -4.007527977E-02 -2.424735831E-01
 1.245374195E-01 -4.178762436E-02 -2.518890789E-01
 1.355265826E-01 -4.335695691E-02 -2.633080597E-01
 1.463208944E-01 -4.480752163E-02 -2.712883667E-01
 1.579217091E-01 -4.627896100E-02 -2.826466721E-01
 1.697957367E-01 -4.769609869E-02 -2.947247286E-01
 1.815035939E-01 -4.900236055E-02 -3.041917462E-01
 1.926859245E-01 -5.017730780E-02 -3.143725858E-01
 2.035814077E-01 -5.125231482E-02 -3.244652753E-01
 2.152805999E-01 -5.232921988E-02 -3.348559093E-01
 2.275661156E-01 -5.337103456E-02 -3.467739924E-01
 2.398909554E-01 -5.432646908E-02 -3.542899203E-01
 2.523024753E-01 -5.521174707E-02 -3.666469142E-01
 2.640890330E-01 -5.596618354E-02 -3.811803337E-01
 2.759932727E-01 -5.663176998E-02 -3.845932870E-01
 2.885778099E-01 -5.724538863E-02 -3.980023315E-01
 3.012074679E-01 -5.775507726E-02 -4.041231187E-01
 3.135742694E-01 -5.815859698E-02 -4.156753307E-01
 3.258209527E-01 -5.844056047E-02 -4.211712763E-01
 3.375666142E-01 -5.861349031E-02 -4.250863018E-01
 3.486959189E-01 -5.867972225E-02 -4.298714546E-01
 3.598742634E-01 -5.864820816E-02 -4.309366637E-01
 3.707036525E-01 -5.851694010E-02 -4.315110274E-01
 3.818061650E-01 -5.827721581E-02 -4.230020461E-01
 3.942161947E-01 -5.790049396E-02 -4.189336914E-01
 4.070691764E-01 -5.737582035E-02 -4.159550268E-01
 4.197655320E-01 -5.670692958E-02 -3.978470657E-01
 4.326393455E-01 -5.590413325E-02 -3.829787066E-01
 4.452025145E-01 -5.499614216E-02 -3.676134229E-01
 4.574256837E-01 -5.399153940E-02 -3.468894371E-01
 4.697056860E-01 -5.286881328E-02 -3.237374130E-01
 4.817274958E-01 -5.167554505E-02 -2.991837836E-01
 4.939911813E-01 -5.037865974E-02 -2.756139685E-01
 5.074430108E-01 -4.885051586E-02 -2.520626855E-01
 5.212272704E-01 -4.718551785E-02 -2.185202199E-01
 5.347006619E-01 -4.547930881E-02 -1.911062202E-01
 5.478597879E-01 -4.375538975E-02 -1.600836594E-01
 5.610767007E-01 -4.198875651E-02 -1.376249812E-01
 5.743758976E-01 -4.016747326E-02 -1.121983050E-01
 5.870802402E-01 -3.840094618E-02 -8.905445833E-02
 5.994660556E-01 -3.664914146E-02 -6.857090607E-02
 6.127673388E-01 -3.473431803E-02 -4.091445377E-02
 6.271728873E-01 -3.267346323E-02 -1.573786163E-02
 6.418724060E-01 -3.056979645E-02 2.622788205E-03
 6.557620764E-01 -2.857979573E-02 2.781280038E-02
 6.690424979E-01 -2.669001929E-02 4.306562262E-02
 6.820939779E-01 -2.483856119E-02 6.370940583E-02
 6.944995821E-01 -2.308921702E-02 8.009824572E-02
 7.079432905E-01 -2.122018673E-02 9.915986670E-02
 7.218526304E-01 -1.931329444E-02 1.148776138E-01
 7.342759967E-01 -1.762328390E-02 1.325176342E-01
 7.466044724E-01 -1.596588222E-02 1.492547769E-01
 7.592554092E-01 -1.430649590E-02 1.683768586E-01
 7.719700933E-01 -1.269066986E-02 1.804955909E-01
 7.844836116E-01 -1.113527408E-02 1.978469994E-01
 7.969616055E-01 -9.648805484E-03 2.121785188E-01
 8.089781702E-01 -8.266515564E-03 2.237851951E-01
 8.202377260E-01 -7.010722533E-03 2.383556269E-01
 8.321931958E-01 -5.733224098E-03 2.527721801E-01
 8.445779979E-01 -4.488598905E-03 2.690185185E-01
 8.567482531E-01 -3.354374319E-03 2.813226860E-01
 8.684748113E-01 -2.350973547E-03 2.953199951E-01
 8.800937533E-01 -1.470672665E-03 3.047738631E-01
 8.924250901E-01 -6.597869942E-04 3.126935847E-01
 9.039011598E-01 -1.277990668E-05 3.233962136E-01
 9.425894916E-01 1.213453594E-03 3.310434810E-01
 9.550326169E-01 1.302360208E-03 3.310414256E-01
 9.689813256E-01 1.244007028E-03 3.345795436E-01
 9.825819731E-01 1.029621402E-03 3.467280027E-01
 9.944273531E-01 6.996711891E-04 4.232830230E-01
 -5.000000000E-01 9.500000000E-01 -1.436179475E-03
 -5.000000000E-01 9.000000000E-01 -1.404145634E-03
 -5.000000000E-01 8.500000000E-01 -6.034855896E-04
 -5.000000000E-01 8.000000000E-01 9.403737070E-04
 -5.000000000E-01 7.500000000E-01 3.245007651E-03
 -5.000000000E-01 7.000000000E-01 6.320651681E-03
 -5.000000000E-01 6.500000000E-01 1.030786988E-02
 -5.000000000E-01 6.000000000E-01 1.514810422E-02
 -5.000000000E-01 5.500000000E-01 2.082192053E-02
 -5.000000000E-01 5.000000000E-01 2.745674611E-02
 -5.000000000E-01 4.500000000E-01 3.483090920E-02
 -5.000000000E-01 4.000000000E-01 4.301997557E-02
 -5.000000000E-01 3.500000000E-01 5.174677348E-02
 -5.000000000E-01 3.000000000E-01 6.068256357E-02
 -5.000000000E-01 2.500000000E-01 6.974175093E-02
 -5.000000000E-01 2.000000000E-01 7.846989373E-02
 -5.000000000E-01 1.500000000E-01 8.634895601E-02
 -5.000000000E-01 1.000000000E-01 9.305253615E-02
 -5.000000000E-01 5.000000000E-02 9.825058416E-02
 -5.000000000E-01 2.752242878E-12 1.016849652E-01
 -5.000000000E-01 -5.000000000E-02 1.029301228E-01
 -5.000000000E-01 -1.000000000E-01 1.024987813E-01
 -5.000000000E-01 -1.500000000E-01 1.002765634E-01
 -5.000000000E-01 -2.000000000E-01 9.658203458E-02
 -5.000000000E-01 -2.500000000E-01 9.168660666E-02
 -5.000000000E-01 -3.000000000E-01 8.616116965E-02
 -5.000000000E-01 -3.500000000E-01 8.018534913E-02
 -5.000000000E-01 -4.000000000E-01 7.403801784E-02
 -5.000000000E-01 -4.500000000E-01 6.802389458E-02
 -5.000000000E-01 -5.000000000E-01 6.213886867E-02
 -5.000000000E-01 -5.500000000E-01 5.669462187E-02
 -5.000000000E-01 -6.000000000E-01 5.146093333E-02
 -5.000000000E-01 -6.500000000E-01 4.676841659E-02
 -5.000000000E-01 -7.000000000E-01 4.230517243E-02
 -5.000000000E-01 -7.500000000E-01 3.812800507E-02
 -5.000000000E-01 -8.000000000E-01 3.413839953E-02
 -5.000000000E-01 -8.500000000E-01 3.014631199E-02
 -5.000000000E-01 -9.000000000E-01 2.563368817E-02
 -5.000000000E-01 -9.500000000E-01 1.907513851E-02
 -4.500000000E-01 -1.000000000E+00 1.744311232E-02
 -4.000000000E-01 -1.000000000E+00 2.265857426E-02
 -3.500000000E-01 -1.000000000E+00 2.503924744E-02
 -3.000000000E-01 -1.000000000E+00 2.629460515E-02
 -2.500000000E-01 -1.000000000E+00 2.670960858E-02
 -2.000000000E-01 -1.000000000E+00 2.633865185E-02
 -1.500000000E-01 -1.000000000E+00 2.528087341E-02
 -1.000000000E-01 -1.000000000E+00 2.362150364E-02
 -5.000000000E-02 -1.000000000E+00 2.132943830E-02
 -9.424683256E-13 -1.000000000E+00 1.870153339E-02
 5.000000000E-02 -1.000000000E+00 1.554329051E-02
 1.000000000E-01 -1.000000000E+00 1.230014353E-02
 1.500000000E-01 -1.000000000E+00 8.924037208E-03
 2.000000000E-01 -1.000000000E+00 5.829655695E-03
 2.500000000E-01 -1.000000000E+00 2.897850019E-03
 3.000000000E-01 -1.000000000E+00 3.513919381E-04
 3.500000000E-01 -1.000000000E+00 -1.605279702E-03
 4.000000000E-01 -1.000000000E+00 -2.989033194E-03
 4.500000000E-01 -1.000000000E+00 -3.648036107E-03
 5.000000000E-01 -1.000000000E+00 -3.618569117E-03
 5.500000000E-01 -1.000000000E+00 -2.810463714E-03
 6.000000000E-01 -1.000000000E+00 -1.392050964E-03
 6.500000000E-01 -1.000000000E+00 7.459373524E-04
 7.000000000E-01 -1.000000000E+00 3.315759913E-03
 7.500000000E-01 -1.000000000E+00 6.241633480E-03
 8.000000000E-01 -1.000000000E+00 9.416856941E-03
 8.500000000E-01 -1.000000000E+00 1.282053359E-02
 9.000000000E-01 -1.000000000E+00 1.613659071E-02
 9.500000000E-01 -1.000000000E+00 1.943252129E-02
 1.000000000E+00 -1.000000000E+00 2.246012354E-02
 1.050000000E+00 -1.000000000E+00 2.519230495E-02
 1.100000000E+00 -1.000000000E+00 2.767216451E-02
 1.150000000E+00 -1.000000000E+00 2.977180999E-02
 1.200000000E+00 -1.000000000E+00 3.155528448E-02
 1.250000000E+00 -1.000000000E+00 3.297170541E-02
 1.300000000E+00 -1.000000000E+00 3.403971082E-02
 1.350000000E+00 -1.000000000E+00 3.480813748E-02
 1.400000000E+00 -1.000000000E+00 3.525650578E-02
 1.450000000E+00 -1.000000000E+00 3.547020179E-02
 1.500000000E+00 -1.000000000E+00 3.544766028E-02
 1.550000000E+00 -1.000000000E+00 3.523532925E-02
 1.600000000E+00 -1.000000000E+00 3.486365009E-02
 1.650000000E+00 -1.000000000E+00 3.439454125E-02
 1.700000000E+00 -1.000000000E+00 3.375468051E-02
 1.750000000E+00 -1.000000000E+00 3.310896341E-02
 1.800000000E+00 -1.000000000E+00 3.235534928E-02
 1.850000000E+00 -1.000000000E+00 3.158086157E-02
 1.900000000E+00 -1.000000000E+00 3.080110492E-02
 1.950000000E+00 -1.000000000E+00 2.998289259E-02
 2.000000000E+00 -1.000000000E+00 2.918618668E-02
 2.050000000E+00 -1.000000000E+00 2.836696906E-02
 2.100000000E+00 -1.000000000E+00 2.762631815E-02
 2.150000000E+00 -1.000000000E+00 2.683163856E-02
 2.200000000E+00 -1.000000000E+00 2.613795112E-02
 2.250000000E+00 -1.000000000E+00 2.544540508E-02
 2.300000000E+00 -1.000000000E+00 2.476710265E-02
 2.350000000E+00 -1.000000000E+00 2.414248147E-02
 2.400000000E+00 -1.000000000E+00 2.357321218E-02
 2.450000000E+00 -1.000000000E+00 2.302971391E-02
 2.500000000E+00 -1.000000000E+00 2.253263525E-02
 2.550000000E+00 -1.000000000E+00 2.206999188E-02
 2.600000000E+00 -1.000000000E+00 2.165457133E-02
 2.650000000E+00 -1.000000000E+00 2.125401407E-02
 2.700000000E+00 -1.000000000E+00 2.090652589E-02
 2.750000000E+00 -1.000000000E+00 2.056698709E-02
 2.800000000E+00 -1.000000000E+00 2.026885431E-02
 2.850000000E+00 -1.000000000E+00 1.998703865E-02
 2.900000000E+00 -1.000000000E+00 1.973724616E-02
 2.950000000E+00 -1.000000000E+00 1.948020659E-02
 3.000000000E+00 -1.000000000E+00 1.924037982E-02
 3.050000000E+00 -1.000000000E+00 1.896194520E-02
 3.100000000E+00 -1.000000000E+00 1.864242128E-02
 3.150000000E+00 -1.000000000E+00 1.829664906E-02
 3.200000000E+00 -1.000000000E+00 1.784304601E-02
 3.250000000E+00 -1.000000000E+00 1.732892965E-02
 3.300000000E+00 -1.000000000E+00 1.657418747E-02
 3.350000000E+00 -1.000000000E+00 1.554981489E-02
 3.400000000E+00 -1.000000000E+00 1.392821246E-02
 3.450000000E+00 -1.000000000E+00 1.125504998E-02
 3.500000000E+00 -9.500000000E-01 7.539717028E-03
 3.500000000E+00 -9.000000000E-01 9.090495077E-03
 3.500000000E+00 -8.500000000E-01 1.039850124E-02
 3.500000000E+00 -8.000000000E-01 1.191288792E-02
 3.500000000E+00 -7.500000000E-01 1.340039228E-02
 3.500000000E+00 -7.000000000E-01 1.494052150E-02
 3.500000000E+00 -6.500000000E-01 1.647177629E-02
 3.500000000E+00 -6.000000000E-01 1.811453540E-02
 3.500000000E+00 -5.500000000E-01 1.989951172E-02
 3.500000000E+00 -5.000000000E-01 2.178016086E-02
 3.500000000E+00 -4.500000000E-01 2.381174402E-02
 3.500000000E+00 -4.000000000E-01 2.598830934E-02
 3.500000000E+00 -3.500000000E-01 2.820195681E-02
 3.500000000E+00 -3.000000000E-01 3.027132265E-02
 3.500000000E+00 -2.500000000E-01 3.174600886E-02
 3.500000000E+00 -2.000000000E-01 3.241202441E-02
 3.500000000E+00 -1.500000000E-01 3.208995036E-02
 3.500000000E+00 -1.000000000E-01 3.137068362E-02
 3.500000000E+00 -5.000000000E-02 3.030923486E-02
 3.500000000E+00 -2.752242878E-12 2.981606425E-02
 3.500000000E+00 5.000000000E-02 2.926147821E-02
 3.500000000E+00 1.000000000E-01 2.837584282E-02
 3.500000000E+00 1.500000000E-01 2.669066457E-02
 3.500000000E+00 2.000000000E-01 2.408821763E-02
 3.500000000E+00 2.500000000E-01 2.104410775E-02
 3.500000000E+00 3.000000000E-01 1.785892590E-02
 3.500000000E+00 3.500000000E-01 1.487300047E-02
 3.500000000E+00 4.000000000E-01 1.201856849E-02
 3.500000000E+00 4.500000000E-01 9.468322821E-03
 3.500000000E+00 5.000000000E-01 7.090476417E-03
 3.500000000E+00 5.500000000E-01 5.139273038E-03
 3.500000000E+00 6.000000000E-01 3.901211532E-03
 3.500000000E+00 6.500000000E-01 3.429202177E-03
 3.500000000E+00 7.000000000E-01 3.342458535E-03
 3.500000000E+00 7.500000000E-01 2.612908009E-03
 3.500000000E+00 8.000000000E-01 4.323223374E-05
 3.500000000E+00 8.500000000E-01 -6.074500494E-03
 3.500000000E+00 9.000000000E-01 -1.411984713E-02
 3.500000000E+00 9.500000000E-01 -2.380873701E-02
 3.450000000E+00 1.000000000E+00 -1.428875029E-02
 3.400000000E+00 1.000000000E+00 -6.549957433E-03
 3.350000000E+00 1.000000000E+00 -2.621905395E-03
 3.300000000E+00 1.000000000E+00 -1.012192784E-03
 3.250000000E+00 1.000000000E+00 4.136730091E-05
 3.200000000E+00 1.000000000E+00 5.051750235E-04
 3.150000000E+00 1.000000000E+00 6.959330198E-04
 3.100000000E+00 1.000000000E+00 6.948891334E-04
 3.050000000E+00 1.000000000E+00 5.322641325E-04
 3.000000000E+00 1.000000000E+00 2.621299079E-04
 2.950000000E+00 1.000000000E+00 -1.833770297E-04
 2.900000000E+00 1.000000000E+00 -7.500615927E-04
 2.850000000E+00 1.000000000E+00 -1.324069981E-03
 2.800000000E+00 1.000000000E+00 -2.020654399E-03
 2.750000000E+00 1.000000000E+00 -2.792904834E-03
 2.700000000E+00 1.000000000E+00 -3.575512712E-03
 2.650000000E+00 1.000000000E+00 -4.663203469E-03
 2.600000000E+00 1.000000000E+00 -5.633327247E-03
 2.550000000E+00 1.000000000E+00 -6.645615858E-03
 2.500000000E+00 1.000000000E+00 -7.897240896E-03
 2.450000000E+00 1.000000000E+00 -9.003911325E-03
 2.400000000E+00 1.000000000E+00 -1.032008857E-02
 2.350000000E+00 1.000000000E+00 -1.169298355E-02
 2.300000000E+00 1.000000000E+00 -1.309036036E-02
 2.250000000E+00 1.000000000E+00 -1.476331351E-02
 2.200000000E+00 1.000000000E+00 -1.618956118E-02
 2.150000000E+00 1.000000000E+00 -1.817008770E-02
 2.100000000E+00 1.000000000E+00 -2.010605912E-02
 2.050000000E+00 1.000000000E+00 -2.200717599E-02
 2.000000000E+00 1.000000000E+00 -2.432791634E-02
 1.950000000E+00 1.000000000E+00 -2.672339118E-02
 1.900000000E+00 1.000000000E+00 -2.904387585E-02
 1.850000000E+00 1.000000000E+00 -3.203413689E-02
 1.800000000E+00 1.000000000E+00 -3.462235660E-02
 1.750000000E+00 1.000000000E+00 -3.779278462E-02
 1.700000000E+00 1.000000000E+00 -4.116959845E-02
 1.650000000E+00 1.000000000E+00 -4.459246604E-02
 1.600000000E+00 1.000000000E+00 -4.885495436E-02
 1.550000000E+00 1.000000000E+00 -5.283257372E-02
 1.500000000E+00 1.000000000E+00 -5.718916670E-02
 1.450000000E+00 1.000000000E+00 -6.185391054E-02
 1.400000000E+00 1.000000000E+00 -6.668164675E-02
 1.350000000E+00 1.000000000E+00 -7.191066603E-02
 1.300000000E+00 1.000000000E+00 -7.728876325E-02
 1.250000000E+00 1.000000000E+00 -8.285979907E-02
 1.200000000E+00 1.000000000E+00 -8.852220895E-02
 1.150000000E+00 1.000000000E+00 -9.351387968E-02
 1.100000000E+00 1.000000000E+00 -9.958644042E-02
 1.050000000E+00 1.000000000E+00 -1.049044879E-01
 1.000000000E+00 1.000000000E+00 -1.101481500E-01
 9.500000000E-01 1.000000000E+00 -1.146443279E-01
 9.000000000E-01 1.000000000E+00 -1.186347174E-01
 8.500000000E-01 1.000000000E+00 -1.220052606E-01
 8.000000000E-01 1.000000000E+00 -1.241841707E-01
 7.500000000E-01 1.000000000E+00 -1.253780124E-01
 7.000000000E-01 1.000000000E+00 -1.254596188E-01
 6.500000000E-01 1.000000000E+00 -1.248072265E-01
 6.000000000E-01 1.000000000E+00 -1.221800234E-01
 5.500000000E-01 1.000000000E+00 -1.190647949E-01
 5.000000000E-01 1.000000000E+00 -1.146016058E-01
 4.500000000E-01 1.000000000E+00 -1.089644746E-01
 4.000000000E-01 1.000000000E+00 -1.024044272E-01
 3.500000000E-01 1.000000000E+00 -9.548290371E-02
 3.000000000E-01 1.000000000E+00 -8.709466506E-02
 2.500000000E-01 1.000000000E+00 -7.919552709E-02
 2.000000000E-01 1.000000000E+00 -7.037633783E-02
 1.500000000E-01 1.000000000E+00 -6.174321031E-02
 1.000000000E-01 1.000000000E+00 -5.332563812E-02
 5.000000000E-02 1.000000000E+00 -4.519944789E-02
 1.733724275E-12 1.000000000E+00 -3.761233482E-02
 -5.000000000E-02 1.000000000E+00 -3.053161163E-02
 -1.000000000E-01 1.000000000E+00 -2.413941938E-02
 -1.500000000E-01 1.000000000E+00 -1.858773839E-02
 -2.000000000E-01 1.000000000E+00 -1.380625728E-02
 -2.500000000E-01 1.000000000E+00 -9.886580731E-03
 -3.000000000E-01 1.000000000E+00 -6.811021668E-03
 -3.500000000E-01 1.000000000E+00 -4.458006683E-03
 -4.000000000E-01 1.000000000E+00 -2.808586573E-03
 -4.500000000E-01 1.000000000E+00 -1.645664765E-03
 9.857955332E-01 -4.466465498E-03 3.486198239E-01
 9.013038834E-01 -5.121982610E-03 3.127897055E-01
 8.244183068E-01 -1.253317739E-02 2.385219112E-01
 7.503736148E-01 -2.093816592E-02 1.526774918E-01
 6.798432699E-01 -3.097368943E-02 5.843252568E-02
 6.101705245E-01 -4.135129782E-02 -4.659737055E-02
 5.456644691E-01 -4.974472366E-02 -1.629506748E-01
 4.796294491E-01 -5.701655716E-02 -2.953227212E-01
 4.226042445E-01 -6.292872154E-02 -3.819205451E-01
 3.680953933E-01 -6.301206655E-02 -4.215142196E-01
 3.169168830E-01 -6.307165534E-02 -4.082856651E-01
 2.610210929E-01 -6.075368082E-02 -3.691945136E-01