TITLE     = "Visualization of the solution"
VARIABLES = "x"
"y"
"Pressure_Coefficient"
ZONE T="Zone"
 STRANDID=0, SOLUTIONTIME=0
 Nodes=12321, Elements=24059, ZONETYPE=FEQuadrilateral
 DATAPACKING=POINT
 DT=(DOUBLE DOUBLE DOUBLE )
 1.000233054E+00 5.086491583E-04 2.588731119E-01
 9.861325026E-01 3.266795771E-03 1.803633365E-01
 9.729307294E-01 5.893305875E-03 1.239264033E-01
 9.570413232E-01 9.100213647E-03 5.942200445E-02
 9.421810508E-01 1.197502948E-02 3.643877966E-02
 9.289190173E-01 1.463366393E-02 -7.117108346E-03
 9.174457192E-01 1.689639688E-02 -4.024958724E-02
 9.055739045E-01 1.918315142E-02 -6.474958454E-02
 8.938207030E-01 2.141578309E-02 -8.683396236E-02
 8.818784952E-01 2.366315760E-02 -1.141527957E-01
 8.697386980E-01 2.589110471E-02 -1.313769141E-01
 8.579456210E-01 2.806164697E-02 -1.680632396E-01
 8.458400965E-01 3.016427718E-02 -1.711215385E-01
 8.350099921E-01 3.208251670E-02 -2.081863087E-01
 8.234057426E-01 3.400594369E-02 -2.117880888E-01
 8.111167550E-01 3.603436425E-02 -2.312643085E-01
 7.985465527E-01 3.805064410E-02 -2.445150440E-01
 7.865877151E-01 3.995149583E-02 -2.680752657E-01
 7.741878033E-01 4.183495417E-02 -2.745192061E-01
 7.627958655E-01 4.356158897E-02 -2.929110952E-01
 7.500680089E-01 4.544801638E-02 -3.146451751E-01
 7.366467714E-01 4.735866934E-02 -3.298301765E-01
 7.258400321E-01 4.885547981E-02 -3.403644768E-01
 7.146908641E-01 5.038071424E-02 -3.612532377E-01
 7.029399276E-01 5.191484094E-02 -3.704774016E-01
 6.897940636E-01 5.359217897E-02 -3.870880663E-01
 6.769642830E-01 5.517984554E-02 -4.090792548E-01
 6.661636829E-01 5.645249784E-02 -4.208237409E-01
 6.543273926E-01 5.778902024E-02 -4.317288365E-01
 6.428785920E-01 5.903990567E-02 -4.493066607E-01
 6.308878064E-01 6.026764587E-02 -4.548672886E-01
 6.193584204E-01 6.142363697E-02 -4.759987903E-01
 6.086981893E-01 6.242441759E-02 -4.907312345E-01
 5.963847041E-01 6.347865611E-02 -4.915339511E-01
 5.846497416E-01 6.444413215E-02 -5.053626895E-01
 5.711139441E-01 6.546028703E-02 -5.137273120E-01
 5.585186481E-01 6.633579731E-02 -5.250211707E-01
 5.459537506E-01 6.712757051E-02 -5.380289607E-01
 5.346356034E-01 6.774743646E-02 -5.388170891E-01
 5.224550962E-01 6.833606213E-02 -5.356418954E-01
 5.100362301E-01 6.888699532E-02 -5.479095934E-01
 4.989277124E-01 6.929609925E-02 -5.458389596E-01
 4.857211411E-01 6.970946491E-02 -5.499432976E-01
 4.725225568E-01 7.002302259E-02 -5.469725615E-01
 4.588966072E-01 7.026802003E-02 -5.466987124E-01
 4.455108345E-01 7.043188065E-02 -5.522349078E-01
 4.325954020E-01 7.048311830E-02 -5.443228233E-01
 4.195804298E-01 7.047256827E-02 -5.436900363E-01
 4.071302712E-01 7.038859278E-02 -5.443419709E-01
 3.942301869E-01 7.020762563E-02 -5.342513045E-01
 3.820132911E-01 6.999363750E-02 -5.368275143E-01
 3.701847792E-01 6.971302629E-02 -5.351307017E-01
 3.567094505E-01 6.929599494E-02 -5.243907297E-01
 3.440888226E-01 6.885618716E-02 -5.258448234E-01
 3.311421871E-01 6.831109524E-02 -5.204761468E-01
 3.202706873E-01 6.779417396E-02 -5.135831126E-01
 3.077975512E-01 6.714415550E-02 -5.110702340E-01
 2.946927547E-01 6.637676805E-02 -5.070860019E-01
 2.809669971E-01 6.547103822E-02 -4.971720596E-01
 2.688046992E-01 6.461112201E-02 -4.964514806E-01
 2.570263743E-01 6.369550526E-02 -4.905881795E-01
 2.445825636E-01 6.264071912E-02 -4.810500861E-01
 2.322893888E-01 6.152775884E-02 -4.753968281E-01
 2.201062590E-01 6.034260616E-02 -4.716695731E-01
 2.082913965E-01 5.909566954E-02 -4.589212250E-01
 1.966226101E-01 5.780262128E-02 -4.561851074E-01
 1.845132113E-01 5.635450408E-02 -4.466914072E-01
 1.727234423E-01 5.485032871E-02 -4.376940145E-01
 1.611410677E-01 5.327446014E-02 -4.264701379E-01
 1.494454741E-01 5.158979818E-02 -4.200314356E-01
 1.387747377E-01 4.994822294E-02 -4.088316190E-01
 1.273010075E-01 4.806977883E-02 -3.960680214E-01
 1.162144989E-01 4.614176229E-02 -3.866467904E-01
 1.055525839E-01 4.415051639E-02 -3.677438588E-01
 9.579118341E-02 4.222688824E-02 -3.572626397E-01
 8.497580886E-02 3.993868828E-02 -3.413894057E-01
 7.367525995E-02 3.736163676E-02 -3.217470278E-01
 6.382898986E-02 3.493242711E-02 -3.004113611E-01
 5.432967097E-02 3.239400685E-02 -2.749425315E-01
 4.556996003E-02 2.984053828E-02 -2.503672202E-01
 3.795384988E-02 2.742124349E-02 -2.234488687E-01
 3.126540780E-02 2.509409375E-02 -1.926519893E-01
 2.549370378E-02 2.290158719E-02 -1.642417926E-01
 2.126758173E-02 2.113965340E-02 -1.273057804E-01
 1.725614443E-02 1.933138631E-02 -1.001865881E-01
 1.416514348E-02 1.779976487E-02 -5.388180233E-02
 1.135336980E-02 1.629024558E-02 -1.838856365E-02
 9.279025719E-03 1.506677642E-02 2.796841124E-02
 7.447384298E-03 1.389460545E-02 5.769913527E-02
 5.716436077E-03 1.267650910E-02 1.327298514E-01
 3.491424723E-03 1.088931691E-02 2.388103359E-01
 1.645780285E-03 9.102881886E-03 3.712598021E-01
 1.558244403E-04 7.290779613E-03 5.775933731E-01
 -1.244509942E-03 4.813437350E-03 8.117565387E-01
 -1.844724175E-03 2.886210335E-03 9.900956289E-01
 -2.027657581E-03 1.315358793E-03 1.090523770E+00
 -1.914334367E-03 -4.764043842E-04 1.131150232E+00
 -1.432918711E-03 -2.399756806E-03 1.078750444E+00
 -4.086824192E-04 -4.667114932E-03 9.222561952E-01
 1.166372327E-03 -7.036569528E-03 7.779580647E-01
 3.284628503E-03 -9.460792877E-03 6.067921677E-01
 5.218450911E-03 -1.128795650E-02 4.688891696E-01
 7.452609017E-03 -1.312368084E-02 3.839217386E-01
 9.227523580E-03 -1.443327405E-02 2.916837213E-01
 1.138515957E-02 -1.588709652E-02 2.362180545E-01
 1.383945439E-02 -1.740568504E-02 1.687166350E-01
 1.718051918E-02 -1.928539574E-02 1.085810301E-01
 2.031629533E-02 -2.089411020E-02 3.797208531E-02
 2.431591786E-02 -2.277285606E-02 -5.530760409E-03
 2.962063439E-02 -2.502577938E-02 -5.463798040E-02
 3.529427201E-02 -2.721206099E-02 -1.072381775E-01
 4.218037799E-02 -2.960136160E-02 -1.393676408E-01
 4.970165715E-02 -3.197460622E-02 -1.754312035E-01
 5.852805078E-02 -3.448492289E-02 -2.035974377E-01
 6.729658693E-02 -3.677212074E-02 -2.276275241E-01
 7.756321877E-02 -3.921280056E-02 -2.485510315E-01
 8.743869513E-02 -4.137127474E-02 -2.650750018E-01
 9.791230410E-02 -4.349464551E-02 -2.821180424E-01
 1.090591624E-01 -4.557783529E-02 -2.927752664E-01
 1.204015017E-01 -4.755473509E-02 -3.066361899E-01
 1.321856976E-01 -4.946481436E-02 -3.189282159E-01
 1.428389996E-01 -5.108147487E-02 -3.323606529E-01
 1.541332453E-01 -5.268365517E-02 -3.431198206E-01
 1.662267298E-01 -5.428300425E-02 -3.526315635E-01
 1.778892428E-01 -5.572530255E-02 -3.647868630E-01
 1.897396445E-01 -5.709441379E-02 -3.777689216E-01
 2.004511207E-01 -5.823735520E-02 -3.861377651E-01
 2.118750066E-01 -5.937980860E-02 -3.988662330E-01
 2.241158634E-01 -6.050187722E-02 -4.095927974E-01
 2.363334596E-01 -6.151451543E-02 -4.178020277E-01
 2.483773381E-01 -6.242066622E-02 -4.275941064E-01
 2.607322335E-01 -6.325420737E-02 -4.384970588E-01
 2.719150186E-01 -6.392771006E-02 -4.532785009E-01
 2.844792008E-01 -6.455726922E-02 -4.575362928E-01
 2.966670692E-01 -6.506044418E-02 -4.633311558E-01
 3.093712330E-01 -6.548936665E-02 -4.765478818E-01
 3.210703135E-01 -6.575264782E-02 -4.768297222E-01
 3.336430192E-01 -6.592898816E-02 -4.812012855E-01
 3.443420529E-01 -6.597759575E-02 -4.833356476E-01
 3.558200896E-01 -6.593754888E-02 -4.875741556E-01
 3.668247461E-01 -6.577740610E-02 -4.820474303E-01
 3.778254390E-01 -6.553018093E-02 -4.837712389E-01
 3.895592093E-01 -6.512092799E-02 -4.661081941E-01
 4.025975466E-01 -6.457035989E-02 -4.647789038E-01
 4.147383869E-01 -6.389889866E-02 -4.471493655E-01
 4.275719523E-01 -6.306827813E-02 -4.330793123E-01
 4.400703311E-01 -6.211886555E-02 -4.116430689E-01
 4.524819255E-01 -6.106265262E-02 -3.916445331E-01
 4.644460082E-01 -5.992767215E-02 -3.650918798E-01
 4.769116938E-01 -5.867231637E-02 -3.493517023E-01
 4.887787998E-01 -5.735851079E-02 -3.223883552E-01
 5.011263490E-01 -5.588966608E-02 -2.895665395E-01
 5.146886706E-01 -5.420073122E-02 -2.594302603E-01
 5.281412005E-01 -5.247905105E-02 -2.404974169E-01
 5.407193899E-01 -5.075646192E-02 -2.056502929E-01
 5.536264181E-01 -4.895125702E-02 -1.792160787E-01
 5.668496490E-01 -4.706608504E-02 -1.548606112E-01
 5.798740387E-01 -4.515258223E-02 -1.256080981E-01
 5.926293135E-01 -4.326753318E-02 -1.038823709E-01
 6.053539515E-01 -4.135587066E-02 -7.895821540E-02
 6.190750599E-01 -3.928852454E-02 -5.763189097E-02
 6.329949498E-01 -3.716983274E-02 -3.362734899E-02
 6.469823718E-01 -3.502522036E-02 -8.674343840E-03
 6.599500179E-01 -3.304735944E-02 1.112914713E-02
 6.735936999E-01 -3.098696098E-02 2.720018691E-02
 6.860152483E-01 -2.909044921E-02 4.906071912E-02
 6.983797550E-01 -2.722381242E-02 6.515205869E-02
 7.128521800E-01 -2.503370866E-02 8.949682116E-02
 7.261320949E-01 -2.309159562E-02 9.806288505E-02
 7.375370264E-01 -2.136830799E-02 1.269474913E-01
 7.508988380E-01 -1.942906715E-02 1.405730876E-01
 7.635996342E-01 -1.762759127E-02 1.552258375E-01
 7.769851089E-01 -1.575552486E-02 1.719019770E-01
 7.891163826E-01 -1.408287138E-02 1.898360450E-01
 8.018087149E-01 -1.236369181E-02 2.101309986E-01
 8.130233884E-01 -1.091375295E-02 2.226073189E-01
 8.243815899E-01 -9.483793750E-03 2.387414827E-01
 8.370586634E-01 -7.964213379E-03 2.514799479E-01
 8.493390679E-01 -6.537015084E-03 2.705555524E-01
 8.614599705E-01 -5.208557472E-03 2.891569577E-01
 8.727646470E-01 -4.092604388E-03 2.980566722E-01
 8.839744329E-01 -3.054464236E-03 3.136108635E-01
 8.967065811E-01 -2.017735504E-03 3.232808432E-01
 9.068194628E-01 -1.295470400E-03 3.337737305E-01
 9.175707698E-01 -6.468896172E-04 3.399914570E-01
 9.278781414E-01 -1.471803844E-04 3.416114886E-01
 9.374095201E-01 2.314769517E-04 3.469708024E-01
 9.497985244E-01 5.751580466E-04 3.488555943E-01
 9.631482959E-01 7.853071438E-04 3.528217490E-01
 9.766451120E-01 8.274767315E-04 3.618277209E-01
 9.887006283E-01 7.157621440E-04 3.862252802E-01
 -5.000000000E-01 -1.000000000E+00 1.357291982E-02
 3.500000000E+00 -1.000000000E+00 7.987484279E-03
 3.500000000E+00 1.000000000E+00 -2.318674722E-02
 -5.000000000E-01 1.000000000E+00 9.550026480E-05
 9.931827784E-01 1.887722465E-03 2.828002559E-01
 9.795316160E-01 4.580050823E-03 1.532086496E-01
 9.649860263E-01 7.496759761E-03 8.752574330E-02
 9.496111870E-01 1.053762157E-02 5.105222846E-02
 9.355500340E-01 1.330434671E-02 1.228465982E-02
 9.231823683E-01 1.576503040E-02 -2.572005166E-02
 9.115098119E-01 1.803977415E-02 -5.216708033E-02
 8.996973038E-01 2.029946726E-02 -7.523064372E-02
 8.878495991E-01 2.253947034E-02 -1.017327964E-01
 8.758085966E-01 2.477713116E-02 -1.210145817E-01
 8.638421595E-01 2.697637584E-02 -1.540601738E-01
 8.518928587E-01 2.911296207E-02 -1.651219334E-01
 8.404250443E-01 3.112339694E-02 -1.957843315E-01
 8.292078674E-01 3.304423019E-02 -2.072079700E-01
 8.172612488E-01 3.502015397E-02 -2.221315049E-01
 8.048316538E-01 3.704250418E-02 -2.363482343E-01
 7.925671339E-01 3.900106996E-02 -2.588118608E-01
 7.803877592E-01 4.089322500E-02 -2.687971370E-01
 7.684918344E-01 4.269827157E-02 -2.843417924E-01
 7.564319372E-01 4.450480267E-02 -3.055137746E-01
 7.433573902E-01 4.640334286E-02 -3.213577644E-01
 7.312434018E-01 4.810707457E-02 -3.337713862E-01
 7.202654481E-01 4.961809702E-02 -3.530139082E-01
 7.088153958E-01 5.114777759E-02 -3.648237697E-01
 6.963669956E-01 5.275350995E-02 -3.786620785E-01
 6.833791733E-01 5.438601226E-02 -3.983775544E-01
 6.715639830E-01 5.581617169E-02 -4.157600332E-01
 6.602455378E-01 5.712075904E-02 -4.253290645E-01
 6.486029923E-01 5.841446295E-02 -4.427019129E-01
 6.368831992E-01 5.965377577E-02 -4.496529239E-01
 6.251231134E-01 6.084564142E-02 -4.663478154E-01
 6.140283048E-01 6.192402728E-02 -4.867550729E-01
 6.025414467E-01 6.295153685E-02 -4.883837201E-01
 5.905172229E-01 6.396139413E-02 -5.010190523E-01
 5.778818429E-01 6.495220959E-02 -5.086419914E-01
 5.648162961E-01 6.589804217E-02 -5.197302337E-01
 5.522361994E-01 6.673168391E-02 -5.320430053E-01
 5.402946770E-01 6.743750349E-02 -5.389657596E-01
 5.285453498E-01 6.804174930E-02 -5.356897647E-01
 5.162456632E-01 6.861152872E-02 -5.424016992E-01
 5.044819713E-01 6.909154728E-02 -5.474917942E-01
 4.923244268E-01 6.950278208E-02 -5.488442211E-01
 4.791218489E-01 6.986624375E-02 -5.479147020E-01
 4.657095820E-01 7.014552131E-02 -5.462875655E-01
 4.522037208E-01 7.034995034E-02 -5.511286709E-01
 4.390531182E-01 7.045749947E-02 -5.468736785E-01
 4.260879159E-01 7.047784328E-02 -5.435185716E-01
 4.133553505E-01 7.043058053E-02 -5.456569804E-01
 4.006802291E-01 7.029810920E-02 -5.367734349E-01
 3.881217390E-01 7.010063156E-02 -5.361356622E-01
 3.760990351E-01 6.985333189E-02 -5.381967962E-01
 3.634471148E-01 6.950451061E-02 -5.274638573E-01
 3.503991365E-01 6.907609105E-02 -5.268981252E-01
 3.376155049E-01 6.858364120E-02 -5.216164879E-01
 3.257064372E-01 6.805263460E-02 -5.171700434E-01
 3.140341192E-01 6.746916473E-02 -5.132798734E-01
 3.012451530E-01 6.676046178E-02 -5.106214804E-01
 2.878298759E-01 6.592390314E-02 -4.999038315E-01
 2.748858482E-01 6.504108012E-02 -4.974438821E-01
 2.629155368E-01 6.415331364E-02 -4.946486972E-01
 2.508044690E-01 6.316811219E-02 -4.853414473E-01
 2.384359762E-01 6.208423898E-02 -4.783226788E-01
 2.261978239E-01 6.093518250E-02 -4.743008730E-01
 2.141988277E-01 5.971913785E-02 -4.636652227E-01
 2.024570033E-01 5.844914541E-02 -4.593222440E-01
 1.905679107E-01 5.707856268E-02 -4.512655805E-01
 1.786183268E-01 5.560241640E-02 -4.424391627E-01
 1.669322550E-01 5.406239443E-02 -4.319614708E-01
 1.552932709E-01 5.243212916E-02 -4.229747329E-01
 1.441101059E-01 5.076901056E-02 -4.155663113E-01
 1.330378726E-01 4.900900088E-02 -4.018795160E-01
 1.217577532E-01 4.710577056E-02 -3.924346059E-01
 1.108835414E-01 4.514613934E-02 -3.786059078E-01
 9.038349614E-02 4.108278826E-02 -3.517436803E-01
 7.932553440E-02 3.865016252E-02 -3.293414370E-01
 6.875212491E-02 3.614703193E-02 -3.170023922E-01
 7.242990285E-02 -3.799246065E-02 -2.407037139E-01
 8.250095695E-02 -4.029203765E-02 -2.599429776E-01
 9.267549962E-02 -4.243296012E-02 -2.732716688E-01
 1.034857333E-01 -4.453624040E-02 -2.880988280E-01
 1.147303320E-01 -4.656628519E-02 -3.001174574E-01
 1.262935996E-01 -4.850977473E-02 -3.131463074E-01
 1.375123486E-01 -5.027314462E-02 -3.272416433E-01
 1.484861225E-01 -5.188256502E-02 -3.372929566E-01
 1.601799875E-01 -5.348332971E-02 -3.474082491E-01
 1.720579863E-01 -5.500415340E-02 -3.594548108E-01
 1.838144436E-01 -5.640985817E-02 -3.709664937E-01
 1.950953826E-01 -5.766588449E-02 -3.839998637E-01
 2.061630636E-01 -5.880858190E-02 -3.909288210E-01
 2.179954350E-01 -5.994084291E-02 -4.035462684E-01
 2.302246615E-01 -6.100819632E-02 -4.142956240E-01
 2.423553988E-01 -6.196759082E-02 -4.227501435E-01
 2.545547858E-01 -6.283743680E-02 -4.327145319E-01
 2.663236260E-01 -6.359095871E-02 -4.459529806E-01
 2.781971097E-01 -6.424248964E-02 -4.553522792E-01
 2.905731350E-01 -6.480885670E-02 -4.609068791E-01
 3.030191511E-01 -6.527490541E-02 -4.680496709E-01
 3.152207732E-01 -6.562100723E-02 -4.795821308E-01
 3.273566663E-01 -6.584081799E-02 -4.777241959E-01
 3.389925361E-01 -6.595329195E-02 -4.847239551E-01
 3.500810713E-01 -6.595757231E-02 -4.836945683E-01
 3.613224179E-01 -6.585747749E-02 -4.871197747E-01
 3.723250926E-01 -6.565379351E-02 -4.813816059E-01
 3.836923242E-01 -6.532555446E-02 -4.769153890E-01
 3.960783780E-01 -6.484564394E-02 -4.620377553E-01
 4.086679667E-01 -6.423462927E-02 -4.593492949E-01
 4.211551696E-01 -6.348358840E-02 -4.391378278E-01
 4.338211417E-01 -6.259357184E-02 -4.237994671E-01
 4.462761283E-01 -6.159075908E-02 -4.016934115E-01
 4.584639668E-01 -6.049516238E-02 -3.801044917E-01
 4.706788510E-01 -5.929999426E-02 -3.551790581E-01
 4.828452468E-01 -5.801541358E-02 -3.380252049E-01
 4.949525744E-01 -5.662408844E-02 -3.072363176E-01
 5.079075098E-01 -5.504519865E-02 -2.741810000E-01
 5.214149356E-01 -5.333989114E-02 -2.482398885E-01
 5.344302952E-01 -5.161775649E-02 -2.262877042E-01
 5.471729040E-01 -4.985385947E-02 -1.918872075E-01
 5.602380335E-01 -4.800867103E-02 -1.664214016E-01
 5.733618438E-01 -4.610933363E-02 -1.413758924E-01
 5.862516761E-01 -4.421005771E-02 -1.141193034E-01
 5.989916325E-01 -4.231170192E-02 -9.208456677E-02
 6.122145057E-01 -4.032219760E-02 -6.769883272E-02
 6.260350049E-01 -3.822917864E-02 -4.594562946E-02
 6.399886608E-01 -3.609752655E-02 -2.183022790E-02
 6.534661949E-01 -3.403628990E-02 1.501726169E-03
 6.667718589E-01 -3.201716021E-02 1.996682188E-02
 6.798044741E-01 -3.003870510E-02 3.694795719E-02
 6.921975017E-01 -2.815713082E-02 5.730784692E-02
 7.056159675E-01 -2.612876054E-02 7.586803759E-02
 7.194921374E-01 -2.406265214E-02 9.635967818E-02
 7.318345606E-01 -2.222995181E-02 1.086580109E-01
 7.442179322E-01 -2.039868757E-02 1.339021615E-01
 7.572492361E-01 -1.852832921E-02 1.487165660E-01
 7.702923715E-01 -1.669155806E-02 1.629634525E-01
 7.830507457E-01 -1.491919812E-02 1.807809342E-01
 7.954625487E-01 -1.322328160E-02 1.988685920E-01
 8.074160516E-01 -1.163872238E-02 2.177992825E-01
 8.187024891E-01 -1.019877335E-02 2.296938673E-01
 8.307201266E-01 -8.724003565E-03 2.446808753E-01
 8.431988657E-01 -7.250614231E-03 2.598537417E-01
 8.553995192E-01 -5.872786278E-03 2.790900710E-01
 8.671123087E-01 -4.650580930E-03 2.958956336E-01
 8.783695400E-01 -3.573534312E-03 3.045379061E-01
 8.903405070E-01 -2.536099870E-03 3.178076175E-01
 9.017630219E-01 -1.656602952E-03 3.300753058E-01
 9.121951163E-01 -9.711800085E-04 3.364978331E-01
 9.227244556E-01 -3.970350008E-04 3.429444389E-01
 9.436040223E-01 4.033174991E-04 3.482128308E-01
 9.564734101E-01 6.802325952E-04 3.502358602E-01
 9.698967040E-01 8.063919377E-04 3.562384721E-01
 9.826728702E-01 7.716194377E-04 3.694909852E-01
 9.944668412E-01 6.122056511E-04 4.388001880E-01
 -5.000000000E-01 9.500000000E-01 2.924895321E-04
 -5.000000000E-01 9.000000000E-01 9.283921580E-04
 -5.000000000E-01 8.500000000E-01 2.120386198E-03
 -5.000000000E-01 8.000000000E-01 4.041464251E-03
 -5.000000000E-01 7.500000000E-01 6.680811228E-03
 -5.000000000E-01 7.000000000E-01 1.016585432E-02
 -5.000000000E-01 6.500000000E-01 1.440461109E-02
 -5.000000000E-01 6.000000000E-01 1.971150184E-02
 -5.000000000E-01 5.500000000E-01 2.579698762E-02
 -5.000000000E-01 5.000000000E-01 3.290595818E-02
 -5.000000000E-01 4.500000000E-01 4.081839576E-02
 -5.000000000E-01 4.000000000E-01 4.937251536E-02
 -5.000000000E-01 3.500000000E-01 5.867596599E-02
 -5.000000000E-01 3.000000000E-01 6.814818667E-02
 -5.000000000E-01 2.500000000E-01 7.776400434E-02
 -5.000000000E-01 2.000000000E-01 8.677284722E-02
 -5.000000000E-01 1.500000000E-01 9.509488297E-02
 -5.000000000E-01 1.000000000E-01 1.020687443E-01
 -5.000000000E-01 5.000000000E-02 1.073152928E-01
 -5.000000000E-01 2.752242878E-12 1.106559111E-01
 -5.000000000E-01 -5.000000000E-02 1.117702346E-01
 -5.000000000E-01 -1.000000000E-01 1.109097553E-01
 -5.000000000E-01 -1.500000000E-01 1.080610661E-01
 -5.000000000E-01 -2.000000000E-01 1.035837887E-01
 -5.000000000E-01 -2.500000000E-01 9.794993738E-02
 -5.000000000E-01 -3.000000000E-01 9.153358213E-02
 -5.000000000E-01 -3.500000000E-01 8.466138017E-02
 -5.000000000E-01 -4.000000000E-01 7.772708725E-02
 -5.000000000E-01 -4.500000000E-01 7.076765973E-02
 -5.000000000E-01 -5.000000000E-01 6.432068407E-02
 -5.000000000E-01 -5.500000000E-01 5.811296868E-02
 -5.000000000E-01 -6.000000000E-01 5.243916729E-02
 -5.000000000E-01 -6.500000000E-01 4.713610122E-02
 -5.000000000E-01 -7.000000000E-01 4.240952107E-02
 -5.000000000E-01 -7.500000000E-01 3.787702338E-02
 -5.000000000E-01 -8.000000000E-01 3.371885646E-02
 -5.000000000E-01 -8.500000000E-01 2.956407872E-02
 -5.000000000E-01 -9.000000000E-01 2.515066772E-02
 -5.000000000E-01 -9.500000000E-01 1.863700839E-02
 -4.500000000E-01 -1.000000000E+00 1.695011451E-02
 -4.000000000E-01 -1.000000000E+00 2.197036799E-02
 -3.500000000E-01 -1.000000000E+00 2.416397803E-02
 -3.000000000E-01 -1.000000000E+00 2.513295200E-02
 -2.500000000E-01 -1.000000000E+00 2.518094670E-02
 -2.000000000E-01 -1.000000000E+00 2.439119827E-02
 -1.500000000E-01 -1.000000000E+00 2.276336262E-02
 -1.000000000E-01 -1.000000000E+00 2.056865151E-02
 -5.000000000E-02 -1.000000000E+00 1.762824865E-02
 -9.424683256E-13 -1.000000000E+00 1.428740636E-02
 5.000000000E-02 -1.000000000E+00 1.030166592E-02
 1.000000000E-01 -1.000000000E+00 6.314850690E-03
 1.500000000E-01 -1.000000000E+00 2.226213855E-03
 2.000000000E-01 -1.000000000E+00 -1.674798774E-03
 2.500000000E-01 -1.000000000E+00 -5.327043690E-03
 3.000000000E-01 -1.000000000E+00 -8.534338692E-03
 3.500000000E-01 -1.000000000E+00 -1.108234503E-02
 4.000000000E-01 -1.000000000E+00 -1.288035819E-02
 4.500000000E-01 -1.000000000E+00 -1.391077791E-02
 5.000000000E-01 -1.000000000E+00 -1.412323689E-02
 5.500000000E-01 -1.000000000E+00 -1.350983680E-02
 6.000000000E-01 -1.000000000E+00 -1.205760659E-02
 6.500000000E-01 -1.000000000E+00 -9.847488012E-03
 7.000000000E-01 -1.000000000E+00 -7.045896470E-03
 7.500000000E-01 -1.000000000E+00 -3.744080053E-03
 8.000000000E-01 -1.000000000E+00 -1.222637750E-04
 8.500000000E-01 -1.000000000E+00 3.623281493E-03
 9.000000000E-01 -1.000000000E+00 7.542801632E-03
 9.500000000E-01 -1.000000000E+00 1.119038319E-02
 1.000000000E+00 -1.000000000E+00 1.485559457E-02
 1.050000000E+00 -1.000000000E+00 1.826113051E-02
 1.100000000E+00 -1.000000000E+00 2.115877878E-02
 1.150000000E+00 -1.000000000E+00 2.393296828E-02
 1.200000000E+00 -1.000000000E+00 2.614995475E-02
 1.250000000E+00 -1.000000000E+00 2.806813356E-02
 1.300000000E+00 -1.000000000E+00 2.959160029E-02
 1.350000000E+00 -1.000000000E+00 3.074086715E-02
 1.400000000E+00 -1.000000000E+00 3.160469983E-02
 1.450000000E+00 -1.000000000E+00 3.214656413E-02
 1.500000000E+00 -1.000000000E+00 3.248486567E-02
 1.550000000E+00 -1.000000000E+00 3.254195674E-02
 1.600000000E+00 -1.000000000E+00 3.249655463E-02
 1.650000000E+00 -1.000000000E+00 3.220429966E-02
 1.700000000E+00 -1.000000000E+00 3.184901225E-02
 1.750000000E+00 -1.000000000E+00 3.134998745E-02
 1.800000000E+00 -1.000000000E+00 3.082287644E-02
 1.850000000E+00 -1.000000000E+00 3.021500450E-02
 1.900000000E+00 -1.000000000E+00 2.958327194E-02
 1.950000000E+00 -1.000000000E+00 2.891831794E-02
 2.000000000E+00 -1.000000000E+00 2.824593998E-02
 2.050000000E+00 -1.000000000E+00 2.757255053E-02
 2.100000000E+00 -1.000000000E+00 2.693574252E-02
 2.150000000E+00 -1.000000000E+00 2.626884298E-02
 2.200000000E+00 -1.000000000E+00 2.566841604E-02
 2.250000000E+00 -1.000000000E+00 2.505414787E-02
 2.300000000E+00 -1.000000000E+00 2.449386697E-02
 2.350000000E+00 -1.000000000E+00 2.394379193E-02
 2.400000000E+00 -1.000000000E+00 2.346891674E-02
 2.450000000E+00 -1.000000000E+00 2.296792765E-02
 2.500000000E+00 -1.000000000E+00 2.255168428E-02
 2.550000000E+00 -1.000000000E+00 2.214256878E-02
 2.600000000E+00 -1.000000000E+00 2.176931474E-02
 2.650000000E+00 -1.000000000E+00 2.142191361E-02
 2.700000000E+00 -1.000000000E+00 2.114290557E-02
 2.750000000E+00 -1.000000000E+00 2.084447273E-02
 2.800000000E+00 -1.000000000E+00 2.060726513E-02
 2.850000000E+00 -1.000000000E+00 2.036177065E-02
 2.900000000E+00 -1.000000000E+00 2.013341224E-02
 2.950000000E+00 -1.000000000E+00 1.990871242E-02
 3.000000000E+00 -1.000000000E+00 1.965392938E-02
 3.050000000E+00 -1.000000000E+00 1.939875070E-02
 3.100000000E+00 -1.000000000E+00 1.909386838E-02
 3.150000000E+00 -1.000000000E+00 1.875797292E-02
 3.200000000E+00 -1.000000000E+00 1.826977138E-02
 3.250000000E+00 -1.000000000E+00 1.771842576E-02
 3.300000000E+00 -1.000000000E+00 1.690560549E-02
 3.350000000E+00 -1.000000000E+00 1.575803965E-02
 3.400000000E+00 -1.000000000E+00 1.412991086E-02
 3.450000000E+00 -1.000000000E+00 1.110404846E-02
 3.500000000E+00 -9.500000000E-01 7.176743520E-03
 3.500000000E+00 -9.000000000E-01 8.708810490E-03
 3.500000000E+00 -8.500000000E-01 1.014124006E-02
 3.500000000E+00 -8.000000000E-01 1.177565182E-02
 3.500000000E+00 -7.500000000E-01 1.319657462E-02
 3.500000000E+00 -7.000000000E-01 1.485496270E-02
 3.500000000E+00 -6.500000000E-01 1.656818414E-02
 3.500000000E+00 -6.000000000E-01 1.835610436E-02
 3.500000000E+00 -5.500000000E-01 2.039875890E-02
 3.500000000E+00 -5.000000000E-01 2.251587599E-02
 3.500000000E+00 -4.500000000E-01 2.480342970E-02
 3.500000000E+00 -4.000000000E-01 2.719762191E-02
 3.500000000E+00 -3.500000000E-01 2.968268481E-02
 3.500000000E+00 -3.000000000E-01 3.203895790E-02
 3.500000000E+00 -2.500000000E-01 3.382990006E-02
 3.500000000E+00 -2.000000000E-01 3.492738723E-02
 3.500000000E+00 -1.500000000E-01 3.485222413E-02
 3.500000000E+00 -1.000000000E-01 3.427171923E-02
 3.500000000E+00 -5.000000000E-02 3.329654670E-02
 3.500000000E+00 -2.752242878E-12 3.274384779E-02
 3.500000000E+00 5.000000000E-02 3.236726367E-02
 3.500000000E+00 1.000000000E-01 3.137279514E-02
 3.500000000E+00 1.500000000E-01 2.955742605E-02
 3.500000000E+00 2.000000000E-01 2.691656765E-02
 3.500000000E+00 2.500000000E-01 2.373143964E-02
 3.500000000E+00 3.000000000E-01 2.034767200E-02
 3.500000000E+00 3.500000000E-01 1.715876420E-02
 3.500000000E+00 4.000000000E-01 1.424308120E-02
 3.500000000E+00 4.500000000E-01 1.129537721E-02
 3.500000000E+00 5.000000000E-01 8.880387980E-03
 3.500000000E+00 5.500000000E-01 6.714937923E-03
 3.500000000E+00 6.000000000E-01 5.272393797E-03
 3.500000000E+00 6.500000000E-01 4.654774335E-03
 3.500000000E+00 7.000000000E-01 4.502467095E-03
 3.500000000E+00 7.500000000E-01 3.795972610E-03
 3.500000000E+00 8.000000000E-01 1.104762136E-03
 3.500000000E+00 8.500000000E-01 -4.758950073E-03
 3.500000000E+00 9.000000000E-01 -1.288969382E-02
 3.500000000E+00 9.500000000E-01 -2.304675353E-02
 3.450000000E+00 1.000000000E+00 -1.362649375E-02
 3.400000000E+00 1.000000000E+00 -5.549552384E-03
 3.350000000E+00 1.000000000E+00 -1.511801535E-03
 3.300000000E+00 1.000000000E+00 1.336072427E-04
 3.250000000E+00 1.000000000E+00 1.412440503E-03
 3.200000000E+00 1.000000000E+00 1.962811041E-03
 3.150000000E+00 1.000000000E+00 1.956150722E-03
 3.100000000E+00 1.000000000E+00 2.096411068E-03
 3.050000000E+00 1.000000000E+00 1.639339876E-03
 3.000000000E+00 1.000000000E+00 1.629369792E-03
 2.950000000E+00 1.000000000E+00 1.122366707E-03
 2.900000000E+00 1.000000000E+00 7.015119828E-04
 2.850000000E+00 1.000000000E+00 1.225764718E-04
 2.800000000E+00 1.000000000E+00 -7.210758549E-04
 2.750000000E+00 1.000000000E+00 -1.454123645E-03
 2.700000000E+00 1.000000000E+00 -2.498571399E-03
 2.650000000E+00 1.000000000E+00 -3.173950169E-03
 2.600000000E+00 1.000000000E+00 -4.223219627E-03
 2.550000000E+00 1.000000000E+00 -5.272234996E-03
 2.500000000E+00 1.000000000E+00 -6.425628959E-03
 2.450000000E+00 1.000000000E+00 -7.761632731E-03
 2.400000000E+00 1.000000000E+00 -9.015187616E-03
 2.350000000E+00 1.000000000E+00 -1.032092719E-02
 2.300000000E+00 1.000000000E+00 -1.173356988E-02
 2.250000000E+00 1.000000000E+00 -1.305342273E-02
 2.200000000E+00 1.000000000E+00 -1.503744885E-02
 2.150000000E+00 1.000000000E+00 -1.656974872E-02
 2.100000000E+00 1.000000000E+00 -1.874671467E-02
 2.050000000E+00 1.000000000E+00 -2.051260723E-02
 2.000000000E+00 1.000000000E+00 -2.306096683E-02
 1.950000000E+00 1.000000000E+00 -2.515158874E-02
 1.900000000E+00 1.000000000E+00 -2.769117613E-02
 1.850000000E+00 1.000000000E+00 -3.050427284E-02
 1.800000000E+00 1.000000000E+00 -3.319822681E-02
 1.750000000E+00 1.000000000E+00 -3.647982996E-02
 1.700000000E+00 1.000000000E+00 -3.956235578E-02
 1.650000000E+00 1.000000000E+00 -4.334192855E-02
 1.600000000E+00 1.000000000E+00 -4.721092266E-02
 1.550000000E+00 1.000000000E+00 -5.141670704E-02
 1.500000000E+00 1.000000000E+00 -5.594278407E-02
 1.450000000E+00 1.000000000E+00 -6.051548618E-02
 1.400000000E+00 1.000000000E+00 -6.565925046E-02
 1.350000000E+00 1.000000000E+00 -7.084314637E-02
 1.300000000E+00 1.000000000E+00 -7.636217724E-02
 1.250000000E+00 1.000000000E+00 -8.195920634E-02
 1.200000000E+00 1.000000000E+00 -8.757976930E-02
 1.150000000E+00 1.000000000E+00 -9.359913342E-02
 1.100000000E+00 1.000000000E+00 -9.931240304E-02
 1.050000000E+00 1.000000000E+00 -1.044877648E-01
 1.000000000E+00 1.000000000E+00 -1.094695242E-01
 9.500000000E-01 1.000000000E+00 -1.149284055E-01
 9.000000000E-01 1.000000000E+00 -1.187588296E-01
 8.500000000E-01 1.000000000E+00 -1.222900082E-01
 8.000000000E-01 1.000000000E+00 -1.245898926E-01
 7.500000000E-01 1.000000000E+00 -1.262181904E-01
 7.000000000E-01 1.000000000E+00 -1.262967814E-01
 6.500000000E-01 1.000000000E+00 -1.252145491E-01
 6.000000000E-01 1.000000000E+00 -1.228349936E-01
 5.500000000E-01 1.000000000E+00 -1.193989556E-01
 5.000000000E-01 1.000000000E+00 -1.149463650E-01
 4.500000000E-01 1.000000000E+00 -1.088964516E-01
 4.000000000E-01 1.000000000E+00 -1.022969308E-01
 3.500000000E-01 1.000000000E+00 -9.494828806E-02
 3.000000000E-01 1.000000000E+00 -8.688420854E-02
 2.500000000E-01 1.000000000E+00 -7.804568583E-02
 2.000000000E-01 1.000000000E+00 -6.941615320E-02
 1.500000000E-01 1.000000000E+00 -6.042363901E-02
 1.000000000E-01 1.000000000E+00 -5.171837605E-02
 5.000000000E-02 1.000000000E+00 -4.332486547E-02
 1.733724275E-12 1.000000000E+00 -3.548814747E-02
 -5.000000000E-02 1.000000000E+00 -2.809929322E-02
 -1.000000000E-01 1.000000000E+00 -2.173824209E-02
 -1.500000000E-01 1.000000000E+00 -1.596496516E-02
 -2.000000000E-01 1.000000000E+00 -1.126557909E-02
 -2.500000000E-01 1.000000000E+00 -7.363439439E-03
 -3.000000000E-01 1.000000000E+00 -4.323424707E-03
 -3.500000000E-01 1.000000000E+00 -2.123220062E-03
 -4.000000000E-01 1.000000000E+00 -7.274046831E-04
 -4.500000000E-01 1.000000000E+00 -5.325614564E-05
 9.095706682E-01 -5.709428926E-03 3.282171535E-01
 8.344242208E-01 -1.325706993E-02 2.448416561E-01
 9.855874526E-01 -4.182494653E-03 3.723008565E-01
 7.615275893E-01 -2.378687821E-02 1.502825479E-01
 6.899146524E-01 -3.397777848E-02 5.209521650E-02
 6.234657994E-01 -4.474262738E-02 -5.043011417E-02
 5.577386202E-01 -5.413628547E-02 -1.698974037E-01
 4.924890560E-01 -6.223152540E-02 -3.065973796E-01
 4.306879282E-01 -6.859886320E-02 -4.159104653E-01
 3.751823174E-01 -7.035542695E-02 -4.708479775E-01