TITLE     = "Visualization of the solution"
VARIABLES = "x"
"y"
"Pressure_Coefficient"
ZONE T="Zone"
 STRANDID=0, SOLUTIONTIME=0
 Nodes=12080, Elements=23581, ZONETYPE=FEQuadrilateral
 DATAPACKING=POINT
 DT=(DOUBLE DOUBLE DOUBLE )
 1.000140309E+00 5.255189608E-04 2.176410967E-01
 9.892824292E-01 2.507538768E-03 1.915464138E-01
 9.776985645E-01 4.579864442E-03 1.181441803E-01
 9.632080793E-01 7.105497643E-03 7.326147937E-02
 9.493229985E-01 9.565808810E-03 3.439691626E-02
 9.357674122E-01 1.203368511E-02 -2.484964670E-02
 9.243162870E-01 1.399907842E-02 -5.253304551E-02
 9.113736749E-01 1.614772342E-02 -6.884536077E-02
 8.998926282E-01 1.808792353E-02 -1.125666071E-01
 8.874645233E-01 2.005083859E-02 -1.365657524E-01
 8.745906353E-01 2.196255885E-02 -1.466091875E-01
 8.623607159E-01 2.373609319E-02 -1.635772085E-01
 8.494154215E-01 2.553484030E-02 -1.783534311E-01
 8.375576735E-01 2.710480243E-02 -1.830487400E-01
 8.253409266E-01 2.868418023E-02 -1.886467326E-01
 8.118214011E-01 3.041068651E-02 -2.020032459E-01
 7.986054420E-01 3.205322847E-02 -2.126129177E-01
 7.861526608E-01 3.357286379E-02 -2.243794641E-01
 7.735177279E-01 3.507768735E-02 -2.382172349E-01
 7.608147264E-01 3.652591631E-02 -2.404844569E-01
 7.474769950E-01 3.804664686E-02 -2.552177413E-01
 7.333505154E-01 3.960904852E-02 -2.685846631E-01
 7.223722339E-01 4.078934342E-02 -2.770328432E-01
 7.112160325E-01 4.196835682E-02 -2.865197974E-01
 6.994999051E-01 4.319079220E-02 -3.035548690E-01
 6.855520606E-01 4.457144812E-02 -3.137486199E-01
 6.719879508E-01 4.586671293E-02 -3.262472117E-01
 6.622288227E-01 4.676866159E-02 -3.326418889E-01
 6.505552530E-01 4.782140255E-02 -3.493925495E-01
 6.388322115E-01 4.881275445E-02 -3.547083921E-01
 6.270603538E-01 4.977997392E-02 -3.680398373E-01
 6.159833670E-01 5.063782260E-02 -3.768099577E-01
 6.047764421E-01 5.145866796E-02 -3.827837072E-01
 5.919187665E-01 5.235956609E-02 -3.979202680E-01
 5.801452398E-01 5.311062559E-02 -4.036269706E-01
 5.668904185E-01 5.389286205E-02 -4.123972978E-01
 5.545693040E-01 5.455310643E-02 -4.199775851E-01
 5.425750613E-01 5.512754619E-02 -4.245910715E-01
 5.319340229E-01 5.558669567E-02 -4.274342652E-01
 5.204465389E-01 5.603480712E-02 -4.334717813E-01
 5.078082085E-01 5.645229295E-02 -4.367456465E-01
 4.966644645E-01 5.676144361E-02 -4.385890422E-01
 4.835268855E-01 5.704718456E-02 -4.355852637E-01
 4.704906940E-01 5.727867037E-02 -4.400656036E-01
 4.563906193E-01 5.743840337E-02 -4.413963320E-01
 4.428983927E-01 5.750296265E-02 -4.383501810E-01
 4.299992621E-01 5.750050768E-02 -4.385491242E-01
 4.172673821E-01 5.741810426E-02 -4.332868374E-01
 4.050933123E-01 5.728962645E-02 -4.330261918E-01
 3.930979967E-01 5.709558725E-02 -4.281950184E-01
 3.807858527E-01 5.683883280E-02 -4.221071783E-01
 3.699279726E-01 5.658320710E-02 -4.260237833E-01
 3.570367396E-01 5.618715286E-02 -4.154985459E-01
 3.451232612E-01 5.578848347E-02 -4.167774457E-01
 3.325760663E-01 5.528710783E-02 -4.087792510E-01
 3.215406537E-01 5.480745062E-02 -4.063679838E-01
 3.091941476E-01 5.420965329E-02 -4.018972409E-01
 2.956551313E-01 5.347395316E-02 -3.917515990E-01
 2.816036642E-01 5.265410617E-02 -3.898333858E-01
 2.684960067E-01 5.180029199E-02 -3.803274416E-01
 2.562251091E-01 5.095051602E-02 -3.762948820E-01
 2.434837669E-01 4.999629408E-02 -3.677835126E-01
 2.304758728E-01 4.896066338E-02 -3.634410346E-01
 2.180840671E-01 4.789526761E-02 -3.534460381E-01
 2.063553333E-01 4.684269428E-02 -3.506612445E-01
 1.950195730E-01 4.575636983E-02 -3.432528843E-01
 1.823953986E-01 4.447093979E-02 -3.354764890E-01
 1.702899486E-01 4.316179082E-02 -3.262280930E-01
 1.588281095E-01 4.186118767E-02 -3.198802145E-01
 1.465573311E-01 4.038785771E-02 -3.143983823E-01
 1.357745677E-01 3.901148215E-02 -3.044893811E-01
 1.239677519E-01 3.742329776E-02 -2.972197542E-01
 1.122319251E-01 3.574256971E-02 -2.880009547E-01
 1.015698239E-01 3.412578255E-02 -2.802193218E-01
 9.164503217E-02 3.252730891E-02 -2.711227084E-01
 8.026724309E-02 3.057226911E-02 -2.613298765E-01
 6.833182275E-02 2.835236676E-02 -2.526780903E-01
 5.871549249E-02 2.641771175E-02 -2.391490680E-01
 4.900356755E-02 2.428384498E-02 -2.253842768E-01
 4.057257622E-02 2.224632353E-02 -2.118998578E-01
 3.346015140E-02 2.036383003E-02 -1.970471802E-01
 2.729933150E-02 1.856916584E-02 -1.755652486E-01
 2.199809998E-02 1.685724035E-02 -1.612826451E-01
 1.824615523E-02 1.553013083E-02 -1.356241734E-01
 1.477820706E-02 1.417941321E-02 -1.146122246E-01
 1.222144347E-02 1.308771782E-02 -8.145599973E-02
 9.885518812E-03 1.199505199E-02 -5.523916523E-02
 8.208418265E-03 1.114031766E-02 -2.304545699E-02
 6.700733677E-03 1.030752156E-02 -1.136225286E-03
 5.300987046E-03 9.464139119E-03 6.508094164E-02
 3.426816314E-03 8.185369894E-03 1.526624972E-01
 1.762151951E-03 6.837839726E-03 2.694900913E-01
 3.167868126E-04 5.382976495E-03 4.885675712E-01
 -1.061309245E-03 3.422424197E-03 7.310649687E-01
 -1.694054576E-03 1.882869983E-03 9.404292681E-01
 -1.930361730E-03 6.519949529E-04 1.058857464E+00
 -1.908157254E-03 -7.133877371E-04 1.113879988E+00
 -1.569789951E-03 -2.178767696E-03 1.048837228E+00
 -7.789704832E-04 -3.858180717E-03 8.868239554E-01
 5.183690228E-04 -5.640723277E-03 6.785501036E-01
 2.396062016E-03 -7.516547572E-03 4.895786627E-01
 4.075483885E-03 -8.867431432E-03 3.342461204E-01
 6.051964127E-03 -1.022382546E-02 2.683284363E-01
 7.572012022E-03 -1.115244627E-02 1.860331387E-01
 9.511961602E-03 -1.222703792E-02 1.427246626E-01
 1.177537348E-02 -1.336634252E-02 8.925591358E-02
 1.491313521E-02 -1.479151007E-02 4.533048362E-02
 1.783600077E-02 -1.598805934E-02 -1.029318055E-02
 2.161149308E-02 -1.739443652E-02 -3.636871201E-02
 2.693770453E-02 -1.917310432E-02 -6.549717822E-02
 3.262908757E-02 -2.088060230E-02 -9.844743752E-02
 4.009157792E-02 -2.288800478E-02 -1.184698203E-01
 4.763510078E-02 -2.470947430E-02 -1.406162218E-01
 5.662295595E-02 -2.669028379E-02 -1.521484997E-01
 6.531899422E-02 -2.843927778E-02 -1.716383614E-01
 7.538966835E-02 -3.030557372E-02 -1.770630946E-01
 8.533623815E-02 -3.201649711E-02 -1.867522486E-01
 9.551429003E-02 -3.365124390E-02 -1.978079904E-01
 1.061001569E-01 -3.524795547E-02 -2.073579131E-01
 1.175003871E-01 -3.686066344E-02 -2.157287537E-01
 1.288853139E-01 -3.838121146E-02 -2.271632016E-01
 1.397541016E-01 -3.974786028E-02 -2.365197158E-01
 1.505882293E-01 -4.103218392E-02 -2.434506205E-01
 1.625397950E-01 -4.237930849E-02 -2.538244754E-01
 1.741477400E-01 -4.361236468E-02 -2.636211756E-01
 1.861977428E-01 -4.481975734E-02 -2.735321868E-01
 1.968603879E-01 -4.582467303E-02 -2.822970299E-01
 2.080813795E-01 -4.682743922E-02 -2.931564196E-01
 2.204774022E-01 -4.786556587E-02 -3.054851706E-01
 2.335184515E-01 -4.886223003E-02 -3.139581217E-01
 2.462443262E-01 -4.975489900E-02 -3.240151383E-01
 2.592809498E-01 -5.059679225E-02 -3.381220876E-01
 2.707114518E-01 -5.125230551E-02 -3.481708769E-01
 2.838102877E-01 -5.191055685E-02 -3.559690455E-01
 2.971181273E-01 -5.248812214E-02 -3.675650793E-01
 3.101105690E-01 -5.294614658E-02 -3.757869312E-01
 3.221160471E-01 -5.327874422E-02 -3.848268606E-01
 3.345950246E-01 -5.352823809E-02 -3.923562848E-01
 3.457660079E-01 -5.366279557E-02 -4.008647320E-01
 3.570626676E-01 -5.369265378E-02 -4.006563966E-01
 3.680693209E-01 -5.363618955E-02 -4.029869879E-01
 3.788217008E-01 -5.349268392E-02 -4.034854871E-01
 3.901399374E-01 -5.325187743E-02 -4.054509971E-01
 4.028548896E-01 -5.283702537E-02 -3.942408575E-01
 4.153666198E-01 -5.232159421E-02 -3.924238800E-01
 4.283506274E-01 -5.162990466E-02 -3.768885242E-01
 4.411363602E-01 -5.082292482E-02 -3.633025013E-01
 4.533706903E-01 -4.992018268E-02 -3.424185039E-01
 4.656319916E-01 -4.893121496E-02 -3.308837878E-01
 4.781118333E-01 -4.778547212E-02 -3.035975693E-01
 4.894647896E-01 -4.666603357E-02 -2.851250595E-01
 5.017051101E-01 -4.535699263E-02 -2.557217280E-01
 5.154783130E-01 -4.380660132E-02 -2.293183132E-01
 5.291641951E-01 -4.218629375E-02 -2.031333029E-01
 5.430693626E-01 -4.045607150E-02 -1.738897313E-01
 5.560999513E-01 -3.877743334E-02 -1.465674167E-01
 5.689018965E-01 -3.709641472E-02 -1.226552600E-01
 5.817663074E-01 -3.537177294E-02 -9.855488230E-02
 5.934213996E-01 -3.378982469E-02 -7.765211277E-02
 6.054577231E-01 -3.213780746E-02 -5.534380804E-02
 6.192531586E-01 -3.023942932E-02 -3.350115220E-02
 6.335547566E-01 -2.827005275E-02 -1.202089563E-02
 6.475316286E-01 -2.633184195E-02 1.229909949E-02
 6.609120369E-01 -2.451443858E-02 2.632606021E-02
 6.740944386E-01 -2.269730158E-02 5.049325960E-02
 6.865756512E-01 -2.102057822E-02 6.297323783E-02
 6.989533305E-01 -1.935232803E-02 8.307244088E-02
 7.129852772E-01 -1.749639772E-02 1.006976020E-01
 7.259538174E-01 -1.583069749E-02 1.132815710E-01
 7.378198504E-01 -1.431140956E-02 1.300222931E-01
 7.500621080E-01 -1.277975366E-02 1.437648415E-01
 7.619204521E-01 -1.130376197E-02 1.640333763E-01
 7.748816609E-01 -9.785447270E-03 1.716968027E-01
 7.858355641E-01 -8.487311192E-03 1.954308930E-01
 7.985761166E-01 -7.102486677E-03 2.004960048E-01
 8.095439672E-01 -5.923523102E-03 2.186026574E-01
 8.212745786E-01 -4.737753421E-03 2.310578850E-01
 8.342175484E-01 -3.526744898E-03 2.411300286E-01
 8.464240432E-01 -2.445311751E-03 2.570508570E-01
 8.586588502E-01 -1.481781364E-03 2.652467257E-01
 8.710331321E-01 -5.988260964E-04 2.775362453E-01
 8.833324909E-01 1.574095659E-04 2.865881888E-01
 8.973991275E-01 8.350742282E-04 2.887650425E-01
 9.076316357E-01 1.229793066E-03 2.945427550E-01
 9.177276492E-01 1.520813676E-03 2.950411483E-01
 9.271109700E-01 1.704106573E-03 2.943068142E-01
 9.357319474E-01 1.804584637E-03 2.952581723E-01
 9.481440187E-01 1.834102441E-03 2.905703304E-01
 9.610258937E-01 1.727198018E-03 2.870570784E-01
 9.759654403E-01 1.430701464E-03 2.827837187E-01
 9.888377190E-01 1.024978235E-03 2.866780746E-01
 -5.000000000E-01 -1.000000000E+00 1.081745922E-02
 3.500000000E+00 -1.000000000E+00 6.342548351E-03
 3.500000000E+00 1.000000000E+00 -1.540264462E-02
 -5.000000000E-01 1.000000000E+00 -3.578500691E-04
 9.947113693E-01 1.516528864E-03 2.877294619E-01
 9.834904969E-01 3.543701605E-03 1.486682229E-01
 9.704533219E-01 5.842681043E-03 9.564111336E-02
 9.562655389E-01 8.335653227E-03 5.481588831E-02
 9.425452054E-01 1.079974696E-02 -7.181686971E-04
 9.300418496E-01 1.301638177E-02 -3.980324226E-02
 9.178449810E-01 1.507340092E-02 -5.726581366E-02
 9.056331515E-01 1.711782347E-02 -9.591573048E-02
 8.936785758E-01 1.906938106E-02 -1.264431991E-01
 8.810275793E-01 2.100669872E-02 -1.395198652E-01
 8.684756756E-01 2.284932602E-02 -1.558868115E-01
 8.558880687E-01 2.463546675E-02 -1.713513857E-01
 8.434865475E-01 2.631982137E-02 -1.797821392E-01
 8.314493001E-01 2.789449133E-02 -1.848406742E-01
 8.185811639E-01 2.954743337E-02 -1.957604712E-01
 8.052134216E-01 3.123195749E-02 -2.069129716E-01
 7.923790514E-01 3.281304613E-02 -2.187828974E-01
 7.798351943E-01 3.432527557E-02 -2.327482430E-01
 7.671662271E-01 3.580180183E-02 -2.373844670E-01
 7.541458607E-01 3.728628159E-02 -2.486370173E-01
 7.404137552E-01 3.882784769E-02 -2.617970296E-01
 7.278613746E-01 4.019919597E-02 -2.724267724E-01
 7.167941332E-01 4.137885012E-02 -2.811167730E-01
 7.053579688E-01 4.257957451E-02 -2.973245340E-01
 6.925259829E-01 4.388112016E-02 -3.082670976E-01
 6.787700057E-01 4.521908052E-02 -3.187276134E-01
 6.563920379E-01 4.729503207E-02 -3.430749559E-01
 6.446937323E-01 4.831707850E-02 -3.508974909E-01
 6.329462826E-01 4.929636419E-02 -3.618756478E-01
 6.215218604E-01 5.020889826E-02 -3.724146698E-01
 6.103799045E-01 5.104824528E-02 -3.796027869E-01
 5.983476043E-01 5.190911703E-02 -3.912185830E-01
 5.860320032E-01 5.273509584E-02 -4.013558558E-01
 5.735178292E-01 5.350174382E-02 -4.077646821E-01
 5.607298613E-01 5.422298424E-02 -4.166071500E-01
 5.485721827E-01 5.484032631E-02 -4.214466939E-01
 5.372545421E-01 5.535712093E-02 -4.258262353E-01
 5.261902809E-01 5.581075139E-02 -4.318380252E-01
 5.141273737E-01 5.624355003E-02 -4.343574427E-01
 5.022363365E-01 5.660686828E-02 -4.393374357E-01
 4.900956750E-01 5.690431409E-02 -4.357347397E-01
 4.770087898E-01 5.716292746E-02 -4.392806537E-01
 4.634406567E-01 5.735853687E-02 -4.411177660E-01
 4.496445060E-01 5.747068301E-02 -4.389972959E-01
 4.364488274E-01 5.750173517E-02 -4.392565749E-01
 4.236333221E-01 5.745930597E-02 -4.350573256E-01
 4.111803472E-01 5.735386536E-02 -4.336794880E-01
 3.990956545E-01 5.719260685E-02 -4.306481775E-01
 3.869419247E-01 5.696721002E-02 -4.231885012E-01
 3.753569126E-01 5.671101995E-02 -4.276187742E-01
 3.634823561E-01 5.638517998E-02 -4.184287914E-01
 3.510800004E-01 5.598781817E-02 -4.179654965E-01
 3.388496637E-01 5.553779565E-02 -4.112028779E-01
 3.270583600E-01 5.504727922E-02 -4.083418104E-01
 3.153674006E-01 5.450855196E-02 -4.053869476E-01
 3.024246395E-01 5.384180322E-02 -3.960396663E-01
 2.886293977E-01 5.306402966E-02 -3.917282737E-01
 2.750498354E-01 5.222719908E-02 -3.840331626E-01
 2.623605579E-01 5.137540400E-02 -3.788821727E-01
 2.498544380E-01 5.047340505E-02 -3.718354555E-01
 2.369798198E-01 4.947847873E-02 -3.660076177E-01
 2.242799699E-01 4.842796549E-02 -3.568785668E-01
 2.122197002E-01 4.736898094E-02 -3.524717301E-01
 2.006874532E-01 4.629953206E-02 -3.479586281E-01
 1.887074858E-01 4.511365481E-02 -3.392658984E-01
 1.763426736E-01 4.381636530E-02 -3.300223056E-01
 1.645590290E-01 4.251148924E-02 -3.239749631E-01
 1.526927203E-01 4.112452269E-02 -3.167531611E-01
 1.411659494E-01 3.969966993E-02 -3.099643717E-01
 1.298711598E-01 3.821738996E-02 -3.015780237E-01
 1.180998385E-01 3.658293374E-02 -2.919434116E-01
 1.069008745E-01 3.493417613E-02 -2.865755091E-01
 8.595613763E-02 3.154978901E-02 -2.693243792E-01
 7.429953292E-02 2.946231794E-02 -2.562200603E-01
 7.035433128E-02 -2.937242575E-02 -1.756230613E-01
 9.042526409E-02 -3.283387050E-02 -1.960136607E-01
 1.008072235E-01 -3.444959968E-02 -2.021841637E-01
 1.118002720E-01 -3.605430946E-02 -2.114525614E-01
 1.231928505E-01 -3.762093745E-02 -2.217890849E-01
 1.343197078E-01 -3.906453587E-02 -2.326066429E-01
 1.451711655E-01 -4.039002210E-02 -2.405960182E-01
 1.565640122E-01 -4.170574620E-02 -2.477491408E-01
 1.683437675E-01 -4.299583659E-02 -2.591982844E-01
 1.801727414E-01 -4.421606101E-02 -2.684433744E-01
 1.915290654E-01 -4.532221518E-02 -2.791369817E-01
 2.024708837E-01 -4.632605612E-02 -2.868184990E-01
 2.142793909E-01 -4.734650254E-02 -2.982488283E-01
 2.269979268E-01 -4.836389795E-02 -3.100830350E-01
 2.398813888E-01 -4.930856451E-02 -3.192452304E-01
 2.527626380E-01 -5.017584562E-02 -3.301884496E-01
 2.649962008E-01 -5.092454888E-02 -3.446304874E-01
 2.772608697E-01 -5.158143118E-02 -3.509892894E-01
 2.904642075E-01 -5.219933949E-02 -3.611994255E-01
 3.036143482E-01 -5.271713436E-02 -3.722679377E-01
 3.161133081E-01 -5.311244540E-02 -3.809158581E-01
 3.283555359E-01 -5.340349115E-02 -3.876368958E-01
 3.401805162E-01 -5.359551683E-02 -3.973697340E-01
 3.514143378E-01 -5.367772467E-02 -4.017518704E-01
 3.625659943E-01 -5.366442166E-02 -4.018469849E-01
 3.734455109E-01 -5.356443673E-02 -4.034751807E-01
 3.844808191E-01 -5.337228067E-02 -4.028269395E-01
 3.964974135E-01 -5.304445140E-02 -4.004245447E-01
 4.091107547E-01 -5.257930979E-02 -3.924890823E-01
 4.218586236E-01 -5.197574943E-02 -3.860390247E-01
 4.347434938E-01 -5.122641474E-02 -3.702564850E-01
 4.472535253E-01 -5.037155375E-02 -3.546395702E-01
 4.595013410E-01 -4.942569882E-02 -3.351231762E-01
 4.718719125E-01 -4.835834354E-02 -3.192600712E-01
 4.837883115E-01 -4.722575285E-02 -2.944566111E-01
 4.955849499E-01 -4.601151310E-02 -2.714946764E-01
 5.085917115E-01 -4.458179697E-02 -2.418217912E-01
 5.223212540E-01 -4.299644753E-02 -2.162412075E-01
 5.361167789E-01 -4.132118262E-02 -1.890574430E-01
 5.495846570E-01 -3.961675242E-02 -1.606775186E-01
 5.625009239E-01 -3.793692403E-02 -1.342394982E-01
 5.753341019E-01 -3.623409383E-02 -1.109385264E-01
 5.875938535E-01 -3.458079882E-02 -8.828319073E-02
 5.994395614E-01 -3.296381608E-02 -6.674813702E-02
 6.123554409E-01 -3.118861839E-02 -4.446652242E-02
 6.264039576E-01 -2.925474104E-02 -2.253201111E-02
 6.405431926E-01 -2.730094735E-02 -6.527484167E-04
 6.542218328E-01 -2.542314027E-02 2.067485033E-02
 6.675032377E-01 -2.360587008E-02 3.687136261E-02
 6.803350449E-01 -2.185893990E-02 5.800135624E-02
 6.927644908E-01 -2.018645313E-02 7.187769076E-02
 7.059693038E-01 -1.842436288E-02 9.148854261E-02
 7.194695473E-01 -1.666354761E-02 1.084338862E-01
 7.318868339E-01 -1.507105352E-02 1.212144968E-01
 7.439409792E-01 -1.354558161E-02 1.370331222E-01
 7.559912801E-01 -1.204175781E-02 1.526289304E-01
 7.684010565E-01 -1.054460462E-02 1.695482620E-01
 7.803586125E-01 -9.136379231E-03 1.811372218E-01
 7.922058403E-01 -7.794898935E-03 1.994890944E-01
 8.040600419E-01 -6.513004890E-03 2.084804879E-01
 8.154092729E-01 -5.330638262E-03 2.243569072E-01
 8.277460635E-01 -4.132249160E-03 2.359868202E-01
 8.403207958E-01 -2.986028325E-03 2.483028475E-01
 8.525414467E-01 -1.963546558E-03 2.619734150E-01
 8.648459911E-01 -1.040303730E-03 2.704358751E-01
 8.771828115E-01 -2.207082653E-04 2.817916042E-01
 8.903658092E-01 4.962418971E-04 2.880673167E-01
 9.025153816E-01 1.032433647E-03 2.942134910E-01
 9.126796424E-01 1.375303371E-03 2.955372006E-01
 9.419379830E-01 1.819343539E-03 2.913126942E-01
 9.545849562E-01 1.780650229E-03 2.881536034E-01
 9.684956670E-01 1.578949741E-03 2.833719195E-01
 9.824015796E-01 1.227839850E-03 2.829522659E-01
 9.944890141E-01 7.752485981E-04 3.300525432E-01
 -5.000000000E-01 9.500000000E-01 -3.630200927E-04
 -5.000000000E-01 9.000000000E-01 -4.223418779E-05
 -5.000000000E-01 8.500000000E-01 7.707458475E-04
 -5.000000000E-01 8.000000000E-01 2.150711566E-03
 -5.000000000E-01 7.500000000E-01 4.148076469E-03
 -5.000000000E-01 7.000000000E-01 6.779626881E-03
 -5.000000000E-01 6.500000000E-01 1.006646817E-02
 -5.000000000E-01 6.000000000E-01 1.413193412E-02
 -5.000000000E-01 5.500000000E-01 1.882308345E-02
 -5.000000000E-01 5.000000000E-01 2.435830736E-02
 -5.000000000E-01 4.500000000E-01 3.042966495E-02
 -5.000000000E-01 4.000000000E-01 3.713545347E-02
 -5.000000000E-01 3.500000000E-01 4.430942276E-02
 -5.000000000E-01 3.000000000E-01 5.171492473E-02
 -5.000000000E-01 2.500000000E-01 5.922037243E-02
 -5.000000000E-01 2.000000000E-01 6.627367094E-02
 -5.000000000E-01 1.500000000E-01 7.277293441E-02
 -5.000000000E-01 1.000000000E-01 7.831820568E-02
 -5.000000000E-01 5.000000000E-02 8.246632207E-02
 -5.000000000E-01 2.752242878E-12 8.518894444E-02
 -5.000000000E-01 -5.000000000E-02 8.618623804E-02
 -5.000000000E-01 -1.000000000E-01 8.557709446E-02
 -5.000000000E-01 -1.500000000E-01 8.348203761E-02
 -5.000000000E-01 -2.000000000E-01 8.023799504E-02
 -5.000000000E-01 -2.500000000E-01 7.595461764E-02
 -5.000000000E-01 -3.000000000E-01 7.113135821E-02
 -5.000000000E-01 -3.500000000E-01 6.597039889E-02
 -5.000000000E-01 -4.000000000E-01 6.050526900E-02
 -5.000000000E-01 -4.500000000E-01 5.545449953E-02
 -5.000000000E-01 -5.000000000E-01 5.028244695E-02
 -5.000000000E-01 -5.500000000E-01 4.567080831E-02
 -5.000000000E-01 -6.000000000E-01 4.124696179E-02
 -5.000000000E-01 -6.500000000E-01 3.721488813E-02
 -5.000000000E-01 -7.000000000E-01 3.350255334E-02
 -5.000000000E-01 -7.500000000E-01 3.005400357E-02
 -5.000000000E-01 -8.000000000E-01 2.676388377E-02
 -5.000000000E-01 -8.500000000E-01 2.353367860E-02
 -5.000000000E-01 -9.000000000E-01 1.997525627E-02
 -5.000000000E-01 -9.500000000E-01 1.483002860E-02
 -4.500000000E-01 -1.000000000E+00 1.352347693E-02
 -4.000000000E-01 -1.000000000E+00 1.750445822E-02
 -3.500000000E-01 -1.000000000E+00 1.933300244E-02
 -3.000000000E-01 -1.000000000E+00 2.011728892E-02
 -2.500000000E-01 -1.000000000E+00 2.028138467E-02
 -2.000000000E-01 -1.000000000E+00 1.977501131E-02
 -1.500000000E-01 -1.000000000E+00 1.862431432E-02
 -1.000000000E-01 -1.000000000E+00 1.692502549E-02
 -5.000000000E-02 -1.000000000E+00 1.480282949E-02
 -9.424683256E-13 -1.000000000E+00 1.223685940E-02
 5.000000000E-02 -1.000000000E+00 9.404847815E-03
 1.000000000E-01 -1.000000000E+00 6.416643252E-03
 1.500000000E-01 -1.000000000E+00 3.400106380E-03
 2.000000000E-01 -1.000000000E+00 4.340600157E-04
 2.500000000E-01 -1.000000000E+00 -2.239011067E-03
 3.000000000E-01 -1.000000000E+00 -4.579768743E-03
 3.500000000E-01 -1.000000000E+00 -6.418121323E-03
 4.000000000E-01 -1.000000000E+00 -7.704784067E-03
 4.500000000E-01 -1.000000000E+00 -8.353856324E-03
 5.000000000E-01 -1.000000000E+00 -8.318008118E-03
 5.500000000E-01 -1.000000000E+00 -7.652685407E-03
 6.000000000E-01 -1.000000000E+00 -6.328375709E-03
 6.500000000E-01 -1.000000000E+00 -4.485862672E-03
 7.000000000E-01 -1.000000000E+00 -2.135833658E-03
 7.500000000E-01 -1.000000000E+00 5.896846520E-04
 8.000000000E-01 -1.000000000E+00 3.453407341E-03
 8.500000000E-01 -1.000000000E+00 6.554075725E-03
 9.000000000E-01 -1.000000000E+00 9.385676844E-03
 9.500000000E-01 -1.000000000E+00 1.240105307E-02
 1.000000000E+00 -1.000000000E+00 1.539380992E-02
 1.050000000E+00 -1.000000000E+00 1.793979371E-02
 1.100000000E+00 -1.000000000E+00 2.022700652E-02
 1.150000000E+00 -1.000000000E+00 2.224023059E-02
 1.200000000E+00 -1.000000000E+00 2.393167516E-02
 1.250000000E+00 -1.000000000E+00 2.529256632E-02
 1.300000000E+00 -1.000000000E+00 2.635455962E-02
 1.350000000E+00 -1.000000000E+00 2.713454075E-02
 1.400000000E+00 -1.000000000E+00 2.767960103E-02
 1.450000000E+00 -1.000000000E+00 2.797035667E-02
 1.500000000E+00 -1.000000000E+00 2.808918183E-02
 1.550000000E+00 -1.000000000E+00 2.801021689E-02
 1.600000000E+00 -1.000000000E+00 2.781495447E-02
 1.650000000E+00 -1.000000000E+00 2.747492803E-02
 1.700000000E+00 -1.000000000E+00 2.706287853E-02
 1.750000000E+00 -1.000000000E+00 2.655851990E-02
 1.800000000E+00 -1.000000000E+00 2.602044409E-02
 1.850000000E+00 -1.000000000E+00 2.543311001E-02
 1.900000000E+00 -1.000000000E+00 2.483879725E-02
 1.950000000E+00 -1.000000000E+00 2.421362013E-02
 2.000000000E+00 -1.000000000E+00 2.358966362E-02
 2.050000000E+00 -1.000000000E+00 2.296814349E-02
 2.100000000E+00 -1.000000000E+00 2.236864656E-02
 2.150000000E+00 -1.000000000E+00 2.179126842E-02
 2.200000000E+00 -1.000000000E+00 2.120101730E-02
 2.250000000E+00 -1.000000000E+00 2.072344814E-02
 2.300000000E+00 -1.000000000E+00 2.012002794E-02
 2.350000000E+00 -1.000000000E+00 1.968221905E-02
 2.400000000E+00 -1.000000000E+00 1.916224989E-02
 2.450000000E+00 -1.000000000E+00 1.874963689E-02
 2.500000000E+00 -1.000000000E+00 1.837290326E-02
 2.550000000E+00 -1.000000000E+00 1.800083058E-02
 2.600000000E+00 -1.000000000E+00 1.768109792E-02
 2.650000000E+00 -1.000000000E+00 1.734443232E-02
 2.700000000E+00 -1.000000000E+00 1.707828119E-02
 2.750000000E+00 -1.000000000E+00 1.678423018E-02
 2.800000000E+00 -1.000000000E+00 1.654064858E-02
 2.850000000E+00 -1.000000000E+00 1.632215368E-02
 2.900000000E+00 -1.000000000E+00 1.610824747E-02
 2.950000000E+00 -1.000000000E+00 1.590646028E-02
 3.000000000E+00 -1.000000000E+00 1.569684876E-02
 3.050000000E+00 -1.000000000E+00 1.546982627E-02
 3.100000000E+00 -1.000000000E+00 1.517839427E-02
 3.150000000E+00 -1.000000000E+00 1.487895055E-02
 3.200000000E+00 -1.000000000E+00 1.447509078E-02
 3.250000000E+00 -1.000000000E+00 1.397574259E-02
 3.300000000E+00 -1.000000000E+00 1.332781351E-02
 3.350000000E+00 -1.000000000E+00 1.241105407E-02
 3.400000000E+00 -1.000000000E+00 1.108117512E-02
 3.450000000E+00 -1.000000000E+00 8.851934397E-03
 3.500000000E+00 -9.500000000E-01 5.653199084E-03
 3.500000000E+00 -9.000000000E-01 6.868458120E-03
 3.500000000E+00 -8.500000000E-01 8.088584428E-03
 3.500000000E+00 -8.000000000E-01 9.294255105E-03
 3.500000000E+00 -7.500000000E-01 1.046041888E-02
 3.500000000E+00 -7.000000000E-01 1.169120516E-02
 3.500000000E+00 -6.500000000E-01 1.296839215E-02
 3.500000000E+00 -6.000000000E-01 1.435322685E-02
 3.500000000E+00 -5.500000000E-01 1.587669930E-02
 3.500000000E+00 -5.000000000E-01 1.752291708E-02
 3.500000000E+00 -4.500000000E-01 1.922506386E-02
 3.500000000E+00 -4.000000000E-01 2.107353051E-02
 3.500000000E+00 -3.500000000E-01 2.294513474E-02
 3.500000000E+00 -3.000000000E-01 2.477376100E-02
 3.500000000E+00 -2.500000000E-01 2.621744130E-02
 3.500000000E+00 -2.000000000E-01 2.677603744E-02
 3.500000000E+00 -1.500000000E-01 2.659455964E-02
 3.500000000E+00 -1.000000000E-01 2.571927845E-02
 3.500000000E+00 -5.000000000E-02 2.486115944E-02
 3.500000000E+00 -2.752242878E-12 2.434624803E-02
 3.500000000E+00 5.000000000E-02 2.413083499E-02
 3.500000000E+00 1.000000000E-01 2.372792980E-02
 3.500000000E+00 1.500000000E-01 2.287491453E-02
 3.500000000E+00 2.000000000E-01 2.092038682E-02
 3.500000000E+00 2.500000000E-01 1.849348030E-02
 3.500000000E+00 3.000000000E-01 1.578496416E-02
 3.500000000E+00 3.500000000E-01 1.324804887E-02
 3.500000000E+00 4.000000000E-01 1.089732454E-02
 3.500000000E+00 4.500000000E-01 8.775080946E-03
 3.500000000E+00 5.000000000E-01 6.796669142E-03
 3.500000000E+00 5.500000000E-01 5.112758887E-03
 3.500000000E+00 6.000000000E-01 3.907305690E-03
 3.500000000E+00 6.500000000E-01 3.321018158E-03
 3.500000000E+00 7.000000000E-01 3.122343890E-03
 3.500000000E+00 7.500000000E-01 2.728917663E-03
 3.500000000E+00 8.000000000E-01 7.943148015E-04
 3.500000000E+00 8.500000000E-01 -2.943043798E-03
 3.500000000E+00 9.000000000E-01 -7.981662910E-03
 3.500000000E+00 9.500000000E-01 -1.514075758E-02
 3.450000000E+00 1.000000000E+00 -8.911888325E-03
 3.400000000E+00 1.000000000E+00 -3.492713623E-03
 3.350000000E+00 1.000000000E+00 -8.431877341E-04
 3.300000000E+00 1.000000000E+00 3.776524597E-04
 3.250000000E+00 1.000000000E+00 9.966744518E-04
 3.200000000E+00 1.000000000E+00 1.483529534E-03
 3.150000000E+00 1.000000000E+00 1.419996127E-03
 3.100000000E+00 1.000000000E+00 1.468904804E-03
 3.050000000E+00 1.000000000E+00 1.121309663E-03
 3.000000000E+00 1.000000000E+00 9.081580963E-04
 2.950000000E+00 1.000000000E+00 4.340964813E-04
 2.900000000E+00 1.000000000E+00 3.803201256E-05
 2.850000000E+00 1.000000000E+00 -5.256235691E-04
 2.800000000E+00 1.000000000E+00 -1.135926629E-03
 2.750000000E+00 1.000000000E+00 -1.712900197E-03
 2.700000000E+00 1.000000000E+00 -2.543236526E-03
 2.650000000E+00 1.000000000E+00 -3.244028972E-03
 2.600000000E+00 1.000000000E+00 -4.056188804E-03
 2.550000000E+00 1.000000000E+00 -4.938430952E-03
 2.500000000E+00 1.000000000E+00 -5.868235389E-03
 2.450000000E+00 1.000000000E+00 -6.883381458E-03
 2.400000000E+00 1.000000000E+00 -7.915542812E-03
 2.350000000E+00 1.000000000E+00 -9.148001511E-03
 2.300000000E+00 1.000000000E+00 -1.018899966E-02
 2.250000000E+00 1.000000000E+00 -1.165761753E-02
 2.200000000E+00 1.000000000E+00 -1.288635060E-02
 2.150000000E+00 1.000000000E+00 -1.443795567E-02
 2.100000000E+00 1.000000000E+00 -1.588990969E-02
 2.050000000E+00 1.000000000E+00 -1.753574155E-02
 2.000000000E+00 1.000000000E+00 -1.939689469E-02
 1.950000000E+00 1.000000000E+00 -2.126458803E-02
 1.900000000E+00 1.000000000E+00 -2.341572938E-02
 1.850000000E+00 1.000000000E+00 -2.561932319E-02
 1.800000000E+00 1.000000000E+00 -2.785477368E-02
 1.750000000E+00 1.000000000E+00 -3.054582560E-02
 1.700000000E+00 1.000000000E+00 -3.304305322E-02
 1.650000000E+00 1.000000000E+00 -3.600310327E-02
 1.600000000E+00 1.000000000E+00 -3.921546703E-02
 1.550000000E+00 1.000000000E+00 -4.274392982E-02
 1.500000000E+00 1.000000000E+00 -4.608915604E-02
 1.450000000E+00 1.000000000E+00 -4.989189533E-02
 1.400000000E+00 1.000000000E+00 -5.392006251E-02
 1.350000000E+00 1.000000000E+00 -5.802053210E-02
 1.300000000E+00 1.000000000E+00 -6.230162434E-02
 1.250000000E+00 1.000000000E+00 -6.699962711E-02
 1.200000000E+00 1.000000000E+00 -7.132716418E-02
 1.150000000E+00 1.000000000E+00 -7.592806768E-02
 1.100000000E+00 1.000000000E+00 -8.058456003E-02
 1.050000000E+00 1.000000000E+00 -8.449278364E-02
 1.000000000E+00 1.000000000E+00 -8.871595752E-02
 9.500000000E-01 1.000000000E+00 -9.242923387E-02
 9.000000000E-01 1.000000000E+00 -9.524182270E-02
 8.500000000E-01 1.000000000E+00 -9.803666146E-02
 8.000000000E-01 1.000000000E+00 -9.962782266E-02
 7.500000000E-01 1.000000000E+00 -1.006663366E-01
 7.000000000E-01 1.000000000E+00 -1.005754247E-01
 6.500000000E-01 1.000000000E+00 -1.005756577E-01
 6.000000000E-01 1.000000000E+00 -9.762272710E-02
 5.500000000E-01 1.000000000E+00 -9.526519602E-02
 5.000000000E-01 1.000000000E+00 -9.172873620E-02
 4.500000000E-01 1.000000000E+00 -8.647494730E-02
 4.000000000E-01 1.000000000E+00 -8.196582389E-02
 3.500000000E-01 1.000000000E+00 -7.569731099E-02
 3.000000000E-01 1.000000000E+00 -6.958006043E-02
 2.500000000E-01 1.000000000E+00 -6.274324965E-02
 2.000000000E-01 1.000000000E+00 -5.557291005E-02
 1.500000000E-01 1.000000000E+00 -4.874045671E-02
 1.000000000E-01 1.000000000E+00 -4.197279138E-02
 5.000000000E-02 1.000000000E+00 -3.525211459E-02
 1.733724275E-12 1.000000000E+00 -2.913080089E-02
 -5.000000000E-02 1.000000000E+00 -2.333788816E-02
 -1.000000000E-01 1.000000000E+00 -1.819426262E-02
 -1.500000000E-01 1.000000000E+00 -1.366847995E-02
 -2.000000000E-01 1.000000000E+00 -9.823758490E-03
 -2.500000000E-01 1.000000000E+00 -6.742129356E-03
 -3.000000000E-01 1.000000000E+00 -4.223381921E-03
 -3.500000000E-01 1.000000000E+00 -2.492260748E-03
 -4.000000000E-01 1.000000000E+00 -1.293634093E-03
 -4.500000000E-01 1.000000000E+00 -5.985184125E-04
 9.855368494E-01 -4.031666980E-03 2.820851996E-01
 9.002248771E-01 -3.869091582E-03 2.844645161E-01
 8.258839112E-01 -9.640336283E-03 2.293170177E-01
 7.476180675E-01 -1.815808437E-02 1.386376406E-01
 6.776489696E-01 -2.784759531E-02 5.168200765E-02
 6.095392881E-01 -3.734774966E-02 -5.016528917E-02
 5.470349037E-01 -4.620315972E-02 -1.630987111E-01
 4.807999633E-01 -5.261892762E-02 -2.923814590E-01
 4.251276415E-01 -5.764945071E-02 -3.688808481E-01
 3.653489155E-01 -5.804936453E-02 -3.938324786E-01
 3.121772232E-01 -5.746171033E-02 -3.706284151E-01
 2.552961649E-01 -5.601375599E-02 -3.261360408E-01
 1.938292483E-01 -4.972128991E-02 -2.755590742E-01
 1.364463273E-01 -4.410298651E-02 -2.265450294E-01