TITLE     = "Visualization of the solution"
VARIABLES = "x"
"y"
"Pressure_Coefficient"
ZONE T="Zone"
 STRANDID=0, SOLUTIONTIME=0
 Nodes=11581, Elements=22583, ZONETYPE=FEQuadrilateral
 DATAPACKING=POINT
 DT=(DOUBLE DOUBLE DOUBLE )
 9.998003840E-01 5.188338691E-04 2.811092383E-01
 9.851583838E-01 3.434055019E-03 2.782761678E-01
 9.722933173E-01 5.989164114E-03 1.936252566E-01
 9.578695297E-01 8.917169645E-03 1.165834392E-01
 9.443041086E-01 1.154812984E-02 8.243546662E-02
 9.323901534E-01 1.390630845E-02 3.054030947E-02
 9.211853147E-01 1.600079425E-02 1.576337983E-02
 9.094614983E-01 1.822873577E-02 -1.726759589E-02
 8.983235359E-01 2.032143623E-02 -4.841190288E-02
 8.866831064E-01 2.247003838E-02 -8.758583539E-02
 8.746308684E-01 2.454238012E-02 -9.687245870E-02
 8.628247380E-01 2.654457465E-02 -1.056552411E-01
 8.510348797E-01 2.859055623E-02 -1.528684172E-01
 8.392026424E-01 3.046017513E-02 -1.518483060E-01
 8.275753856E-01 3.229781985E-02 -1.681138232E-01
 8.148394823E-01 3.425528482E-02 -1.835895029E-01
 8.018459082E-01 3.620031103E-02 -1.939584657E-01
 7.899615765E-01 3.797728196E-02 -2.194386706E-01
 7.771196365E-01 3.979333490E-02 -2.227106719E-01
 7.651363015E-01 4.149384797E-02 -2.388416669E-01
 7.521776557E-01 4.330860078E-02 -2.655817290E-01
 7.382113338E-01 4.514431953E-02 -2.690894033E-01
 7.272838950E-01 4.658380523E-02 -2.881028350E-01
 7.158756852E-01 4.803368077E-02 -2.991466868E-01
 7.040527463E-01 4.950610921E-02 -3.130711555E-01
 6.907209754E-01 5.112751946E-02 -3.326965592E-01
 6.776847839E-01 5.265132710E-02 -3.540428626E-01
 6.668872833E-01 5.383647233E-02 -3.549074676E-01
 6.552793980E-01 5.510791391E-02 -3.764378432E-01
 6.441427469E-01 5.626070127E-02 -3.879447376E-01
 6.322601438E-01 5.743562058E-02 -4.002363705E-01
 6.208671927E-01 5.850717425E-02 -4.103852840E-01
 6.101326346E-01 5.947724357E-02 -4.242305994E-01
 5.979381204E-01 6.050806120E-02 -4.353085015E-01
 5.861505270E-01 6.144322082E-02 -4.459107664E-01
 5.725609064E-01 6.243798882E-02 -4.590545922E-01
 5.597125888E-01 6.328056753E-02 -4.632256870E-01
 5.468363166E-01 6.405910105E-02 -4.726342739E-01
 5.355367064E-01 6.468104571E-02 -4.815589531E-01
 5.234660506E-01 6.526757777E-02 -4.871568027E-01
 5.105211735E-01 6.580800563E-02 -4.912296789E-01
 4.995303154E-01 6.620278209E-02 -4.944529970E-01
 4.861483872E-01 6.658903509E-02 -4.918334408E-01
 4.729966819E-01 6.690550596E-02 -4.968767694E-01
 4.588438570E-01 6.714449823E-02 -4.998436871E-01
 4.446231723E-01 6.726489216E-02 -4.920585826E-01
 4.313073456E-01 6.732187420E-02 -4.962363285E-01
 4.177763760E-01 6.728161126E-02 -4.944320861E-01
 4.052122831E-01 6.716609001E-02 -4.902422207E-01
 3.921874762E-01 6.697341055E-02 -4.880817639E-01
 3.798226714E-01 6.671779603E-02 -4.832985932E-01
 3.681395352E-01 6.642656773E-02 -4.833547418E-01
 3.546205759E-01 6.599884480E-02 -4.796774849E-01
 3.422480822E-01 6.552808732E-02 -4.712846192E-01
 3.298100829E-01 6.500361860E-02 -4.726525101E-01
 3.193047643E-01 6.449288875E-02 -4.647366415E-01
 3.071073592E-01 6.384756416E-02 -4.624579328E-01
 2.939082682E-01 6.305830926E-02 -4.544745263E-01
 2.799718678E-01 6.213959679E-02 -4.482835147E-01
 2.673905790E-01 6.123125553E-02 -4.396670783E-01
 2.555634379E-01 6.032833457E-02 -4.405396430E-01
 2.428109646E-01 5.924667791E-02 -4.290759941E-01
 2.300049067E-01 5.808877200E-02 -4.224080334E-01
 2.178522348E-01 5.691393092E-02 -4.173414108E-01
 2.060517818E-01 5.568530783E-02 -4.080262662E-01
 1.946797371E-01 5.443320051E-02 -3.995769528E-01
 1.825216711E-01 5.301869661E-02 -3.953202538E-01
 1.708545387E-01 5.156090856E-02 -3.864566910E-01
 1.593859494E-01 5.003549531E-02 -3.744912822E-01
 1.478236169E-01 4.841161892E-02 -3.662547223E-01
 1.372075230E-01 4.683366045E-02 -3.569362283E-01
 1.260897815E-01 4.508309439E-02 -3.467126714E-01
 1.150220260E-01 4.323101044E-02 -3.372158470E-01
 1.044627950E-01 4.134510830E-02 -3.220858055E-01
 9.482549876E-02 3.952710703E-02 -3.123248754E-01
 8.409468830E-02 3.736547381E-02 -2.980861251E-01
 7.261296362E-02 3.486986458E-02 -2.825355085E-01
 6.296809018E-02 3.261036426E-02 -2.639751983E-01
 5.342088267E-02 3.018016741E-02 -2.417209597E-01
 4.447818920E-02 2.770150267E-02 -2.221542436E-01
 3.674731031E-02 2.535597421E-02 -1.980030988E-01
 3.010828793E-02 2.314789221E-02 -1.698785864E-01
 2.436626889E-02 2.105368674E-02 -1.481354081E-01
 2.020765282E-02 1.938703284E-02 -1.130747019E-01
 1.630282402E-02 1.767251641E-02 -8.469180400E-02
 1.341972314E-02 1.629246585E-02 -4.914327230E-02
 1.088814158E-02 1.496997103E-02 -1.878258816E-02
 8.996280842E-03 1.390066743E-02 1.727195308E-02
 7.268371992E-03 1.283580344E-02 4.603372507E-02
 5.658610258E-03 1.174640469E-02 1.244845639E-01
 3.523530439E-03 1.011511590E-02 2.167208105E-01
 1.745688263E-03 8.496515453E-03 2.914060117E-01
 2.619281586E-04 6.816481706E-03 5.232649856E-01
 -1.185459783E-03 4.527871963E-03 7.601724787E-01
 -1.874378184E-03 2.728963504E-03 9.238172983E-01
 -2.160961740E-03 1.270562760E-03 1.051104821E+00
 -2.185568912E-03 -5.229635863E-04 1.118384148E+00
 -1.793147996E-03 -2.625260269E-03 1.096748239E+00
 -8.164948667E-04 -5.028635729E-03 9.496169700E-01
 7.878586184E-04 -7.577145007E-03 7.780141404E-01
 3.056762274E-03 -1.023400761E-02 6.044947198E-01
 5.068425089E-03 -1.215507369E-02 4.567179023E-01
 7.467432879E-03 -1.414221618E-02 3.663189471E-01
 9.254583158E-03 -1.546828076E-02 2.711240254E-01
 1.144855842E-02 -1.696108654E-02 2.197753536E-01
 1.401129644E-02 -1.855876483E-02 1.475954309E-01
 1.743913256E-02 -2.049932443E-02 8.198426620E-02
 2.077339962E-02 -2.222177014E-02 1.423344409E-02
 2.502332255E-02 -2.422213741E-02 -3.492165765E-02
 3.064527921E-02 -2.661948837E-02 -8.617392796E-02
 3.653424606E-02 -2.888466418E-02 -1.406233111E-01
 4.388723895E-02 -3.144275025E-02 -1.756035772E-01
 5.166320130E-02 -3.389492631E-02 -2.123973359E-01
 6.064606085E-02 -3.645957634E-02 -2.375668529E-01
 6.951708347E-02 -3.876824677E-02 -2.693680005E-01
 8.019091934E-02 -4.131269827E-02 -2.850982164E-01
 9.021142870E-02 -4.350539297E-02 -3.025273003E-01
 1.008132994E-01 -4.566321149E-02 -3.205674843E-01
 1.120988429E-01 -4.778341949E-02 -3.322947985E-01
 1.236798465E-01 -4.980836809E-02 -3.468092146E-01
 1.354098320E-01 -5.171481147E-02 -3.598211553E-01
 1.459085047E-01 -5.330787227E-02 -3.711457236E-01
 1.571406573E-01 -5.491616577E-02 -3.855300479E-01
 1.691459864E-01 -5.650606751E-02 -3.930766157E-01
 1.809558421E-01 -5.797524750E-02 -4.074470408E-01
 1.926636994E-01 -5.932573229E-02 -4.188105752E-01
 2.032014728E-01 -6.045248359E-02 -4.276632872E-01
 2.144189179E-01 -6.157510728E-02 -4.382907643E-01
 2.266382873E-01 -6.271171570E-02 -4.542287919E-01
 2.388759553E-01 -6.372816861E-02 -4.615981738E-01
 2.508295774E-01 -6.463221461E-02 -4.745677391E-01
 2.632641494E-01 -6.546255946E-02 -4.835475262E-01
 2.741875648E-01 -6.611060351E-02 -4.974966263E-01
 2.866154909E-01 -6.673237681E-02 -5.037105358E-01
 2.988835573E-01 -6.722857803E-02 -5.081141553E-01
 3.115728199E-01 -6.763878465E-02 -5.173534192E-01
 3.229858577E-01 -6.790827960E-02 -5.274612427E-01
 3.355290592E-01 -6.807152182E-02 -5.289575307E-01
 3.459300995E-01 -6.811206043E-02 -5.337636473E-01
 3.571968973E-01 -6.805130839E-02 -5.330104708E-01
 3.680923581E-01 -6.788118929E-02 -5.281702877E-01
 3.788074553E-01 -6.762948632E-02 -5.298332024E-01
 3.900005817E-01 -6.724124402E-02 -5.174440041E-01
 4.026129246E-01 -6.668965518E-02 -5.106241017E-01
 4.145017266E-01 -6.603571773E-02 -4.961751572E-01
 4.272323251E-01 -6.520610303E-02 -4.803013830E-01
 4.398465753E-01 -6.426160038E-02 -4.676763598E-01
 4.524036646E-01 -6.314674020E-02 -4.322140180E-01
 4.646637738E-01 -6.198376790E-02 -4.150576260E-01
 4.772418439E-01 -6.067490950E-02 -3.891342452E-01
 4.891557097E-01 -5.933597684E-02 -3.629130070E-01
 5.017412901E-01 -5.783541873E-02 -3.361096886E-01
 5.153639913E-01 -5.610663071E-02 -3.031142148E-01
 5.289766788E-01 -5.430304259E-02 -2.735801627E-01
 5.420655608E-01 -5.251235887E-02 -2.489945098E-01
 5.557019711E-01 -5.054498836E-02 -2.102149278E-01
 5.688897967E-01 -4.865450040E-02 -1.939511397E-01
 5.823878050E-01 -4.663920030E-02 -1.623936919E-01
 5.952460766E-01 -4.469523206E-02 -1.382768671E-01
 6.079446673E-01 -4.274630919E-02 -1.116862646E-01
 6.216383576E-01 -4.064558074E-02 -8.995066855E-02
 6.357400417E-01 -3.847724944E-02 -6.973109484E-02
 6.494250894E-01 -3.632923216E-02 -4.074214197E-02
 6.629291177E-01 -3.425974399E-02 -2.884453878E-02
 6.764563322E-01 -3.213319182E-02 -5.183316918E-04
 6.889146566E-01 -3.020496294E-02 1.590275716E-02
 7.013328075E-01 -2.828777395E-02 3.540603271E-02
 7.162086368E-01 -2.602147870E-02 5.330616849E-02
 7.294460535E-01 -2.403166890E-02 6.688257544E-02
 7.405722141E-01 -2.232117578E-02 9.304518331E-02
 7.536258101E-01 -2.038967609E-02 1.051443181E-01
 7.664211392E-01 -1.852564141E-02 1.202111299E-01
 7.795034051E-01 -1.662362181E-02 1.417274966E-01
 7.915947437E-01 -1.490908023E-02 1.582422108E-01
 8.042075634E-01 -1.318206359E-02 1.703937547E-01
 8.150051832E-01 -1.169894263E-02 1.933553091E-01
 8.264061809E-01 -1.022791676E-02 2.015292994E-01
 8.387734890E-01 -8.667963557E-03 2.189870829E-01
 8.508556485E-01 -7.200681139E-03 2.367126498E-01
 8.627710342E-01 -5.825801753E-03 2.550726849E-01
 8.741931915E-01 -4.630008712E-03 2.644995781E-01
 8.855757117E-01 -3.511362243E-03 2.801304182E-01
 8.985233307E-01 -2.389686881E-03 2.879712027E-01
 9.085619450E-01 -1.619220944E-03 2.983442482E-01
 9.189131856E-01 -9.353238856E-04 3.035394968E-01
 9.286853075E-01 -3.973828279E-04 3.057533227E-01
 9.381670356E-01 2.825374213E-05 3.098226360E-01
 9.501940608E-01 4.366202920E-04 3.085345594E-01
 9.637879729E-01 7.032649592E-04 3.035618086E-01
 9.778491259E-01 7.853637217E-04 2.993128636E-01
 9.904258251E-01 6.895720726E-04 3.522315275E-01
 -5.000000000E-01 -1.000000000E+00 9.877725057E-03
 3.500000000E+00 -1.000000000E+00 4.855984978E-03
 3.500000000E+00 1.000000000E+00 -1.386438529E-02
 -5.000000000E-01 1.000000000E+00 3.092757022E-03
 9.924793839E-01 1.976444444E-03 3.546003047E-01
 9.787258506E-01 4.711609567E-03 2.283935606E-01
 9.650814235E-01 7.453166880E-03 1.487638350E-01
 9.510868192E-01 1.023264974E-02 1.005424955E-01
 9.383471310E-01 1.272721915E-02 5.172381410E-02
 9.267877340E-01 1.495355135E-02 2.645037089E-02
 9.153234065E-01 1.711476501E-02 -1.250102330E-03
 9.038925171E-01 1.927508600E-02 -3.340931515E-02
 8.925033212E-01 2.139573731E-02 -7.278626992E-02
 8.806569874E-01 2.350620925E-02 -8.951276181E-02
 8.687278032E-01 2.554347739E-02 -9.731104741E-02
 8.569298089E-01 2.756756544E-02 -1.368868766E-01
 8.451187611E-01 2.952536568E-02 -1.484069850E-01
 8.333890140E-01 3.137899749E-02 -1.605454812E-01
 8.212074339E-01 3.327655233E-02 -1.761118485E-01
 8.083426952E-01 3.522779793E-02 -1.868244803E-01
 7.959037423E-01 3.708879650E-02 -2.104016449E-01
 7.835406065E-01 3.888530843E-02 -2.182204008E-01
 7.711279690E-01 4.064359143E-02 -2.305568690E-01
 7.586569786E-01 4.240122437E-02 -2.563184436E-01
 7.451944947E-01 4.422646016E-02 -2.642548515E-01
 7.327476144E-01 4.586406238E-02 -2.801444422E-01
 7.215797901E-01 4.730874300E-02 -2.931282241E-01
 7.099642158E-01 4.876989499E-02 -3.059960819E-01
 6.973868608E-01 5.031681433E-02 -3.235977277E-01
 6.842028797E-01 5.188942328E-02 -3.443388539E-01
 6.722860336E-01 5.324389972E-02 -3.515168800E-01
 6.610833406E-01 5.447219312E-02 -3.671212051E-01
 6.497110724E-01 5.568430759E-02 -3.827432022E-01
 6.382014453E-01 5.684816092E-02 -3.939085594E-01
 6.265636683E-01 5.797139741E-02 -4.045162244E-01
 6.154999137E-01 5.899220891E-02 -4.189970256E-01
 6.040353775E-01 5.999265239E-02 -4.293331729E-01
 5.920443237E-01 6.097564101E-02 -4.418838130E-01
 5.793557167E-01 6.194060482E-02 -4.531596594E-01
 5.661367476E-01 6.285927817E-02 -4.603755585E-01
 5.532744527E-01 6.366983429E-02 -4.670305859E-01
 5.411865115E-01 6.437007338E-02 -4.785260114E-01
 5.295013785E-01 6.497431174E-02 -4.853847073E-01
 5.169936121E-01 6.553779170E-02 -4.877316789E-01
 5.050257444E-01 6.600539386E-02 -4.953918170E-01
 4.928393513E-01 6.639590859E-02 -4.915607568E-01
 4.795725346E-01 6.674727052E-02 -4.956822546E-01
 4.659202695E-01 6.702500209E-02 -4.998614551E-01
 4.517335147E-01 6.720469519E-02 -4.935615847E-01
 4.379652590E-01 6.729338318E-02 -4.954078145E-01
 4.245418608E-01 6.730174273E-02 -4.948636979E-01
 4.114943296E-01 6.722385064E-02 -4.923710155E-01
 3.986998796E-01 6.706975028E-02 -4.890379095E-01
 3.860050738E-01 6.684560329E-02 -4.842393903E-01
 3.739811033E-01 6.657218188E-02 -4.855427909E-01
 3.613800555E-01 6.621270627E-02 -4.814079918E-01
 3.484343290E-01 6.576346606E-02 -4.742711822E-01
 3.360290825E-01 6.526585296E-02 -4.716165090E-01
 3.245574236E-01 6.474825367E-02 -4.688360896E-01
 3.132060617E-01 6.417022645E-02 -4.652826638E-01
 3.005078137E-01 6.345293671E-02 -4.590661574E-01
 2.869400680E-01 6.259895302E-02 -4.507057993E-01
 2.736812234E-01 6.168542616E-02 -4.422896724E-01
 2.614770085E-01 6.077979505E-02 -4.431276485E-01
 2.491872013E-01 5.978750624E-02 -4.341312374E-01
 2.364079356E-01 5.866772495E-02 -4.252160931E-01
 2.239285707E-01 5.750135146E-02 -4.207593167E-01
 2.119520083E-01 5.629961938E-02 -4.118362447E-01
 2.003657594E-01 5.505925417E-02 -4.040885256E-01
 1.886007041E-01 5.372594856E-02 -3.983626045E-01
 1.766881049E-01 5.228980258E-02 -3.907638639E-01
 1.651202440E-01 5.079820193E-02 -3.801062006E-01
 1.536047831E-01 4.922355711E-02 -3.699013797E-01
 1.425155699E-01 4.762263969E-02 -3.623941571E-01
 1.316486523E-01 4.595837742E-02 -3.522299803E-01
 1.205559038E-01 4.415705241E-02 -3.424157680E-01
 1.097424105E-01 4.228805937E-02 -3.316207438E-01
 8.946009353E-02 3.844629042E-02 -3.082916861E-01
 7.835382596E-02 3.611766919E-02 -2.890990510E-01
 7.485400140E-02 -4.004047252E-02 -2.789798039E-01
 8.520117402E-02 -4.240904562E-02 -2.973984283E-01
 9.551236406E-02 -4.458430223E-02 -3.106617689E-01
 1.064560711E-01 -4.672331549E-02 -3.269349092E-01
 1.178893447E-01 -4.879589379E-02 -3.398854143E-01
 1.295448393E-01 -5.076158978E-02 -3.539147994E-01
 1.406591684E-01 -5.251134187E-02 -3.675997645E-01
 1.515245810E-01 -5.411201902E-02 -3.765389784E-01
 1.631433219E-01 -5.571111664E-02 -3.896908208E-01
 1.750509143E-01 -5.724065751E-02 -4.001464281E-01
 1.868097708E-01 -5.865048990E-02 -4.137312448E-01
 1.979325861E-01 -5.988910794E-02 -4.250056050E-01
 2.088101953E-01 -6.101379544E-02 -4.315915937E-01
 2.205286026E-01 -6.214341149E-02 -4.445945817E-01
 2.327571213E-01 -6.321994215E-02 -4.593620359E-01
 2.448527664E-01 -6.418019161E-02 -4.677743185E-01
 2.570468634E-01 -6.504738703E-02 -4.791541841E-01
 2.687258571E-01 -6.578658149E-02 -4.912516825E-01
 2.804015279E-01 -6.642149016E-02 -4.996298461E-01
 2.927495241E-01 -6.698047742E-02 -5.068754544E-01
 3.052281886E-01 -6.743368134E-02 -5.114378864E-01
 3.172793388E-01 -6.777353212E-02 -5.234580701E-01
 3.292574584E-01 -6.798990071E-02 -5.277066313E-01
 3.407295793E-01 -6.809179112E-02 -5.336123858E-01
 3.515634984E-01 -6.808168441E-02 -5.322393405E-01
 3.626446277E-01 -6.796624884E-02 -5.322673152E-01
 3.734499067E-01 -6.775533780E-02 -5.275678800E-01
 3.844040185E-01 -6.743536517E-02 -5.247838300E-01
 3.963067532E-01 -6.696544960E-02 -5.118258926E-01
 4.085573256E-01 -6.636268646E-02 -5.050795465E-01
 4.208670259E-01 -6.562091038E-02 -4.876742161E-01
 4.335394502E-01 -6.473385170E-02 -4.736873652E-01
 4.461251199E-01 -6.370417029E-02 -4.538667204E-01
 4.585337192E-01 -6.256525405E-02 -4.219712592E-01
 4.709528089E-01 -6.132933870E-02 -4.027161632E-01
 4.831987768E-01 -6.000544317E-02 -3.773142553E-01
 4.954484999E-01 -5.858569779E-02 -3.495542035E-01
 5.085526407E-01 -5.697102472E-02 -3.205077054E-01
 5.221703351E-01 -5.520483665E-02 -2.883624349E-01
 5.355211198E-01 -5.340770073E-02 -2.608416554E-01
 5.488837659E-01 -5.152867362E-02 -2.317228258E-01
 5.622958839E-01 -4.959974438E-02 -1.989858045E-01
 5.756388009E-01 -4.764685035E-02 -1.799038327E-01
 5.888169408E-01 -4.566721618E-02 -1.503635725E-01
 6.015953720E-01 -4.372077063E-02 -1.254951956E-01
 6.147915125E-01 -4.169594496E-02 -1.002926100E-01
 6.286891997E-01 -3.956141509E-02 -7.903625123E-02
 6.425825655E-01 -3.740324080E-02 -5.706027806E-02
 6.561771035E-01 -3.529448807E-02 -3.214664778E-02
 6.696927249E-01 -3.319646791E-02 -1.685212391E-02
 6.826854944E-01 -3.116907738E-02 8.704361126E-03
 6.951237321E-01 -2.924636845E-02 2.511611427E-02
 7.087707222E-01 -2.715462632E-02 4.425233512E-02
 7.228273451E-01 -2.502657380E-02 6.142496269E-02
 7.350091338E-01 -2.317642234E-02 7.714051438E-02
 7.470990121E-01 -2.135542594E-02 9.985657006E-02
 7.600234747E-01 -1.945765875E-02 1.131467315E-01
 7.729622722E-01 -1.757463161E-02 1.295029892E-01
 7.855490744E-01 -1.576635102E-02 1.501427765E-01
 7.979011536E-01 -1.404557191E-02 1.650760757E-01
 8.096063733E-01 -1.244050311E-02 1.795401494E-01
 8.207056820E-01 -1.096342970E-02 1.988753116E-01
 8.325898349E-01 -9.447940160E-03 2.092955164E-01
 8.448145688E-01 -7.934322348E-03 2.270646356E-01
 8.568133414E-01 -6.513241446E-03 2.451398719E-01
 8.684821129E-01 -5.227905232E-03 2.611877373E-01
 8.798844516E-01 -4.070685478E-03 2.709197676E-01
 8.920495212E-01 -2.950524562E-03 2.840331957E-01
 9.137375653E-01 -1.277272415E-03 3.032977818E-01
 9.441805482E-01 2.324370171E-04 3.074774835E-01
 9.569910169E-01 5.699426256E-04 3.059009011E-01
 9.708185494E-01 7.443143404E-04 3.018868092E-01
 9.841374755E-01 7.374678971E-04 2.903529786E-01
 -5.000000000E-01 9.500000000E-01 4.381105842E-03
 -5.000000000E-01 9.000000000E-01 6.329816203E-03
 -5.000000000E-01 8.500000000E-01 8.230439552E-03
 -5.000000000E-01 8.000000000E-01 1.061892752E-02
 -5.000000000E-01 7.500000000E-01 1.355802516E-02
 -5.000000000E-01 7.000000000E-01 1.719250746E-02
 -5.000000000E-01 6.500000000E-01 2.156364127E-02
 -5.000000000E-01 6.000000000E-01 2.671904662E-02
 -5.000000000E-01 5.500000000E-01 3.258690226E-02
 -5.000000000E-01 5.000000000E-01 3.936887416E-02
 -5.000000000E-01 4.500000000E-01 4.676400997E-02
 -5.000000000E-01 4.000000000E-01 5.481774548E-02
 -5.000000000E-01 3.500000000E-01 6.349604299E-02
 -5.000000000E-01 3.000000000E-01 7.210225030E-02
 -5.000000000E-01 2.500000000E-01 8.077540654E-02
 -5.000000000E-01 2.000000000E-01 8.892275355E-02
 -5.000000000E-01 1.500000000E-01 9.620869069E-02
 -5.000000000E-01 1.000000000E-01 1.021810427E-01
 -5.000000000E-01 5.000000000E-02 1.064157086E-01
 -5.000000000E-01 2.752242878E-12 1.086007382E-01
 -5.000000000E-01 -5.000000000E-02 1.087438173E-01
 -5.000000000E-01 -1.000000000E-01 1.067566583E-01
 -5.000000000E-01 -1.500000000E-01 1.030259197E-01
 -5.000000000E-01 -2.000000000E-01 9.762304587E-02
 -5.000000000E-01 -2.500000000E-01 9.130279460E-02
 -5.000000000E-01 -3.000000000E-01 8.415562566E-02
 -5.000000000E-01 -3.500000000E-01 7.675262575E-02
 -5.000000000E-01 -4.000000000E-01 6.932281219E-02
 -5.000000000E-01 -4.500000000E-01 6.208199601E-02
 -5.000000000E-01 -5.000000000E-01 5.529137430E-02
 -5.000000000E-01 -5.500000000E-01 4.899185322E-02
 -5.000000000E-01 -6.000000000E-01 4.324704303E-02
 -5.000000000E-01 -6.500000000E-01 3.805900638E-02
 -5.000000000E-01 -7.000000000E-01 3.343257770E-02
 -5.000000000E-01 -7.500000000E-01 2.932236378E-02
 -5.000000000E-01 -8.000000000E-01 2.558722616E-02
 -5.000000000E-01 -8.500000000E-01 2.209104336E-02
 -5.000000000E-01 -9.000000000E-01 1.849665509E-02
 -5.000000000E-01 -9.500000000E-01 1.362104174E-02
 -4.500000000E-01 -1.000000000E+00 1.236413922E-02
 -4.000000000E-01 -1.000000000E+00 1.577969565E-02
 -3.500000000E-01 -1.000000000E+00 1.704281386E-02
 -3.000000000E-01 -1.000000000E+00 1.718767709E-02
 -2.500000000E-01 -1.000000000E+00 1.648767574E-02
 -2.000000000E-01 -1.000000000E+00 1.490876791E-02
 -1.500000000E-01 -1.000000000E+00 1.253216145E-02
 -1.000000000E-01 -1.000000000E+00 9.493166488E-03
 -5.000000000E-02 -1.000000000E+00 5.741711802E-03
 -9.424683256E-13 -1.000000000E+00 1.506684415E-03
 5.000000000E-02 -1.000000000E+00 -3.104672962E-03
 1.000000000E-01 -1.000000000E+00 -7.929414046E-03
 1.500000000E-01 -1.000000000E+00 -1.284821703E-02
 2.000000000E-01 -1.000000000E+00 -1.761665159E-02
 2.500000000E-01 -1.000000000E+00 -2.208547933E-02
 3.000000000E-01 -1.000000000E+00 -2.598263436E-02
 3.500000000E-01 -1.000000000E+00 -2.967228015E-02
 4.000000000E-01 -1.000000000E+00 -3.205118197E-02
 4.500000000E-01 -1.000000000E+00 -3.382222686E-02
 5.000000000E-01 -1.000000000E+00 -3.458119491E-02
 5.500000000E-01 -1.000000000E+00 -3.444711671E-02
 6.000000000E-01 -1.000000000E+00 -3.339157425E-02
 6.500000000E-01 -1.000000000E+00 -3.149482309E-02
 7.000000000E-01 -1.000000000E+00 -2.889431926E-02
 7.500000000E-01 -1.000000000E+00 -2.570343203E-02
 8.000000000E-01 -1.000000000E+00 -2.203966078E-02
 8.500000000E-01 -1.000000000E+00 -1.816191211E-02
 9.000000000E-01 -1.000000000E+00 -1.409919607E-02
 9.500000000E-01 -1.000000000E+00 -9.860230271E-03
 1.000000000E+00 -1.000000000E+00 -5.921298198E-03
 1.050000000E+00 -1.000000000E+00 -1.968390054E-03
 1.100000000E+00 -1.000000000E+00 1.443530783E-03
 1.150000000E+00 -1.000000000E+00 4.808337517E-03
 1.200000000E+00 -1.000000000E+00 7.655719467E-03
 1.250000000E+00 -1.000000000E+00 1.024935701E-02
 1.300000000E+00 -1.000000000E+00 1.250993920E-02
 1.350000000E+00 -1.000000000E+00 1.432537994E-02
 1.400000000E+00 -1.000000000E+00 1.590767965E-02
 1.450000000E+00 -1.000000000E+00 1.712093171E-02
 1.500000000E+00 -1.000000000E+00 1.815413448E-02
 1.550000000E+00 -1.000000000E+00 1.889109927E-02
 1.600000000E+00 -1.000000000E+00 1.947137620E-02
 1.650000000E+00 -1.000000000E+00 1.985160979E-02
 1.700000000E+00 -1.000000000E+00 2.009948887E-02
 1.750000000E+00 -1.000000000E+00 2.026090453E-02
 1.800000000E+00 -1.000000000E+00 2.023890578E-02
 1.850000000E+00 -1.000000000E+00 2.026089072E-02
 1.900000000E+00 -1.000000000E+00 2.007392190E-02
 1.950000000E+00 -1.000000000E+00 1.996982612E-02
 2.000000000E+00 -1.000000000E+00 1.972865254E-02
 2.050000000E+00 -1.000000000E+00 1.951686149E-02
 2.100000000E+00 -1.000000000E+00 1.928870437E-02
 2.150000000E+00 -1.000000000E+00 1.903614313E-02
 2.200000000E+00 -1.000000000E+00 1.880331086E-02
 2.250000000E+00 -1.000000000E+00 1.856386118E-02
 2.300000000E+00 -1.000000000E+00 1.832431926E-02
 2.350000000E+00 -1.000000000E+00 1.809520677E-02
 2.400000000E+00 -1.000000000E+00 1.789906640E-02
 2.450000000E+00 -1.000000000E+00 1.781424214E-02
 2.500000000E+00 -1.000000000E+00 1.747010115E-02
 2.550000000E+00 -1.000000000E+00 1.741806954E-02
 2.600000000E+00 -1.000000000E+00 1.716918400E-02
 2.650000000E+00 -1.000000000E+00 1.706394947E-02
 2.700000000E+00 -1.000000000E+00 1.697163354E-02
 2.750000000E+00 -1.000000000E+00 1.686716227E-02
 2.800000000E+00 -1.000000000E+00 1.676530832E-02
 2.850000000E+00 -1.000000000E+00 1.667749944E-02
 2.900000000E+00 -1.000000000E+00 1.656333725E-02
 2.950000000E+00 -1.000000000E+00 1.641725636E-02
 3.000000000E+00 -1.000000000E+00 1.629804379E-02
 3.050000000E+00 -1.000000000E+00 1.612577195E-02
 3.100000000E+00 -1.000000000E+00 1.588398080E-02
 3.150000000E+00 -1.000000000E+00 1.557965497E-02
 3.200000000E+00 -1.000000000E+00 1.513634755E-02
 3.250000000E+00 -1.000000000E+00 1.456754085E-02
 3.300000000E+00 -1.000000000E+00 1.378200115E-02
 3.350000000E+00 -1.000000000E+00 1.272123876E-02
 3.400000000E+00 -1.000000000E+00 1.093431050E-02
 3.450000000E+00 -1.000000000E+00 8.084613382E-03
 3.500000000E+00 -9.500000000E-01 4.074804500E-03
 3.500000000E+00 -9.000000000E-01 5.594274938E-03
 3.500000000E+00 -8.500000000E-01 7.254890675E-03
 3.500000000E+00 -8.000000000E-01 8.866439446E-03
 3.500000000E+00 -7.500000000E-01 1.019885538E-02
 3.500000000E+00 -7.000000000E-01 1.161982258E-02
 3.500000000E+00 -6.500000000E-01 1.310575093E-02
 3.500000000E+00 -6.000000000E-01 1.482413753E-02
 3.500000000E+00 -5.500000000E-01 1.681676659E-02
 3.500000000E+00 -5.000000000E-01 1.895129490E-02
 3.500000000E+00 -4.500000000E-01 2.130302102E-02
 3.500000000E+00 -4.000000000E-01 2.387201255E-02
 3.500000000E+00 -3.500000000E-01 2.656982022E-02
 3.500000000E+00 -3.000000000E-01 2.928897041E-02
 3.500000000E+00 -2.500000000E-01 3.138777700E-02
 3.500000000E+00 -2.000000000E-01 3.284867982E-02
 3.500000000E+00 -1.500000000E-01 3.314710295E-02
 3.500000000E+00 -1.000000000E-01 3.253890027E-02
 3.500000000E+00 -5.000000000E-02 3.175373941E-02
 3.500000000E+00 -2.752242878E-12 3.136874556E-02
 3.500000000E+00 5.000000000E-02 3.144757531E-02
 3.500000000E+00 1.000000000E-01 3.137118412E-02
 3.500000000E+00 1.500000000E-01 3.052032577E-02
 3.500000000E+00 2.000000000E-01 2.865167730E-02
 3.500000000E+00 2.500000000E-01 2.587969550E-02
 3.500000000E+00 3.000000000E-01 2.269435181E-02
 3.500000000E+00 3.500000000E-01 1.967964911E-02
 3.500000000E+00 4.000000000E-01 1.682178309E-02
 3.500000000E+00 4.500000000E-01 1.420168674E-02
 3.500000000E+00 5.000000000E-01 1.173782456E-02
 3.500000000E+00 5.500000000E-01 9.592421963E-03
 3.500000000E+00 6.000000000E-01 7.948266075E-03
 3.500000000E+00 6.500000000E-01 6.929785163E-03
 3.500000000E+00 7.000000000E-01 6.357531737E-03
 3.500000000E+00 7.500000000E-01 5.601165101E-03
 3.500000000E+00 8.000000000E-01 3.675316373E-03
 3.500000000E+00 8.500000000E-01 -2.903639808E-04
 3.500000000E+00 9.000000000E-01 -6.074509118E-03
 3.500000000E+00 9.500000000E-01 -1.355736256E-02
 3.450000000E+00 1.000000000E+00 -6.636118811E-03
 3.400000000E+00 1.000000000E+00 -4.662788070E-04
 3.350000000E+00 1.000000000E+00 2.405164072E-03
 3.300000000E+00 1.000000000E+00 3.996228575E-03
 3.250000000E+00 1.000000000E+00 4.730761905E-03
 3.200000000E+00 1.000000000E+00 5.253605634E-03
 3.150000000E+00 1.000000000E+00 5.437177862E-03
 3.100000000E+00 1.000000000E+00 5.265959519E-03
 3.050000000E+00 1.000000000E+00 5.149041068E-03
 3.000000000E+00 1.000000000E+00 4.804717943E-03
 2.950000000E+00 1.000000000E+00 4.438612988E-03
 2.900000000E+00 1.000000000E+00 3.937394025E-03
 2.850000000E+00 1.000000000E+00 3.528457479E-03
 2.800000000E+00 1.000000000E+00 2.950061526E-03
 2.750000000E+00 1.000000000E+00 2.413082706E-03
 2.700000000E+00 1.000000000E+00 1.686448740E-03
 2.650000000E+00 1.000000000E+00 8.724334406E-04
 2.600000000E+00 1.000000000E+00 1.354049346E-04
 2.550000000E+00 1.000000000E+00 -7.883500571E-04
 2.500000000E+00 1.000000000E+00 -1.652182973E-03
 2.450000000E+00 1.000000000E+00 -2.496676495E-03
 2.400000000E+00 1.000000000E+00 -3.496424718E-03
 2.350000000E+00 1.000000000E+00 -4.454027383E-03
 2.300000000E+00 1.000000000E+00 -5.611613292E-03
 2.250000000E+00 1.000000000E+00 -6.786919524E-03
 2.200000000E+00 1.000000000E+00 -8.151583619E-03
 2.150000000E+00 1.000000000E+00 -9.497316724E-03
 2.100000000E+00 1.000000000E+00 -1.102559437E-02
 2.050000000E+00 1.000000000E+00 -1.244899710E-02
 2.000000000E+00 1.000000000E+00 -1.424239495E-02
 1.950000000E+00 1.000000000E+00 -1.595263193E-02
 1.900000000E+00 1.000000000E+00 -1.795378602E-02
 1.850000000E+00 1.000000000E+00 -2.005632671E-02
 1.800000000E+00 1.000000000E+00 -2.225606428E-02
 1.750000000E+00 1.000000000E+00 -2.493558026E-02
 1.700000000E+00 1.000000000E+00 -2.739232735E-02
 1.650000000E+00 1.000000000E+00 -3.046065818E-02
 1.600000000E+00 1.000000000E+00 -3.347334108E-02
 1.550000000E+00 1.000000000E+00 -3.676504913E-02
 1.500000000E+00 1.000000000E+00 -4.032999424E-02
 1.450000000E+00 1.000000000E+00 -4.450817943E-02
 1.400000000E+00 1.000000000E+00 -4.851661737E-02
 1.350000000E+00 1.000000000E+00 -5.301812995E-02
 1.300000000E+00 1.000000000E+00 -5.747411245E-02
 1.250000000E+00 1.000000000E+00 -6.261397347E-02
 1.200000000E+00 1.000000000E+00 -6.715648305E-02
 1.150000000E+00 1.000000000E+00 -7.247129816E-02
 1.100000000E+00 1.000000000E+00 -7.748643463E-02
 1.050000000E+00 1.000000000E+00 -8.264418391E-02
 1.000000000E+00 1.000000000E+00 -8.734070681E-02
 9.500000000E-01 1.000000000E+00 -9.124438239E-02
 9.000000000E-01 1.000000000E+00 -9.527553731E-02
 8.500000000E-01 1.000000000E+00 -9.841725610E-02
 8.000000000E-01 1.000000000E+00 -1.006484839E-01
 7.500000000E-01 1.000000000E+00 -1.023697623E-01
 7.000000000E-01 1.000000000E+00 -1.027113196E-01
 6.500000000E-01 1.000000000E+00 -1.021424029E-01
 6.000000000E-01 1.000000000E+00 -1.002791475E-01
 5.500000000E-01 1.000000000E+00 -9.754488433E-02
 5.000000000E-01 1.000000000E+00 -9.337596512E-02
 4.500000000E-01 1.000000000E+00 -8.886538415E-02
 4.000000000E-01 1.000000000E+00 -8.302610239E-02
 3.500000000E-01 1.000000000E+00 -7.645788455E-02
 3.000000000E-01 1.000000000E+00 -6.924726808E-02
 2.500000000E-01 1.000000000E+00 -6.182751392E-02
 2.000000000E-01 1.000000000E+00 -5.394378293E-02
 1.500000000E-01 1.000000000E+00 -4.600863676E-02
 1.000000000E-01 1.000000000E+00 -3.832887611E-02
 5.000000000E-02 1.000000000E+00 -3.081606257E-02
 1.733724275E-12 1.000000000E+00 -2.409837901E-02
 -5.000000000E-02 1.000000000E+00 -1.780675628E-02
 -1.000000000E-01 1.000000000E+00 -1.209868683E-02
 -1.500000000E-01 1.000000000E+00 -7.109218131E-03
 -2.000000000E-01 1.000000000E+00 -3.013019344E-03
 -2.500000000E-01 1.000000000E+00 3.739907204E-05
 -3.000000000E-01 1.000000000E+00 2.314673245E-03
 -3.500000000E-01 1.000000000E+00 3.773560107E-03
 -4.000000000E-01 1.000000000E+00 4.383124947E-03
 -4.500000000E-01 1.000000000E+00 3.754512767E-03
 9.744486112E-01 -5.170036177E-03 2.883957056E-01
 8.721405180E-01 -9.560819243E-03 2.574486215E-01
 8.017483852E-01 -1.868246214E-02 1.650980392E-01
 7.329405312E-01 -2.980108920E-02 7.248745967E-02
 6.669581570E-01 -3.936736598E-02 -2.121135604E-02
 5.996331638E-01 -4.980230958E-02 -1.292860832E-01
 5.329694097E-01 -5.982411482E-02 -2.620520297E-01
 4.689649719E-01 -6.664419688E-02 -3.974779501E-01
 4.118126893E-01 -7.134720439E-02 -4.879462866E-01
 3.545843078E-01 -7.286773740E-02 -5.211599918E-01
 3.021272500E-01 -7.268040832E-02 -4.997023407E-01
 2.412520182E-01 -6.974445168E-02 -4.539397732E-01
 1.831043838E-01 -6.301183377E-02 -4.005420332E-01
 1.258486354E-01 -5.506230467E-02 -3.383470914E-01