TITLE     = "Visualization of the solution"
VARIABLES = "x"
"y"
"Pressure_Coefficient"
ZONE T="Zone"
 STRANDID=0, SOLUTIONTIME=0
 Nodes=11849, Elements=23120, ZONETYPE=FEQuadrilateral
 DATAPACKING=POINT
 DT=(DOUBLE DOUBLE DOUBLE )
 1.000152349E+00 5.235738936E-04 2.377446628E-01
 9.871506095E-01 2.908843337E-03 2.458927767E-01
 9.748525620E-01 5.082240328E-03 1.664306549E-01
 9.609557390E-01 7.559378631E-03 1.052556263E-01
 9.475092888E-01 9.913722053E-03 7.189569819E-02
 9.356876016E-01 1.206825953E-02 1.188476764E-02
 9.246089458E-01 1.395200379E-02 -1.083429560E-02
 9.121283889E-01 1.604520530E-02 -4.234798780E-02
 9.005931616E-01 1.791554131E-02 -6.757678266E-02
 8.880957961E-01 1.987750456E-02 -9.103566074E-02
 8.756356239E-01 2.176292986E-02 -1.168581518E-01
 8.633068204E-01 2.350270934E-02 -1.216754985E-01
 8.504632711E-01 2.529087476E-02 -1.399705932E-01
 8.381744623E-01 2.691630833E-02 -1.448647604E-01
 8.258651495E-01 2.852136269E-02 -1.536886373E-01
 8.124559522E-01 3.024918213E-02 -1.690913725E-01
 7.990459204E-01 3.193209320E-02 -1.826056470E-01
 7.870395184E-01 3.340148926E-02 -1.950345037E-01
 7.743510604E-01 3.489844128E-02 -1.991039630E-01
 7.621281147E-01 3.633954749E-02 -2.130062202E-01
 7.492073178E-01 3.782966360E-02 -2.281869632E-01
 7.350370884E-01 3.940188512E-02 -2.363023906E-01
 7.239726186E-01 4.062046111E-02 -2.504083705E-01
 7.127715945E-01 4.181743413E-02 -2.606925038E-01
 7.008207440E-01 4.306336492E-02 -2.714306591E-01
 6.870340109E-01 4.446495697E-02 -2.872028136E-01
 6.738485694E-01 4.575264081E-02 -3.004519197E-01
 6.636784673E-01 4.671530053E-02 -3.129414250E-01
 6.519023180E-01 4.777229205E-02 -3.192391999E-01
 6.408009529E-01 4.874231294E-02 -3.299289139E-01
 6.289133430E-01 4.974215850E-02 -3.435512119E-01
 6.178143620E-01 5.062428117E-02 -3.514749836E-01
 6.068866253E-01 5.145864934E-02 -3.615425729E-01
 5.944092870E-01 5.236489326E-02 -3.781852152E-01
 5.823877454E-01 5.315500870E-02 -3.828836702E-01
 5.688883066E-01 5.398531631E-02 -3.953034920E-01
 5.560762882E-01 5.468801036E-02 -4.036508056E-01
 5.435068607E-01 5.529314652E-02 -4.026879718E-01
 5.326600075E-01 5.579115823E-02 -4.152775316E-01
 5.207766294E-01 5.625252053E-02 -4.168014468E-01
 5.078878999E-01 5.668825284E-02 -4.241809889E-01
 4.968915880E-01 5.698534846E-02 -4.206437096E-01
 4.838732481E-01 5.728739128E-02 -4.270393931E-01
 4.709175527E-01 5.749626085E-02 -4.241591363E-01
 4.565523267E-01 5.765477195E-02 -4.273404230E-01
 4.426288009E-01 5.771384388E-02 -4.261038354E-01
 4.294216633E-01 5.769119039E-02 -4.240304260E-01
 4.164796174E-01 5.759589002E-02 -4.209459994E-01
 4.041847885E-01 5.744659156E-02 -4.200179648E-01
 3.916606605E-01 5.722147599E-02 -4.170735609E-01
 3.795032203E-01 5.693316460E-02 -4.090101634E-01
 3.685890436E-01 5.664058030E-02 -4.081584763E-01
 3.555827141E-01 5.622046068E-02 -4.035483927E-01
 3.437332511E-01 5.578196794E-02 -3.996309603E-01
 3.314213455E-01 5.526533723E-02 -3.961098440E-01
 3.209951222E-01 5.477657542E-02 -3.900226715E-01
 3.089100718E-01 5.415548757E-02 -3.825737812E-01
 2.957421243E-01 5.342134833E-02 -3.776370955E-01
 2.819609940E-01 5.257685483E-02 -3.699723077E-01
 2.691643536E-01 5.173918232E-02 -3.681001267E-01
 2.568941712E-01 5.085992441E-02 -3.609749462E-01
 2.439332455E-01 4.985346645E-02 -3.491793119E-01
 2.309099585E-01 4.879136756E-02 -3.439421340E-01
 2.186163813E-01 4.772328958E-02 -3.379365390E-01
 2.067688107E-01 4.663440213E-02 -3.330822603E-01
 1.955985725E-01 4.554045200E-02 -3.227776031E-01
 1.831036359E-01 4.426339269E-02 -3.189198573E-01
 1.710019410E-01 4.294297844E-02 -3.094258394E-01
 1.592648029E-01 4.159919918E-02 -3.032742713E-01
 1.472587436E-01 4.014464468E-02 -2.955551179E-01
 1.364267915E-01 3.876258433E-02 -2.883632100E-01
 1.251272112E-01 3.724410385E-02 -2.820786450E-01
 1.134752110E-01 3.557702899E-02 -2.716025031E-01
 1.029085517E-01 3.398768231E-02 -2.647433208E-01
 9.312880039E-02 3.242991492E-02 -2.574565025E-01
 8.199837059E-02 3.054848872E-02 -2.499213162E-01
 7.014998794E-02 2.838849649E-02 -2.419495168E-01
 6.045850739E-02 2.647254430E-02 -2.309705786E-01
 5.084890127E-02 2.442324162E-02 -2.235454735E-01
 4.194013029E-02 2.234016545E-02 -2.130196272E-01
 3.445362672E-02 2.040626481E-02 -2.030666230E-01
 2.803884447E-02 1.858726703E-02 -1.875321525E-01
 2.249086089E-02 1.683561876E-02 -1.817151195E-01
 1.852952503E-02 1.545945276E-02 -1.595405031E-01
 1.487323735E-02 1.405162551E-02 -1.441221882E-01
 1.229626685E-02 1.296069007E-02 -1.192128596E-01
 1.003925037E-02 1.191272028E-02 -1.032164126E-01
 8.383327164E-03 1.107642148E-02 -7.851578446E-02
 6.858211011E-03 1.023572031E-02 -5.369467150E-02
 5.423922092E-03 9.368327446E-03 4.833553202E-03
 3.562436439E-03 8.096346632E-03 7.538606697E-02
 1.970486017E-03 6.797003560E-03 1.593160495E-01
 5.648105289E-04 5.381603260E-03 3.966379354E-01
 -7.813257398E-04 3.507115180E-03 6.418716590E-01
 -1.470182906E-03 1.990119228E-03 8.298068184E-01
 -1.778101665E-03 7.676869864E-04 9.903353319E-01
 -1.877083210E-03 -7.410917897E-04 1.101109432E+00
 -1.606457983E-03 -2.552063670E-03 1.082175443E+00
 -8.366802358E-04 -4.587968811E-03 9.960443669E-01
 5.517157842E-04 -6.835657172E-03 7.801690901E-01
 2.609473187E-03 -9.216358885E-03 6.253711703E-01
 4.426852334E-03 -1.091285795E-02 4.611108141E-01
 6.605385803E-03 -1.265131123E-02 3.811658053E-01
 8.185671642E-03 -1.378033776E-02 2.821149283E-01
 1.017574873E-02 -1.508190017E-02 2.278794218E-01
 1.256528776E-02 -1.650710218E-02 1.530303458E-01
 1.574935392E-02 -1.822194085E-02 9.356525600E-02
 1.889877580E-02 -1.977132633E-02 2.501693392E-02
 2.296054550E-02 -2.158214897E-02 -2.458029689E-02
 2.847744338E-02 -2.379048802E-02 -7.345685063E-02
 3.425525501E-02 -2.586862817E-02 -1.228893434E-01
 4.188331962E-02 -2.833048254E-02 -1.543853718E-01
 4.943177849E-02 -3.052133694E-02 -1.909227949E-01
 5.829321221E-02 -3.285431489E-02 -2.100005638E-01
 6.698545069E-02 -3.494938836E-02 -2.355265827E-01
 7.742260396E-02 -3.725406900E-02 -2.527621104E-01
 8.729337156E-02 -3.924529999E-02 -2.653209545E-01
 9.791712463E-02 -4.125378281E-02 -2.836661473E-01
 1.086806431E-01 -4.312482104E-02 -2.927739860E-01
 1.203344911E-01 -4.501422495E-02 -3.035911934E-01
 1.317314506E-01 -4.673992842E-02 -3.153945255E-01
 1.421820074E-01 -4.822799563E-02 -3.274026644E-01
 1.530977637E-01 -4.968877137E-02 -3.376265014E-01
 1.648135036E-01 -5.115973949E-02 -3.483430309E-01
 1.764099151E-01 -5.251907557E-02 -3.582343832E-01
 1.882683635E-01 -5.382230505E-02 -3.698517972E-01
 1.986991167E-01 -5.489361659E-02 -3.812256087E-01
 2.096952647E-01 -5.594344065E-02 -3.893169959E-01
 2.219864875E-01 -5.703603104E-02 -4.007353209E-01
 2.345947921E-01 -5.805545673E-02 -4.098531722E-01
 2.468591034E-01 -5.896572769E-02 -4.236127806E-01
 2.596538067E-01 -5.981339142E-02 -4.347710358E-01
 2.707559168E-01 -6.046072021E-02 -4.449613707E-01
 2.838057876E-01 -6.111954525E-02 -4.536298956E-01
 2.966092527E-01 -6.165745482E-02 -4.630931340E-01
 3.095833957E-01 -6.208318844E-02 -4.684873272E-01
 3.212875128E-01 -6.238251179E-02 -4.815254340E-01
 3.338665962E-01 -6.258350611E-02 -4.865302621E-01
 3.445428312E-01 -6.264404953E-02 -4.849881204E-01
 3.559834659E-01 -6.263904274E-02 -4.941899296E-01
 3.671691716E-01 -6.251928210E-02 -4.950650105E-01
 3.777734935E-01 -6.229405850E-02 -4.884452515E-01
 3.892805576E-01 -6.195710227E-02 -4.857473635E-01
 4.018602967E-01 -6.145293266E-02 -4.741067785E-01
 4.140517712E-01 -6.085783243E-02 -4.704803588E-01
 4.272766411E-01 -6.005066633E-02 -4.521753689E-01
 4.402731359E-01 -5.912144855E-02 -4.361761201E-01
 4.535259306E-01 -5.803279951E-02 -4.156669886E-01
 4.660448730E-01 -5.687326193E-02 -3.915799034E-01
 4.785464406E-01 -5.560287088E-02 -3.649416264E-01
 4.903540611E-01 -5.433022231E-02 -3.483048367E-01
 5.026008487E-01 -5.288798735E-02 -3.153535000E-01
 5.163651705E-01 -5.117488652E-02 -2.816450250E-01
 5.302741528E-01 -4.937947914E-02 -2.548439178E-01
 5.436148047E-01 -4.757905006E-02 -2.254094939E-01
 5.575158596E-01 -4.563711956E-02 -1.942552459E-01
 5.701947808E-01 -4.384005070E-02 -1.728763465E-01
 5.835957527E-01 -4.188587144E-02 -1.444661998E-01
 5.956519842E-01 -4.008731619E-02 -1.148905296E-01
 6.079339981E-01 -3.828725591E-02 -1.017108518E-01
 6.210699081E-01 -3.631776571E-02 -7.568399623E-02
 6.350066662E-01 -3.421616927E-02 -5.092972755E-02
 6.484414935E-01 -3.219452128E-02 -2.874661899E-02
 6.620069742E-01 -3.017366305E-02 -1.091693120E-02
 6.757032275E-01 -2.812802419E-02 1.043669040E-02
 6.882054806E-01 -2.627581172E-02 2.767075536E-02
 7.006231546E-01 -2.445037849E-02 4.454644293E-02
 7.151305676E-01 -2.231608890E-02 6.883904334E-02
 7.281972170E-01 -2.047349699E-02 7.581718502E-02
 7.394171953E-01 -1.884325966E-02 1.030349364E-01
 7.514470816E-01 -1.716608182E-02 1.145723194E-01
 7.641876340E-01 -1.542816404E-02 1.298095900E-01
 7.767772675E-01 -1.373972744E-02 1.476919731E-01
 7.887136340E-01 -1.220000163E-02 1.585510771E-01
 8.012535572E-01 -1.061341818E-02 1.745040492E-01
 8.122484684E-01 -9.260706604E-03 1.906563525E-01
 8.235617876E-01 -7.925640792E-03 2.051082063E-01
 8.361054659E-01 -6.549377926E-03 2.119652488E-01
 8.480014205E-01 -5.260616075E-03 2.330441955E-01
 8.598394990E-01 -4.087876994E-03 2.449747866E-01
 8.717339039E-01 -3.009012667E-03 2.572903842E-01
 8.841208816E-01 -2.029857831E-03 2.616488394E-01
 8.969329000E-01 -1.110767131E-03 2.748219706E-01
 9.070433974E-01 -5.160553847E-04 2.763743287E-01
 9.170134068E-01 -2.154330650E-05 2.786303846E-01
 9.261533022E-01 3.518425219E-04 2.807033067E-01
 9.350612164E-01 6.370281335E-04 2.812892783E-01
 9.476656914E-01 9.040161967E-04 2.752817239E-01
 9.614712000E-01 1.032575732E-03 2.677213178E-01
 9.770498276E-01 9.843326407E-04 2.581706458E-01
 9.901619554E-01 7.801012835E-04 2.772687223E-01
 -5.000000000E-01 -1.000000000E+00 8.046169798E-03
 3.500000000E+00 -1.000000000E+00 3.940360234E-03
 3.500000000E+00 1.000000000E+00 -9.561978767E-03
 -5.000000000E-01 1.000000000E+00 2.853254573E-03
 9.936514795E-01 1.716208615E-03 3.076329633E-01
 9.810015857E-01 3.995541832E-03 1.953082785E-01
 9.679041505E-01 6.320809480E-03 1.319639090E-01
 9.542325139E-01 8.736550342E-03 8.994196257E-02
 9.415984452E-01 1.099099079E-02 3.562272249E-02
 9.301482737E-01 1.301013166E-02 1.722225022E-03
 9.183686674E-01 1.499860454E-02 -2.706809889E-02
 9.063607752E-01 1.698037330E-02 -5.526556809E-02
 8.943444788E-01 1.889652293E-02 -7.971573015E-02
 8.818657100E-01 2.082021721E-02 -1.067202499E-01
 8.694712222E-01 2.263281960E-02 -1.171583816E-01
 8.568850458E-01 2.439679205E-02 -1.322157296E-01
 8.443188667E-01 2.610359155E-02 -1.409626899E-01
 8.320198059E-01 2.771883551E-02 -1.484835479E-01
 8.191605508E-01 2.938527241E-02 -1.618093360E-01
 8.057509363E-01 3.109063767E-02 -1.758167108E-01
 7.930427194E-01 3.266679123E-02 -1.899439177E-01
 7.806952894E-01 3.414996527E-02 -1.952511996E-01
 7.682395875E-01 3.561899439E-02 -2.066226958E-01
 7.556677163E-01 3.708460554E-02 -2.218801916E-01
 7.421222031E-01 3.861577436E-02 -2.307350060E-01
 7.295048535E-01 4.001117311E-02 -2.441889209E-01
 7.183721066E-01 4.121894762E-02 -2.555720614E-01
 7.067961693E-01 4.244039953E-02 -2.660558792E-01
 6.939273775E-01 4.376416095E-02 -2.797697835E-01
 6.804412901E-01 4.510879889E-02 -2.929804000E-01
 6.687635183E-01 4.623397067E-02 -3.083033680E-01
 6.577903926E-01 4.724379629E-02 -3.149774970E-01
 6.463516355E-01 4.825730249E-02 -3.247598375E-01
 6.348571479E-01 4.924223572E-02 -3.371982470E-01
 6.233638525E-01 5.018321984E-02 -3.471414410E-01
 6.123504937E-01 5.104146525E-02 -3.568908655E-01
 6.006479561E-01 5.191177130E-02 -3.712707840E-01
 5.883985162E-01 5.275995098E-02 -3.801941334E-01
 5.756380260E-01 5.357016250E-02 -3.897484043E-01
 5.624822974E-01 5.433666334E-02 -4.003340788E-01
 5.497915745E-01 5.499057844E-02 -4.003094265E-01
 5.380834341E-01 5.554215237E-02 -4.113503412E-01
 5.267183185E-01 5.602183938E-02 -4.160559296E-01
 5.143322647E-01 5.647038668E-02 -4.203028322E-01
 5.023897439E-01 5.683680065E-02 -4.221250996E-01
 4.903824180E-01 5.713636987E-02 -4.249907423E-01
 4.773954004E-01 5.739182606E-02 -4.257439316E-01
 4.637349397E-01 5.757551640E-02 -4.261999431E-01
 4.495905638E-01 5.768430792E-02 -4.263729478E-01
 4.360252321E-01 5.770251714E-02 -4.248830468E-01
 4.229506403E-01 5.764354020E-02 -4.217102611E-01
 4.103322029E-01 5.752124079E-02 -4.214752126E-01
 3.979227245E-01 5.733403377E-02 -4.186466829E-01
 3.855819404E-01 5.707732029E-02 -4.109741505E-01
 3.740461320E-01 5.678687245E-02 -4.104870404E-01
 3.620858788E-01 5.643052049E-02 -4.051863101E-01
 3.496579826E-01 5.600121431E-02 -4.020522124E-01
 3.375772983E-01 5.552365258E-02 -3.969969989E-01
 3.262082338E-01 5.502095632E-02 -3.938238310E-01
 3.149525970E-01 5.446603149E-02 -3.865289873E-01
 3.023260981E-01 5.378841795E-02 -3.808950595E-01
 2.888515592E-01 5.299910158E-02 -3.728150319E-01
 2.755626738E-01 5.215801857E-02 -3.697157848E-01
 2.630292624E-01 5.129955336E-02 -3.654281245E-01
 2.504137084E-01 5.035669543E-02 -3.540471821E-01
 2.374216020E-01 4.932241701E-02 -3.465850033E-01
 2.247631699E-01 4.825732857E-02 -3.407621285E-01
 2.126925960E-01 4.717884585E-02 -3.354777780E-01
 2.011836916E-01 4.608742706E-02 -3.282908843E-01
 1.893511042E-01 4.490192235E-02 -3.217084289E-01
 1.770527884E-01 4.360318556E-02 -3.134884401E-01
 1.651333719E-01 4.227108881E-02 -3.070550961E-01
 1.532617733E-01 4.087192193E-02 -2.987141355E-01
 1.418427676E-01 3.945361450E-02 -2.923962330E-01
 1.307770014E-01 3.800334409E-02 -2.866247196E-01
 1.193012111E-01 3.641056642E-02 -2.755356297E-01
 1.081918813E-01 3.478235565E-02 -2.707756831E-01
 8.756358549E-02 3.148920182E-02 -2.566093084E-01
 7.607417926E-02 2.946849260E-02 -2.476248262E-01
 7.220402732E-02 -3.610172868E-02 -2.458118124E-01
 9.260524809E-02 -4.024954140E-02 -2.752305988E-01
 1.032988839E-01 -4.218930192E-02 -2.900377168E-01
 1.145075671E-01 -4.406952299E-02 -2.982683773E-01
 1.260329708E-01 -4.587707669E-02 -3.105978949E-01
 1.369567290E-01 -4.748396203E-02 -3.225104838E-01
 1.476398855E-01 -4.895838350E-02 -3.322910854E-01
 1.589556336E-01 -5.042425543E-02 -3.423378442E-01
 1.706117094E-01 -5.183940753E-02 -3.538483880E-01
 1.823391393E-01 -5.317069031E-02 -3.638077861E-01
 1.934837401E-01 -5.435796082E-02 -3.768115382E-01
 2.041971907E-01 -5.541852862E-02 -3.851333321E-01
 2.158408761E-01 -5.648973584E-02 -3.939083932E-01
 2.282906398E-01 -5.754574388E-02 -4.056856228E-01
 2.407269478E-01 -5.851059221E-02 -4.162431925E-01
 2.532564551E-01 -5.938955955E-02 -4.288804684E-01
 2.652048618E-01 -6.013705581E-02 -4.415901181E-01
 2.772808522E-01 -6.079013273E-02 -4.473205524E-01
 2.902075201E-01 -6.138850003E-02 -4.587815831E-01
 3.030963242E-01 -6.187032163E-02 -4.661000405E-01
 3.154354542E-01 -6.223285012E-02 -4.745192065E-01
 3.275770545E-01 -6.248300895E-02 -4.832903910E-01
 3.392047137E-01 -6.261377782E-02 -4.900144017E-01
 3.502631485E-01 -6.264154613E-02 -4.866072564E-01
 3.615763187E-01 -6.257916242E-02 -4.957342764E-01
 3.724713326E-01 -6.240667030E-02 -4.938298950E-01
 3.835270256E-01 -6.212558039E-02 -4.855450649E-01
 3.955704272E-01 -6.170501746E-02 -4.798993053E-01
 4.079560339E-01 -6.115538254E-02 -4.716945584E-01
 4.206642061E-01 -6.045424938E-02 -4.617096826E-01
 4.337748885E-01 -5.958605744E-02 -4.446529816E-01
 4.468995333E-01 -5.857712403E-02 -4.262234217E-01
 4.597854018E-01 -5.745303072E-02 -4.049861015E-01
 4.722956568E-01 -5.623806641E-02 -3.789202720E-01
 4.844502509E-01 -5.496654660E-02 -3.556562854E-01
 4.964774549E-01 -5.360910483E-02 -3.337228491E-01
 5.094830096E-01 -5.203143694E-02 -2.985505186E-01
 5.233196616E-01 -5.027718283E-02 -2.675920368E-01
 5.369444788E-01 -4.847926460E-02 -2.411558855E-01
 5.505653322E-01 -4.660808481E-02 -2.105292229E-01
 5.638553202E-01 -4.473858513E-02 -1.829352522E-01
 5.768952668E-01 -4.286296107E-02 -1.592896746E-01
 5.896238685E-01 -4.098659381E-02 -1.312892938E-01
 6.017929912E-01 -3.918728605E-02 -1.058939474E-01
 6.145019531E-01 -3.730251081E-02 -8.978749339E-02
 6.280382872E-01 -3.526696749E-02 -6.379291990E-02
 6.417240798E-01 -3.320534527E-02 -3.970487381E-02
 6.552242339E-01 -3.118409216E-02 -1.916477933E-02
 6.688551009E-01 -2.915084362E-02 -8.440902387E-04
 6.819543540E-01 -2.720191795E-02 1.942951845E-02
 6.944143176E-01 -2.536309510E-02 3.602993359E-02
 7.078768611E-01 -2.338323370E-02 5.537841655E-02
 7.216638923E-01 -2.139479294E-02 7.563093338E-02
 7.338072062E-01 -1.965837833E-02 8.608277862E-02
 7.454321384E-01 -1.800467074E-02 1.094465788E-01
 7.578173578E-01 -1.629712293E-02 1.218560072E-01
 7.704824507E-01 -1.458394574E-02 1.375625445E-01
 7.827454507E-01 -1.296986453E-02 1.540584626E-01
 7.949835956E-01 -1.140670991E-02 1.659562933E-01
 8.067510128E-01 -9.937062394E-03 1.824641871E-01
 8.179051280E-01 -8.593173698E-03 1.972650940E-01
 8.298336267E-01 -7.237509359E-03 2.094901378E-01
 8.420534432E-01 -5.904997000E-03 2.202864089E-01
 8.539204597E-01 -4.674246535E-03 2.392893480E-01
 8.657867014E-01 -3.548444831E-03 2.508278595E-01
 8.779273927E-01 -2.519435249E-03 2.603295635E-01
 8.905268908E-01 -1.570312481E-03 2.666478451E-01
 9.019881487E-01 -8.134112577E-04 2.797540392E-01
 9.413634539E-01 7.705221651E-04 2.769263788E-01
 9.545684457E-01 9.682959644E-04 2.710795798E-01
 9.692605138E-01 1.008454186E-03 2.615650225E-01
 9.836058915E-01 8.822169621E-04 2.455827942E-01
 -5.000000000E-01 9.500000000E-01 4.039249664E-03
 -5.000000000E-01 9.000000000E-01 5.788593876E-03
 -5.000000000E-01 8.500000000E-01 7.460538438E-03
 -5.000000000E-01 8.000000000E-01 9.563035707E-03
 -5.000000000E-01 7.500000000E-01 1.205561923E-02
 -5.000000000E-01 7.000000000E-01 1.522503439E-02
 -5.000000000E-01 6.500000000E-01 1.892152660E-02
 -5.000000000E-01 6.000000000E-01 2.332083004E-02
 -5.000000000E-01 5.500000000E-01 2.835247364E-02
 -5.000000000E-01 5.000000000E-01 3.405120099E-02
 -5.000000000E-01 4.500000000E-01 4.041862886E-02
 -5.000000000E-01 4.000000000E-01 4.728780894E-02
 -5.000000000E-01 3.500000000E-01 5.454503973E-02
 -5.000000000E-01 3.000000000E-01 6.201207953E-02
 -5.000000000E-01 2.500000000E-01 6.934386480E-02
 -5.000000000E-01 2.000000000E-01 7.630990773E-02
 -5.000000000E-01 1.500000000E-01 8.256678921E-02
 -5.000000000E-01 1.000000000E-01 8.761518666E-02
 -5.000000000E-01 5.000000000E-02 9.124756807E-02
 -5.000000000E-01 2.752242878E-12 9.313883694E-02
 -5.000000000E-01 -5.000000000E-02 9.320837623E-02
 -5.000000000E-01 -1.000000000E-01 9.151408518E-02
 -5.000000000E-01 -1.500000000E-01 8.827091604E-02
 -5.000000000E-01 -2.000000000E-01 8.355436282E-02
 -5.000000000E-01 -2.500000000E-01 7.805168819E-02
 -5.000000000E-01 -3.000000000E-01 7.180673045E-02
 -5.000000000E-01 -3.500000000E-01 6.533385569E-02
 -5.000000000E-01 -4.000000000E-01 5.886560864E-02
 -5.000000000E-01 -4.500000000E-01 5.254473852E-02
 -5.000000000E-01 -5.000000000E-01 4.669053177E-02
 -5.000000000E-01 -5.500000000E-01 4.108703356E-02
 -5.000000000E-01 -6.000000000E-01 3.623623040E-02
 -5.000000000E-01 -6.500000000E-01 3.172369375E-02
 -5.000000000E-01 -7.000000000E-01 2.776340466E-02
 -5.000000000E-01 -7.500000000E-01 2.422195122E-02
 -5.000000000E-01 -8.000000000E-01 2.105781734E-02
 -5.000000000E-01 -8.500000000E-01 1.810000123E-02
 -5.000000000E-01 -9.000000000E-01 1.511467595E-02
 -5.000000000E-01 -9.500000000E-01 1.110789928E-02
 -4.500000000E-01 -1.000000000E+00 1.008440367E-02
 -4.000000000E-01 -1.000000000E+00 1.284211407E-02
 -3.500000000E-01 -1.000000000E+00 1.384467825E-02
 -3.000000000E-01 -1.000000000E+00 1.384152328E-02
 -2.500000000E-01 -1.000000000E+00 1.310262661E-02
 -2.000000000E-01 -1.000000000E+00 1.161457409E-02
 -1.500000000E-01 -1.000000000E+00 9.414512826E-03
 -1.000000000E-01 -1.000000000E+00 6.635600171E-03
 -5.000000000E-02 -1.000000000E+00 3.338982618E-03
 -9.424683256E-13 -1.000000000E+00 -4.359873998E-04
 5.000000000E-02 -1.000000000E+00 -4.589355636E-03
 1.000000000E-01 -1.000000000E+00 -8.892915028E-03
 1.500000000E-01 -1.000000000E+00 -1.320367918E-02
 2.000000000E-01 -1.000000000E+00 -1.750316195E-02
 2.500000000E-01 -1.000000000E+00 -2.146399533E-02
 3.000000000E-01 -1.000000000E+00 -2.498913515E-02
 3.500000000E-01 -1.000000000E+00 -2.788644179E-02
 4.000000000E-01 -1.000000000E+00 -3.005931072E-02
 4.500000000E-01 -1.000000000E+00 -3.144622329E-02
 5.000000000E-01 -1.000000000E+00 -3.211761186E-02
 5.500000000E-01 -1.000000000E+00 -3.180917966E-02
 6.000000000E-01 -1.000000000E+00 -3.078520710E-02
 6.500000000E-01 -1.000000000E+00 -2.893446245E-02
 7.000000000E-01 -1.000000000E+00 -2.648552769E-02
 7.500000000E-01 -1.000000000E+00 -2.358073742E-02
 8.000000000E-01 -1.000000000E+00 -2.025167537E-02
 8.500000000E-01 -1.000000000E+00 -1.661342074E-02
 9.000000000E-01 -1.000000000E+00 -1.292671192E-02
 9.500000000E-01 -1.000000000E+00 -9.148379717E-03
 1.000000000E+00 -1.000000000E+00 -5.495969727E-03
 1.050000000E+00 -1.000000000E+00 -2.034728119E-03
 1.100000000E+00 -1.000000000E+00 1.153787365E-03
 1.150000000E+00 -1.000000000E+00 4.077372601E-03
 1.200000000E+00 -1.000000000E+00 6.686327537E-03
 1.250000000E+00 -1.000000000E+00 8.962023519E-03
 1.300000000E+00 -1.000000000E+00 1.093090704E-02
 1.350000000E+00 -1.000000000E+00 1.256113979E-02
 1.400000000E+00 -1.000000000E+00 1.394032680E-02
 1.450000000E+00 -1.000000000E+00 1.503487898E-02
 1.500000000E+00 -1.000000000E+00 1.592456806E-02
 1.550000000E+00 -1.000000000E+00 1.656022257E-02
 1.600000000E+00 -1.000000000E+00 1.709401938E-02
 1.650000000E+00 -1.000000000E+00 1.741089845E-02
 1.700000000E+00 -1.000000000E+00 1.763075595E-02
 1.750000000E+00 -1.000000000E+00 1.774465402E-02
 1.800000000E+00 -1.000000000E+00 1.775737340E-02
 1.850000000E+00 -1.000000000E+00 1.770397538E-02
 1.900000000E+00 -1.000000000E+00 1.759077541E-02
 1.950000000E+00 -1.000000000E+00 1.744875845E-02
 2.000000000E+00 -1.000000000E+00 1.725709857E-02
 2.050000000E+00 -1.000000000E+00 1.707511879E-02
 2.100000000E+00 -1.000000000E+00 1.686407462E-02
 2.150000000E+00 -1.000000000E+00 1.661169095E-02
 2.200000000E+00 -1.000000000E+00 1.643055580E-02
 2.250000000E+00 -1.000000000E+00 1.619132900E-02
 2.300000000E+00 -1.000000000E+00 1.598576557E-02
 2.350000000E+00 -1.000000000E+00 1.581257869E-02
 2.400000000E+00 -1.000000000E+00 1.559860260E-02
 2.450000000E+00 -1.000000000E+00 1.541913206E-02
 2.500000000E+00 -1.000000000E+00 1.525367495E-02
 2.550000000E+00 -1.000000000E+00 1.512005704E-02
 2.600000000E+00 -1.000000000E+00 1.497430088E-02
 2.650000000E+00 -1.000000000E+00 1.486393789E-02
 2.700000000E+00 -1.000000000E+00 1.475131685E-02
 2.750000000E+00 -1.000000000E+00 1.464298561E-02
 2.800000000E+00 -1.000000000E+00 1.454099558E-02
 2.850000000E+00 -1.000000000E+00 1.443840433E-02
 2.900000000E+00 -1.000000000E+00 1.433514790E-02
 2.950000000E+00 -1.000000000E+00 1.421631812E-02
 3.000000000E+00 -1.000000000E+00 1.408801933E-02
 3.050000000E+00 -1.000000000E+00 1.390686548E-02
 3.100000000E+00 -1.000000000E+00 1.368680321E-02
 3.150000000E+00 -1.000000000E+00 1.339198586E-02
 3.200000000E+00 -1.000000000E+00 1.302951704E-02
 3.250000000E+00 -1.000000000E+00 1.247441218E-02
 3.300000000E+00 -1.000000000E+00 1.179618446E-02
 3.350000000E+00 -1.000000000E+00 1.076265221E-02
 3.400000000E+00 -1.000000000E+00 9.242906775E-03
 3.450000000E+00 -1.000000000E+00 6.689077288E-03
 3.500000000E+00 -9.500000000E-01 3.236536102E-03
 3.500000000E+00 -9.000000000E-01 4.689844820E-03
 3.500000000E+00 -8.500000000E-01 5.912215596E-03
 3.500000000E+00 -8.000000000E-01 7.224716409E-03
 3.500000000E+00 -7.500000000E-01 8.411298560E-03
 3.500000000E+00 -7.000000000E-01 9.583851227E-03
 3.500000000E+00 -6.500000000E-01 1.091457112E-02
 3.500000000E+00 -6.000000000E-01 1.241566721E-02
 3.500000000E+00 -5.500000000E-01 1.407550578E-02
 3.500000000E+00 -5.000000000E-01 1.592187400E-02
 3.500000000E+00 -4.500000000E-01 1.796808242E-02
 3.500000000E+00 -4.000000000E-01 2.012349318E-02
 3.500000000E+00 -3.500000000E-01 2.238588382E-02
 3.500000000E+00 -3.000000000E-01 2.465505065E-02
 3.500000000E+00 -2.500000000E-01 2.667710741E-02
 3.500000000E+00 -2.000000000E-01 2.800955194E-02
 3.500000000E+00 -1.500000000E-01 2.895072868E-02
 3.500000000E+00 -1.000000000E-01 2.909498125E-02
 3.500000000E+00 -5.000000000E-02 2.888607678E-02
 3.500000000E+00 -2.752242878E-12 2.849072432E-02
 3.500000000E+00 5.000000000E-02 2.815949388E-02
 3.500000000E+00 1.000000000E-01 2.765871319E-02
 3.500000000E+00 1.500000000E-01 2.646643961E-02
 3.500000000E+00 2.000000000E-01 2.460272396E-02
 3.500000000E+00 2.500000000E-01 2.226093352E-02
 3.500000000E+00 3.000000000E-01 1.974789224E-02
 3.500000000E+00 3.500000000E-01 1.712573054E-02
 3.500000000E+00 4.000000000E-01 1.470634817E-02
 3.500000000E+00 4.500000000E-01 1.247536051E-02
 3.500000000E+00 5.000000000E-01 1.033840920E-02
 3.500000000E+00 5.500000000E-01 8.527495256E-03
 3.500000000E+00 6.000000000E-01 7.146793560E-03
 3.500000000E+00 6.500000000E-01 6.214335378E-03
 3.500000000E+00 7.000000000E-01 5.545966718E-03
 3.500000000E+00 7.500000000E-01 4.953515442E-03
 3.500000000E+00 8.000000000E-01 3.325207008E-03
 3.500000000E+00 8.500000000E-01 3.090094945E-04
 3.500000000E+00 9.000000000E-01 -3.716483735E-03
 3.500000000E+00 9.500000000E-01 -9.485842282E-03
 3.450000000E+00 1.000000000E+00 -4.085609629E-03
 3.400000000E+00 1.000000000E+00 5.369088298E-04
 3.350000000E+00 1.000000000E+00 2.818549673E-03
 3.300000000E+00 1.000000000E+00 3.838048333E-03
 3.250000000E+00 1.000000000E+00 4.437208929E-03
 3.200000000E+00 1.000000000E+00 4.678147218E-03
 3.150000000E+00 1.000000000E+00 4.914442886E-03
 3.100000000E+00 1.000000000E+00 4.765737628E-03
 3.050000000E+00 1.000000000E+00 4.696033910E-03
 3.000000000E+00 1.000000000E+00 4.409288372E-03
 2.950000000E+00 1.000000000E+00 4.024472667E-03
 2.900000000E+00 1.000000000E+00 3.632690613E-03
 2.850000000E+00 1.000000000E+00 3.222917887E-03
 2.800000000E+00 1.000000000E+00 2.631479981E-03
 2.750000000E+00 1.000000000E+00 2.137880766E-03
 2.700000000E+00 1.000000000E+00 1.484759291E-03
 2.650000000E+00 1.000000000E+00 8.784400051E-04
 2.600000000E+00 1.000000000E+00 2.703198448E-04
 2.550000000E+00 1.000000000E+00 -6.033697845E-04
 2.500000000E+00 1.000000000E+00 -1.322639720E-03
 2.450000000E+00 1.000000000E+00 -2.238622364E-03
 2.400000000E+00 1.000000000E+00 -3.040637115E-03
 2.350000000E+00 1.000000000E+00 -3.854441668E-03
 2.300000000E+00 1.000000000E+00 -4.935196322E-03
 2.250000000E+00 1.000000000E+00 -5.933639115E-03
 2.200000000E+00 1.000000000E+00 -7.015827611E-03
 2.150000000E+00 1.000000000E+00 -8.311312974E-03
 2.100000000E+00 1.000000000E+00 -9.424894171E-03
 2.050000000E+00 1.000000000E+00 -1.085701252E-02
 2.000000000E+00 1.000000000E+00 -1.228906400E-02
 1.950000000E+00 1.000000000E+00 -1.381464574E-02
 1.900000000E+00 1.000000000E+00 -1.557281362E-02
 1.850000000E+00 1.000000000E+00 -1.736714221E-02
 1.800000000E+00 1.000000000E+00 -1.931119004E-02
 1.750000000E+00 1.000000000E+00 -2.148513306E-02
 1.700000000E+00 1.000000000E+00 -2.390036107E-02
 1.650000000E+00 1.000000000E+00 -2.622453320E-02
 1.600000000E+00 1.000000000E+00 -2.901604383E-02
 1.550000000E+00 1.000000000E+00 -3.179384083E-02
 1.500000000E+00 1.000000000E+00 -3.496801368E-02
 1.450000000E+00 1.000000000E+00 -3.818360459E-02
 1.400000000E+00 1.000000000E+00 -4.148321403E-02
 1.350000000E+00 1.000000000E+00 -4.564305941E-02
 1.300000000E+00 1.000000000E+00 -4.934799263E-02
 1.250000000E+00 1.000000000E+00 -5.360101748E-02
 1.200000000E+00 1.000000000E+00 -5.767026904E-02
 1.150000000E+00 1.000000000E+00 -6.206073870E-02
 1.100000000E+00 1.000000000E+00 -6.596812671E-02
 1.050000000E+00 1.000000000E+00 -7.016982926E-02
 1.000000000E+00 1.000000000E+00 -7.422131995E-02
 9.500000000E-01 1.000000000E+00 -7.759225533E-02
 9.000000000E-01 1.000000000E+00 -8.107167069E-02
 8.500000000E-01 1.000000000E+00 -8.333153390E-02
 8.000000000E-01 1.000000000E+00 -8.539042737E-02
 7.500000000E-01 1.000000000E+00 -8.635011321E-02
 7.000000000E-01 1.000000000E+00 -8.671800604E-02
 6.500000000E-01 1.000000000E+00 -8.613497271E-02
 6.000000000E-01 1.000000000E+00 -8.455866568E-02
 5.500000000E-01 1.000000000E+00 -8.208001261E-02
 5.000000000E-01 1.000000000E+00 -7.887617835E-02
 4.500000000E-01 1.000000000E+00 -7.414514405E-02
 4.000000000E-01 1.000000000E+00 -6.970787583E-02
 3.500000000E-01 1.000000000E+00 -6.384477712E-02
 3.000000000E-01 1.000000000E+00 -5.794150246E-02
 2.500000000E-01 1.000000000E+00 -5.156978246E-02
 2.000000000E-01 1.000000000E+00 -4.489954533E-02
 1.500000000E-01 1.000000000E+00 -3.832258999E-02
 1.000000000E-01 1.000000000E+00 -3.175272907E-02
 5.000000000E-02 1.000000000E+00 -2.550180004E-02
 1.733724275E-12 1.000000000E+00 -1.969504219E-02
 -5.000000000E-02 1.000000000E+00 -1.427099451E-02
 -1.000000000E-01 1.000000000E+00 -9.572778732E-03
 -1.500000000E-01 1.000000000E+00 -5.467399750E-03
 -2.000000000E-01 1.000000000E+00 -2.087375486E-03
 -2.500000000E-01 1.000000000E+00 5.589470947E-04
 -3.000000000E-01 1.000000000E+00 2.474051128E-03
 -3.500000000E-01 1.000000000E+00 3.646589486E-03
 -4.000000000E-01 1.000000000E+00 4.075953168E-03
 -4.500000000E-01 1.000000000E+00 3.461367450E-03
 8.942231088E-01 -6.523620675E-03 2.637005510E-01
 8.156070365E-01 -1.354293640E-02 1.903326226E-01
 7.428060795E-01 -2.340602495E-02 1.016994086E-01
 6.731262706E-01 -3.431110138E-02 4.364991304E-03
 9.802394247E-01 -4.744443077E-03 2.493182043E-01
 6.063329150E-01 -4.350917083E-02 -1.022960146E-01
 5.410592504E-01 -5.380582910E-02 -2.282762636E-01
 4.826614065E-01 -6.084486663E-02 -3.503400601E-01
 4.242721400E-01 -6.554600626E-02 -4.449801379E-01
 3.647162546E-01 -6.726387813E-02 -4.830045061E-01
 3.117370914E-01 -6.646034784E-02 -4.630194926E-01
 2.561124384E-01 -6.477410300E-02 -4.227465893E-01
 1.955697291E-01 -5.893687942E-02 -3.710550004E-01
 1.443591884E-01 -5.310793519E-02 -3.207300237E-01
 9.963199565E-02 -4.655161504E-02 -2.715275877E-01