TITLE     = "Visualization of the solution"
VARIABLES = "x"
"y"
"Pressure_Coefficient"
ZONE T="Zone"
 STRANDID=0, SOLUTIONTIME=0
 Nodes=12007, Elements=23433, ZONETYPE=FEQuadrilateral
 DATAPACKING=POINT
 DT=(DOUBLE DOUBLE DOUBLE )
 1.000206351E+00 5.109302583E-04 2.450416730E-01
 9.872129560E-01 2.986349864E-03 1.648718289E-01
 9.742652774E-01 5.416597240E-03 1.178297210E-01
 9.587038755E-01 8.416284807E-03 5.639634563E-02
 9.436860085E-01 1.120489556E-02 2.981765002E-02
 9.300716519E-01 1.381258946E-02 -1.717594462E-02
 9.181512594E-01 1.602349617E-02 -4.313645541E-02
 9.059410691E-01 1.826840267E-02 -7.347565575E-02
 8.937681317E-01 2.043999918E-02 -9.498320747E-02
 8.813444376E-01 2.261245809E-02 -1.156265058E-01
 8.690002561E-01 2.473132685E-02 -1.360079456E-01
 8.567870855E-01 2.679163590E-02 -1.548389360E-01
 8.445733786E-01 2.882954851E-02 -1.878444301E-01
 8.328642249E-01 3.064303473E-02 -1.836880944E-01
 8.211758137E-01 3.247253969E-02 -1.991863687E-01
 8.085513711E-01 3.441952914E-02 -2.166441600E-01
 7.959641814E-01 3.632938862E-02 -2.358132187E-01
 7.838437557E-01 3.811904043E-02 -2.533425954E-01
 7.713374496E-01 3.989733011E-02 -2.619570881E-01
 7.596421838E-01 4.153243080E-02 -2.697444583E-01
 7.469362617E-01 4.331594333E-02 -2.951865423E-01
 7.334110141E-01 4.513226822E-02 -3.108374396E-01
 7.225853801E-01 4.654268920E-02 -3.198289595E-01
 7.116147876E-01 4.795221612E-02 -3.360494154E-01
 6.999809742E-01 4.939863458E-02 -3.480560370E-01
 6.868867278E-01 5.098109692E-02 -3.639418451E-01
 6.740661860E-01 5.247605592E-02 -3.771474309E-01
 6.637753844E-01 5.365667865E-02 -3.988975985E-01
 6.520937085E-01 5.491132662E-02 -4.064481021E-01
 6.405904293E-01 5.610397086E-02 -4.171438085E-01
 6.287966371E-01 5.728236958E-02 -4.335919449E-01
 6.174067259E-01 5.835381523E-02 -4.405030402E-01
 6.068304181E-01 5.932520702E-02 -4.606035387E-01
 5.944768786E-01 6.035642698E-02 -4.648209628E-01
 5.828971267E-01 6.127887592E-02 -4.763803932E-01
 5.695958734E-01 6.225834042E-02 -4.900483623E-01
 5.570725799E-01 6.308753788E-02 -4.939778459E-01
 5.447150469E-01 6.384888291E-02 -5.090914037E-01
 5.336219668E-01 6.443624198E-02 -5.046652281E-01
 5.218423605E-01 6.502675265E-02 -5.151145067E-01
 5.094715357E-01 6.556230783E-02 -5.240058389E-01
 4.983302355E-01 6.595596671E-02 -5.178388975E-01
 4.852647185E-01 6.636362523E-02 -5.260973863E-01
 4.720347822E-01 6.665758044E-02 -5.163288650E-01
 4.584667683E-01 6.691438705E-02 -5.230220969E-01
 4.449801445E-01 6.707323343E-02 -5.258431351E-01
 4.321024120E-01 6.712554395E-02 -5.193551530E-01
 4.192895889E-01 6.711068749E-02 -5.162666381E-01
 4.069020450E-01 6.703469902E-02 -5.172658615E-01
 3.943646848E-01 6.687456369E-02 -5.092692523E-01
 3.823130429E-01 6.667787582E-02 -5.139259896E-01
 3.705330193E-01 6.640067697E-02 -5.060328100E-01
 3.573250473E-01 6.602647156E-02 -5.039593189E-01
 3.447379470E-01 6.559130549E-02 -4.961180921E-01
 3.319646120E-01 6.509775668E-02 -5.005121904E-01
 3.209211230E-01 6.458283961E-02 -4.872127325E-01
 3.083256781E-01 6.395954639E-02 -4.877697606E-01
 2.952888906E-01 6.322115660E-02 -4.807941338E-01
 2.814724743E-01 6.235631183E-02 -4.747479786E-01
 2.690159380E-01 6.150620058E-02 -4.739431081E-01
 2.569038868E-01 6.058385223E-02 -4.605907396E-01
 2.443345189E-01 5.957644433E-02 -4.592808004E-01
 2.318046838E-01 5.847683176E-02 -4.510612736E-01
 2.195550203E-01 5.732807890E-02 -4.454837549E-01
 2.076285481E-01 5.612491816E-02 -4.389279204E-01
 1.959509104E-01 5.486373976E-02 -4.281017589E-01
 1.836839020E-01 5.346505344E-02 -4.244746643E-01
 1.718210876E-01 5.200588703E-02 -4.134390048E-01
 1.603391767E-01 5.050946772E-02 -4.051594608E-01
 1.485200822E-01 4.886898026E-02 -3.944490082E-01
 1.377977133E-01 4.729903862E-02 -3.867677694E-01
 1.263619512E-01 4.551883787E-02 -3.808560426E-01
 1.150991544E-01 4.362820089E-02 -3.645320832E-01
 1.045170203E-01 4.175226763E-02 -3.532714753E-01
 9.469114244E-02 3.989234939E-02 -3.408437217E-01
 8.376391977E-02 3.768512979E-02 -3.270503349E-01
 7.233248651E-02 3.518854827E-02 -3.132143186E-01
 6.249511987E-02 3.285587206E-02 -2.910265837E-01
 5.289478600E-02 3.038464673E-02 -2.674808638E-01
 4.420762137E-02 2.794236876E-02 -2.476773601E-01
 3.677358478E-02 2.566244826E-02 -2.227994250E-01
 3.027402051E-02 2.346997336E-02 -1.936825011E-01
 2.466389351E-02 2.140298858E-02 -1.727025344E-01
 2.060263045E-02 1.975696906E-02 -1.351420054E-01
 1.673638076E-02 1.805043407E-02 -1.055724003E-01
 1.376994234E-02 1.662193239E-02 -6.588250626E-02
 1.107365359E-02 1.520331483E-02 -3.316230678E-02
 9.097901173E-03 1.406208146E-02 9.631680831E-03
 7.340467535E-03 1.295736339E-02 3.888489332E-02
 5.711146630E-03 1.183757465E-02 1.239144605E-01
 3.599578748E-03 1.018391643E-02 2.208699168E-01
 1.816860051E-03 8.502900600E-03 3.110145338E-01
 3.477566934E-04 6.756786723E-03 5.554108638E-01
 -1.050200895E-03 4.358135164E-03 8.088233692E-01
 -1.643166062E-03 2.493763342E-03 9.884357204E-01
 -1.825645450E-03 9.805993177E-04 1.089225919E+00
 -1.722220331E-03 -6.984490319E-04 1.136262268E+00
 -1.266305801E-03 -2.505009528E-03 1.071797912E+00
 -2.966267348E-04 -4.637310747E-03 9.165239176E-01
 1.194906537E-03 -6.865973119E-03 7.571000016E-01
 3.249075031E-03 -9.171620943E-03 5.960869801E-01
 5.102917552E-03 -1.088652201E-02 4.513932909E-01
 7.282521110E-03 -1.263619494E-02 3.725303824E-01
 8.978514932E-03 -1.385464799E-02 2.828796444E-01
 1.108844951E-02 -1.523942128E-02 2.253189412E-01
 1.348133292E-02 -1.667745598E-02 1.543853439E-01
 1.678310893E-02 -1.847152598E-02 9.451881838E-02
 1.985823177E-02 -1.999962144E-02 3.014895680E-02
 2.385415509E-02 -2.181173302E-02 -1.280858084E-02
 2.919527330E-02 -2.399641648E-02 -6.359628086E-02
 3.492734209E-02 -2.611201443E-02 -1.079224617E-01
 4.199224338E-02 -2.845686860E-02 -1.419521981E-01
 4.949899763E-02 -3.070867620E-02 -1.735863783E-01
 5.843765661E-02 -3.314352036E-02 -1.964219676E-01
 6.719755381E-02 -3.531370685E-02 -2.229215716E-01
 7.746618241E-02 -3.765051812E-02 -2.388463381E-01
 8.732103556E-02 -3.970526159E-02 -2.536180133E-01
 9.760716558E-02 -4.168733582E-02 -2.663399373E-01
 1.085802317E-01 -4.366101325E-02 -2.797930088E-01
 1.198359281E-01 -4.554325715E-02 -2.915971587E-01
 1.314858645E-01 -4.736013710E-02 -3.037999598E-01
 1.421038061E-01 -4.890823364E-02 -3.147495898E-01
 1.533054411E-01 -5.043743551E-02 -3.237713992E-01
 1.653514504E-01 -5.198546872E-02 -3.368955673E-01
 1.769593656E-01 -5.337379873E-02 -3.478647932E-01
 1.887488067E-01 -5.467973650E-02 -3.553538587E-01
 1.993821710E-01 -5.578977242E-02 -3.679273108E-01
 2.106870562E-01 -5.689160898E-02 -3.800064110E-01
 2.228796482E-01 -5.797959119E-02 -3.895798602E-01
 2.353607863E-01 -5.898979679E-02 -3.980212364E-01
 2.475941479E-01 -5.989413708E-02 -4.113813913E-01
 2.599880993E-01 -6.070676818E-02 -4.215011054E-01
 2.710605562E-01 -6.133868173E-02 -4.290010700E-01
 2.836381197E-01 -6.195747107E-02 -4.350950405E-01
 2.961357832E-01 -6.247638166E-02 -4.454125322E-01
 3.089233339E-01 -6.289330125E-02 -4.541815490E-01
 3.207096756E-01 -6.316222250E-02 -4.584636847E-01
 3.334387243E-01 -6.334134191E-02 -4.634662562E-01
 3.441651165E-01 -6.339113414E-02 -4.672442296E-01
 3.556237519E-01 -6.333541870E-02 -4.633445862E-01
 3.666851819E-01 -6.319124997E-02 -4.643096055E-01
 3.775388002E-01 -6.294933707E-02 -4.616530332E-01
 3.891945183E-01 -6.258191913E-02 -4.568727653E-01
 4.022049904E-01 -6.201592833E-02 -4.388848674E-01
 4.145546556E-01 -6.138318777E-02 -4.361365712E-01
 4.274199605E-01 -6.057777628E-02 -4.225471748E-01
 4.400032759E-01 -5.961962789E-02 -3.918336448E-01
 4.525410831E-01 -5.859974027E-02 -3.838826211E-01
 4.645530581E-01 -5.747034401E-02 -3.527294084E-01
 4.769874811E-01 -5.621618778E-02 -3.298716012E-01
 4.887517393E-01 -5.495613441E-02 -3.118408647E-01
 5.012874603E-01 -5.348753929E-02 -2.749453140E-01
 5.151466131E-01 -5.182201415E-02 -2.544025190E-01
 5.286900401E-01 -5.009750649E-02 -2.271559512E-01
 5.415965319E-01 -4.835493490E-02 -1.915481186E-01
 5.547676682E-01 -4.656182975E-02 -1.698257617E-01
 5.680030584E-01 -4.471015185E-02 -1.436669281E-01
 5.812354088E-01 -4.282295704E-02 -1.207709754E-01
 5.936162472E-01 -4.101073742E-02 -9.410367154E-02
 6.062283516E-01 -3.914390877E-02 -6.772977809E-02
 6.202833652E-01 -3.708591312E-02 -4.990044868E-02
 6.344249845E-01 -3.498741984E-02 -2.620038664E-02
 6.486330032E-01 -3.286197037E-02 -1.993397280E-03
 6.617610455E-01 -3.091112524E-02 1.696038671E-02
 6.752329469E-01 -2.890014462E-02 4.045753225E-02
 6.878839731E-01 -2.706571296E-02 4.947459346E-02
 7.001110315E-01 -2.525234409E-02 7.387905607E-02
 7.145902514E-01 -2.313289233E-02 9.486683181E-02
 7.278405428E-01 -2.125640213E-02 1.056395353E-01
 7.394547462E-01 -1.958733238E-02 1.280033862E-01
 7.527434230E-01 -1.774402522E-02 1.395652249E-01
 7.649825811E-01 -1.604296453E-02 1.608794587E-01
 7.781444788E-01 -1.425942592E-02 1.794881149E-01
 7.903465033E-01 -1.268614735E-02 1.893051587E-01
 8.029865026E-01 -1.106752828E-02 2.084357863E-01
 8.142307997E-01 -9.690560400E-03 2.199670020E-01
 8.255645633E-01 -8.323974907E-03 2.389389873E-01
 8.382557034E-01 -6.891932338E-03 2.502038809E-01
 8.502910137E-01 -5.568669643E-03 2.717159989E-01
 8.628842831E-01 -4.339920357E-03 2.779382965E-01
 8.740015626E-01 -3.292342415E-03 2.973788639E-01
 8.856243491E-01 -2.330948599E-03 3.054596487E-01
 8.985168934E-01 -1.388503588E-03 3.162030865E-01
 9.087969661E-01 -7.543823449E-04 3.227850294E-01
 9.191727042E-01 -2.079912374E-04 3.283357819E-01
 9.289924502E-01 2.029015013E-04 3.308170479E-01
 9.382723570E-01 5.053787609E-04 3.347342126E-01
 9.505289197E-01 7.778906729E-04 3.350852396E-01
 9.635879993E-01 9.200811037E-04 3.381849241E-01
 9.772064090E-01 9.054733673E-04 3.456564386E-01
 9.894891977E-01 7.495554164E-04 3.670840986E-01
 -5.000000000E-01 -1.000000000E+00 1.281597529E-02
 3.500000000E+00 -1.000000000E+00 7.591869578E-03
 3.500000000E+00 1.000000000E+00 -2.117467481E-02
 -5.000000000E-01 1.000000000E+00 -7.010790737E-05
 9.937096536E-01 1.748640061E-03 2.696839611E-01
 9.807391167E-01 4.201473552E-03 1.449543584E-01
 9.664845765E-01 6.916441023E-03 8.255782128E-02
 9.511949420E-01 9.810590185E-03 4.519828503E-02
 9.368788302E-01 1.250874251E-02 2.987597642E-03
 9.241114557E-01 1.491804281E-02 -2.997298827E-02
 9.120461643E-01 1.714594942E-02 -5.981142604E-02
 8.998546004E-01 1.935420092E-02 -8.406156061E-02
 8.875562847E-01 2.152622864E-02 -1.050503674E-01
 8.751723468E-01 2.367189247E-02 -1.254971472E-01
 8.628936708E-01 2.576148137E-02 -1.449209883E-01
 8.506802320E-01 2.781059220E-02 -1.760022083E-01
 8.387188017E-01 2.973629162E-02 -1.816615764E-01
 8.270200193E-01 3.155778721E-02 -1.913799536E-01
 8.148635924E-01 3.344603442E-02 -2.078675847E-01
 8.022577763E-01 3.537445888E-02 -2.268703843E-01
 7.899039686E-01 3.722421452E-02 -2.460537656E-01
 7.775906026E-01 3.900818527E-02 -2.566284300E-01
 7.654898167E-01 4.071488045E-02 -2.635934113E-01
 7.532892227E-01 4.242418706E-02 -2.850751705E-01
 7.401736379E-01 4.422410578E-02 -3.025102951E-01
 7.279981971E-01 4.583747871E-02 -3.143718195E-01
 7.171000838E-01 4.724745266E-02 -3.286131566E-01
 7.057978809E-01 4.867542535E-02 -3.421283953E-01
 6.934338510E-01 5.018986575E-02 -3.561380211E-01
 6.804764569E-01 5.172857642E-02 -3.688202864E-01
 6.689207852E-01 5.306636728E-02 -3.915102782E-01
 6.579345465E-01 5.428400263E-02 -4.017061779E-01
 6.463420689E-01 5.550764874E-02 -4.114602451E-01
 6.346935332E-01 5.669317022E-02 -4.262616201E-01
 6.231016815E-01 5.781809241E-02 -4.349684294E-01
 6.121185720E-01 5.883951113E-02 -4.546516606E-01
 6.006536484E-01 5.984081700E-02 -4.608384746E-01
 5.886870027E-01 6.081765145E-02 -4.719938223E-01
 5.762465000E-01 6.176860817E-02 -4.838183336E-01
 5.633342266E-01 6.267293915E-02 -4.907510851E-01
 5.508938134E-01 6.346821040E-02 -5.031239845E-01
 5.391685069E-01 6.414256245E-02 -5.043756841E-01
 5.277321637E-01 6.473149732E-02 -5.111954421E-01
 5.156569481E-01 6.529453024E-02 -5.201985955E-01
 5.039008856E-01 6.575913727E-02 -5.198277448E-01
 4.917974770E-01 6.615979597E-02 -5.243468118E-01
 4.786497504E-01 6.651060283E-02 -5.187654451E-01
 4.652507752E-01 6.678598374E-02 -5.206292038E-01
 4.517234564E-01 6.699381024E-02 -5.253088685E-01
 4.385412782E-01 6.709938869E-02 -5.217030005E-01
 4.256960005E-01 6.711811572E-02 -5.170381138E-01
 4.130958170E-01 6.707269326E-02 -5.178611556E-01
 4.006333649E-01 6.695463136E-02 -5.114719138E-01
 3.883388638E-01 6.677621976E-02 -5.129584473E-01
 3.764230311E-01 6.653927639E-02 -5.101311917E-01
 3.639290333E-01 6.621357426E-02 -5.050709445E-01
 3.510314971E-01 6.580888852E-02 -4.989358105E-01
 3.383512795E-01 6.534453109E-02 -4.993352428E-01
 3.264428675E-01 6.484029815E-02 -4.920744203E-01
 3.146234006E-01 6.427119300E-02 -4.891703663E-01
 3.018072844E-01 6.359035149E-02 -4.847854874E-01
 2.883806825E-01 6.278873421E-02 -4.766333255E-01
 2.752442062E-01 6.193125620E-02 -4.756418067E-01
 2.629599124E-01 6.104502641E-02 -4.655853916E-01
 2.506192029E-01 6.008014828E-02 -4.612586280E-01
 2.380696014E-01 5.902663805E-02 -4.546790855E-01
 2.256798521E-01 5.790245533E-02 -4.484120417E-01
 2.135917842E-01 5.672649853E-02 -4.422895564E-01
 2.017897293E-01 5.549432896E-02 -4.331560169E-01
 1.898174062E-01 5.416439660E-02 -4.274011765E-01
 1.777524948E-01 5.273547024E-02 -4.183204198E-01
 1.660801321E-01 5.125767738E-02 -4.098769878E-01
 1.544296294E-01 4.968922399E-02 -3.982869793E-01
 1.431588978E-01 4.808400944E-02 -3.919225158E-01
 1.320798323E-01 4.640893824E-02 -3.855660961E-01
 1.207305528E-01 4.457351938E-02 -3.703703444E-01
 1.098080873E-01 4.269023426E-02 -3.623431160E-01
 8.922753111E-02 3.878873959E-02 -3.376511877E-01
 7.804820314E-02 3.643683903E-02 -3.179677439E-01
 6.741380319E-02 3.402221017E-02 -3.088539218E-01
 7.233186811E-02 -3.648211248E-02 -2.316313134E-01
 9.246410057E-02 -4.069629870E-02 -2.661902653E-01
 1.030936986E-01 -4.267417453E-02 -2.720426727E-01
 1.142080799E-01 -4.460213520E-02 -2.863023166E-01
 1.256608963E-01 -4.645169713E-02 -2.974524027E-01
 1.367948353E-01 -4.813418537E-02 -3.109455726E-01
 1.477046236E-01 -4.967283458E-02 -3.190243553E-01
 1.593284458E-01 -5.121145211E-02 -3.291349161E-01
 1.711554080E-01 -5.267963372E-02 -3.431724278E-01
 1.828540862E-01 -5.402676761E-02 -3.527927696E-01
 1.940654889E-01 -5.523475446E-02 -3.618845405E-01
 2.050346136E-01 -5.634069070E-02 -3.727890007E-01
 2.167833522E-01 -5.743560009E-02 -3.844608600E-01
 2.291202173E-01 -5.848469399E-02 -3.940263670E-01
 2.414774671E-01 -5.944196694E-02 -4.041483459E-01
 2.537911236E-01 -6.030045263E-02 -4.162609399E-01
 2.655243278E-01 -6.102272496E-02 -4.269826649E-01
 2.773493379E-01 -6.164807640E-02 -4.307015857E-01
 2.898869514E-01 -6.221692637E-02 -4.398523780E-01
 3.025295585E-01 -6.268484145E-02 -4.495762344E-01
 3.148165047E-01 -6.302776188E-02 -4.581035396E-01
 3.270741999E-01 -6.325178221E-02 -4.602429934E-01
 3.388019204E-01 -6.336623803E-02 -4.674242204E-01
 3.498944342E-01 -6.336327642E-02 -4.650783132E-01
 3.611544669E-01 -6.326333433E-02 -4.636355488E-01
 3.721119910E-01 -6.307029352E-02 -4.635129024E-01
 3.833666593E-01 -6.276562810E-02 -4.586809678E-01
 3.956997544E-01 -6.229892373E-02 -4.485285136E-01
 4.083798230E-01 -6.169955805E-02 -4.360845343E-01
 4.209873080E-01 -6.098048203E-02 -4.298009313E-01
 4.337116182E-01 -6.009870209E-02 -4.107453672E-01
 4.462721795E-01 -5.910968408E-02 -3.846659033E-01
 4.585470706E-01 -5.803504214E-02 -3.726051204E-01
 4.707702696E-01 -5.684326589E-02 -3.406374411E-01
 4.828696102E-01 -5.558616109E-02 -3.203859430E-01
 4.950195998E-01 -5.422183685E-02 -2.958504809E-01
 5.082170367E-01 -5.265477672E-02 -2.624247551E-01
 5.219183266E-01 -5.095976032E-02 -2.415172379E-01
 5.351432860E-01 -4.922622070E-02 -2.116885176E-01
 5.481821001E-01 -4.745838232E-02 -1.788120677E-01
 5.613853633E-01 -4.563599080E-02 -1.564527223E-01
 5.746192336E-01 -4.376655445E-02 -1.320798989E-01
 5.874258280E-01 -4.191684723E-02 -1.085691807E-01
 5.999222994E-01 -4.007732309E-02 -8.173934974E-02
 6.132558584E-01 -3.811491095E-02 -5.773008403E-02
 6.273541749E-01 -3.603666648E-02 -3.882903335E-02
 6.415289938E-01 -3.392469510E-02 -1.470910070E-02
 6.551970243E-01 -3.188654780E-02 8.029782847E-03
 6.684969962E-01 -2.990563493E-02 2.780627915E-02
 6.815584600E-01 -2.798292879E-02 4.761887457E-02
 6.939975023E-01 -2.615902852E-02 5.973536433E-02
 7.073506415E-01 -2.419261821E-02 8.341857945E-02
 7.212153971E-01 -2.219464723E-02 1.025988024E-01
 7.336476445E-01 -2.042186726E-02 1.149217268E-01
 7.460990846E-01 -1.866567880E-02 1.347152052E-01
 7.588630021E-01 -1.689349487E-02 1.489227200E-01
 7.715635300E-01 -1.515119523E-02 1.695345870E-01
 7.842454910E-01 -1.347278664E-02 1.862931526E-01
 7.966665030E-01 -1.187683782E-02 1.974889560E-01
 8.086086512E-01 -1.037904434E-02 2.153735962E-01
 8.198976815E-01 -9.007267654E-03 2.278661814E-01
 8.319101334E-01 -7.607953623E-03 2.447460916E-01
 8.442733586E-01 -6.230300991E-03 2.593766751E-01
 8.565876484E-01 -4.954295000E-03 2.767448132E-01
 8.684429228E-01 -3.816131386E-03 2.862187229E-01
 8.798129559E-01 -2.811645507E-03 3.016301572E-01
 8.920706213E-01 -1.859726093E-03 3.099992406E-01
 9.036569297E-01 -1.071442966E-03 3.217918436E-01
 9.139848351E-01 -4.811867911E-04 3.255016518E-01
 9.444006383E-01 6.416347169E-04 3.339696033E-01
 9.570584595E-01 8.489858883E-04 3.359521943E-01
 9.703972042E-01 9.127772355E-04 3.407317927E-01
 9.833478034E-01 8.275143919E-04 3.543881177E-01
 9.948477745E-01 6.302428374E-04 4.250546488E-01
 -5.000000000E-01 9.500000000E-01 5.400872025E-05
 -5.000000000E-01 9.000000000E-01 5.801934299E-04
 -5.000000000E-01 8.500000000E-01 1.663166813E-03
 -5.000000000E-01 8.000000000E-01 3.459075528E-03
 -5.000000000E-01 7.500000000E-01 5.926337174E-03
 -5.000000000E-01 7.000000000E-01 9.168395967E-03
 -5.000000000E-01 6.500000000E-01 1.326519885E-02
 -5.000000000E-01 6.000000000E-01 1.818197183E-02
 -5.000000000E-01 5.500000000E-01 2.401294301E-02
 -5.000000000E-01 5.000000000E-01 3.067805409E-02
 -5.000000000E-01 4.500000000E-01 3.814493816E-02
 -5.000000000E-01 4.000000000E-01 4.634574618E-02
 -5.000000000E-01 3.500000000E-01 5.506835911E-02
 -5.000000000E-01 3.000000000E-01 6.411914620E-02
 -5.000000000E-01 2.500000000E-01 7.315903949E-02
 -5.000000000E-01 2.000000000E-01 8.185515160E-02
 -5.000000000E-01 1.500000000E-01 8.974403674E-02
 -5.000000000E-01 1.000000000E-01 9.635867721E-02
 -5.000000000E-01 5.000000000E-02 1.014922551E-01
 -5.000000000E-01 2.752242878E-12 1.045579736E-01
 -5.000000000E-01 -5.000000000E-02 1.057735689E-01
 -5.000000000E-01 -1.000000000E-01 1.048328827E-01
 -5.000000000E-01 -1.500000000E-01 1.021744498E-01
 -5.000000000E-01 -2.000000000E-01 9.800941798E-02
 -5.000000000E-01 -2.500000000E-01 9.268012051E-02
 -5.000000000E-01 -3.000000000E-01 8.665784185E-02
 -5.000000000E-01 -3.500000000E-01 8.007783709E-02
 -5.000000000E-01 -4.000000000E-01 7.355890379E-02
 -5.000000000E-01 -4.500000000E-01 6.697619806E-02
 -5.000000000E-01 -5.000000000E-01 6.081738327E-02
 -5.000000000E-01 -5.500000000E-01 5.501306269E-02
 -5.000000000E-01 -6.000000000E-01 4.952304075E-02
 -5.000000000E-01 -6.500000000E-01 4.463057162E-02
 -5.000000000E-01 -7.000000000E-01 4.007944571E-02
 -5.000000000E-01 -7.500000000E-01 3.583133802E-02
 -5.000000000E-01 -8.000000000E-01 3.190233620E-02
 -5.000000000E-01 -8.500000000E-01 2.794994307E-02
 -5.000000000E-01 -9.000000000E-01 2.378096357E-02
 -5.000000000E-01 -9.500000000E-01 1.761022987E-02
 -4.500000000E-01 -1.000000000E+00 1.600869245E-02
 -4.000000000E-01 -1.000000000E+00 2.077833971E-02
 -3.500000000E-01 -1.000000000E+00 2.284741326E-02
 -3.000000000E-01 -1.000000000E+00 2.377067083E-02
 -2.500000000E-01 -1.000000000E+00 2.382141870E-02
 -2.000000000E-01 -1.000000000E+00 2.306837779E-02
 -1.500000000E-01 -1.000000000E+00 2.156187675E-02
 -1.000000000E-01 -1.000000000E+00 1.937107000E-02
 -5.000000000E-02 -1.000000000E+00 1.665692104E-02
 -9.424683256E-13 -1.000000000E+00 1.341174708E-02
 5.000000000E-02 -1.000000000E+00 9.836050965E-03
 1.000000000E-01 -1.000000000E+00 6.048782533E-03
 1.500000000E-01 -1.000000000E+00 2.200818821E-03
 2.000000000E-01 -1.000000000E+00 -1.519215271E-03
 2.500000000E-01 -1.000000000E+00 -4.912652893E-03
 3.000000000E-01 -1.000000000E+00 -7.958196354E-03
 3.500000000E-01 -1.000000000E+00 -1.036054750E-02
 4.000000000E-01 -1.000000000E+00 -1.205052654E-02
 4.500000000E-01 -1.000000000E+00 -1.301528314E-02
 5.000000000E-01 -1.000000000E+00 -1.315100319E-02
 5.500000000E-01 -1.000000000E+00 -1.244157951E-02
 6.000000000E-01 -1.000000000E+00 -1.106462853E-02
 6.500000000E-01 -1.000000000E+00 -8.941937344E-03
 7.000000000E-01 -1.000000000E+00 -6.242030452E-03
 7.500000000E-01 -1.000000000E+00 -3.111378345E-03
 8.000000000E-01 -1.000000000E+00 3.968206496E-04
 8.500000000E-01 -1.000000000E+00 4.022373734E-03
 9.000000000E-01 -1.000000000E+00 7.738634824E-03
 9.500000000E-01 -1.000000000E+00 1.133024270E-02
 1.000000000E+00 -1.000000000E+00 1.476615656E-02
 1.050000000E+00 -1.000000000E+00 1.791363170E-02
 1.100000000E+00 -1.000000000E+00 2.072712240E-02
 1.150000000E+00 -1.000000000E+00 2.321720409E-02
 1.200000000E+00 -1.000000000E+00 2.546513795E-02
 1.250000000E+00 -1.000000000E+00 2.718833046E-02
 1.300000000E+00 -1.000000000E+00 2.859696610E-02
 1.350000000E+00 -1.000000000E+00 2.970123649E-02
 1.400000000E+00 -1.000000000E+00 3.047228776E-02
 1.450000000E+00 -1.000000000E+00 3.098254321E-02
 1.500000000E+00 -1.000000000E+00 3.126259463E-02
 1.550000000E+00 -1.000000000E+00 3.128666295E-02
 1.600000000E+00 -1.000000000E+00 3.123573988E-02
 1.650000000E+00 -1.000000000E+00 3.091242861E-02
 1.700000000E+00 -1.000000000E+00 3.055203862E-02
 1.750000000E+00 -1.000000000E+00 3.008082164E-02
 1.800000000E+00 -1.000000000E+00 2.955224276E-02
 1.850000000E+00 -1.000000000E+00 2.898649915E-02
 1.900000000E+00 -1.000000000E+00 2.832775397E-02
 1.950000000E+00 -1.000000000E+00 2.770411812E-02
 2.000000000E+00 -1.000000000E+00 2.702343360E-02
 2.050000000E+00 -1.000000000E+00 2.635556954E-02
 2.100000000E+00 -1.000000000E+00 2.573174881E-02
 2.150000000E+00 -1.000000000E+00 2.510376236E-02
 2.200000000E+00 -1.000000000E+00 2.449451228E-02
 2.250000000E+00 -1.000000000E+00 2.394239817E-02
 2.300000000E+00 -1.000000000E+00 2.337509409E-02
 2.350000000E+00 -1.000000000E+00 2.287177695E-02
 2.400000000E+00 -1.000000000E+00 2.237909426E-02
 2.450000000E+00 -1.000000000E+00 2.195128170E-02
 2.500000000E+00 -1.000000000E+00 2.146960600E-02
 2.550000000E+00 -1.000000000E+00 2.110633813E-02
 2.600000000E+00 -1.000000000E+00 2.072486332E-02
 2.650000000E+00 -1.000000000E+00 2.039198757E-02
 2.700000000E+00 -1.000000000E+00 2.011383441E-02
 2.750000000E+00 -1.000000000E+00 1.984640424E-02
 2.800000000E+00 -1.000000000E+00 1.958322001E-02
 2.850000000E+00 -1.000000000E+00 1.935373850E-02
 2.900000000E+00 -1.000000000E+00 1.913267755E-02
 2.950000000E+00 -1.000000000E+00 1.889893229E-02
 3.000000000E+00 -1.000000000E+00 1.868654991E-02
 3.050000000E+00 -1.000000000E+00 1.842226334E-02
 3.100000000E+00 -1.000000000E+00 1.813874512E-02
 3.150000000E+00 -1.000000000E+00 1.778276013E-02
 3.200000000E+00 -1.000000000E+00 1.736223597E-02
 3.250000000E+00 -1.000000000E+00 1.677598226E-02
 3.300000000E+00 -1.000000000E+00 1.601025682E-02
 3.350000000E+00 -1.000000000E+00 1.492544586E-02
 3.400000000E+00 -1.000000000E+00 1.324456516E-02
 3.450000000E+00 -1.000000000E+00 1.057266749E-02
 3.500000000E+00 -9.500000000E-01 6.780933458E-03
 3.500000000E+00 -9.000000000E-01 8.276269065E-03
 3.500000000E+00 -8.500000000E-01 9.594552937E-03
 3.500000000E+00 -8.000000000E-01 1.110225766E-02
 3.500000000E+00 -7.500000000E-01 1.258947749E-02
 3.500000000E+00 -7.000000000E-01 1.405561374E-02
 3.500000000E+00 -6.500000000E-01 1.563979061E-02
 3.500000000E+00 -6.000000000E-01 1.731573407E-02
 3.500000000E+00 -5.500000000E-01 1.920670867E-02
 3.500000000E+00 -5.000000000E-01 2.125380204E-02
 3.500000000E+00 -4.500000000E-01 2.337139635E-02
 3.500000000E+00 -4.000000000E-01 2.571090636E-02
 3.500000000E+00 -3.500000000E-01 2.808829176E-02
 3.500000000E+00 -3.000000000E-01 3.028503301E-02
 3.500000000E+00 -2.500000000E-01 3.201033477E-02
 3.500000000E+00 -2.000000000E-01 3.309834569E-02
 3.500000000E+00 -1.500000000E-01 3.310419455E-02
 3.500000000E+00 -1.000000000E-01 3.247977681E-02
 3.500000000E+00 -5.000000000E-02 3.172333854E-02
 3.500000000E+00 -2.752242878E-12 3.110305181E-02
 3.500000000E+00 5.000000000E-02 3.053517296E-02
 3.500000000E+00 1.000000000E-01 2.959645098E-02
 3.500000000E+00 1.500000000E-01 2.781736453E-02
 3.500000000E+00 2.000000000E-01 2.538220352E-02
 3.500000000E+00 2.500000000E-01 2.250489747E-02
 3.500000000E+00 3.000000000E-01 1.927092192E-02
 3.500000000E+00 3.500000000E-01 1.625720748E-02
 3.500000000E+00 4.000000000E-01 1.333688128E-02
 3.500000000E+00 4.500000000E-01 1.073291171E-02
 3.500000000E+00 5.000000000E-01 8.335250465E-03
 3.500000000E+00 5.500000000E-01 6.361595317E-03
 3.500000000E+00 6.000000000E-01 4.952171268E-03
 3.500000000E+00 6.500000000E-01 4.211677793E-03
 3.500000000E+00 7.000000000E-01 4.077777922E-03
 3.500000000E+00 7.500000000E-01 3.546046361E-03
 3.500000000E+00 8.000000000E-01 1.212761919E-03
 3.500000000E+00 8.500000000E-01 -4.131454973E-03
 3.500000000E+00 9.000000000E-01 -1.166740924E-02
 3.500000000E+00 9.500000000E-01 -2.112428509E-02
 3.450000000E+00 1.000000000E+00 -1.213345774E-02
 3.400000000E+00 1.000000000E+00 -4.740208922E-03
 3.350000000E+00 1.000000000E+00 -1.252964218E-03
 3.300000000E+00 1.000000000E+00 3.399103714E-04
 3.250000000E+00 1.000000000E+00 1.261397758E-03
 3.200000000E+00 1.000000000E+00 1.799429212E-03
 3.150000000E+00 1.000000000E+00 1.976611866E-03
 3.100000000E+00 1.000000000E+00 1.972666660E-03
 3.050000000E+00 1.000000000E+00 1.868419624E-03
 3.000000000E+00 1.000000000E+00 1.453585928E-03
 2.950000000E+00 1.000000000E+00 1.226557367E-03
 2.900000000E+00 1.000000000E+00 5.255105504E-04
 2.850000000E+00 1.000000000E+00 -5.508624146E-06
 2.800000000E+00 1.000000000E+00 -7.043143222E-04
 2.750000000E+00 1.000000000E+00 -1.495083546E-03
 2.700000000E+00 1.000000000E+00 -2.280872743E-03
 2.650000000E+00 1.000000000E+00 -3.160038839E-03
 2.600000000E+00 1.000000000E+00 -4.129326087E-03
 2.550000000E+00 1.000000000E+00 -5.263969513E-03
 2.500000000E+00 1.000000000E+00 -6.119638338E-03
 2.450000000E+00 1.000000000E+00 -7.544841622E-03
 2.400000000E+00 1.000000000E+00 -8.415374251E-03
 2.350000000E+00 1.000000000E+00 -9.933645826E-03
 2.300000000E+00 1.000000000E+00 -1.121038789E-02
 2.250000000E+00 1.000000000E+00 -1.276174489E-02
 2.200000000E+00 1.000000000E+00 -1.428457388E-02
 2.150000000E+00 1.000000000E+00 -1.602720206E-02
 2.100000000E+00 1.000000000E+00 -1.782389146E-02
 2.050000000E+00 1.000000000E+00 -1.979313597E-02
 2.000000000E+00 1.000000000E+00 -2.182897172E-02
 1.950000000E+00 1.000000000E+00 -2.407216048E-02
 1.900000000E+00 1.000000000E+00 -2.630534514E-02
 1.850000000E+00 1.000000000E+00 -2.900594955E-02
 1.800000000E+00 1.000000000E+00 -3.186140817E-02
 1.750000000E+00 1.000000000E+00 -3.456196493E-02
 1.700000000E+00 1.000000000E+00 -3.789874848E-02
 1.650000000E+00 1.000000000E+00 -4.142985733E-02
 1.600000000E+00 1.000000000E+00 -4.516709179E-02
 1.550000000E+00 1.000000000E+00 -4.898561633E-02
 1.500000000E+00 1.000000000E+00 -5.312362188E-02
 1.450000000E+00 1.000000000E+00 -5.759214705E-02
 1.400000000E+00 1.000000000E+00 -6.225017181E-02
 1.350000000E+00 1.000000000E+00 -6.742769720E-02
 1.300000000E+00 1.000000000E+00 -7.250139721E-02
 1.250000000E+00 1.000000000E+00 -7.803532430E-02
 1.200000000E+00 1.000000000E+00 -8.368162200E-02
 1.150000000E+00 1.000000000E+00 -8.858659265E-02
 1.100000000E+00 1.000000000E+00 -9.416492413E-02
 1.050000000E+00 1.000000000E+00 -9.902492997E-02
 1.000000000E+00 1.000000000E+00 -1.038139049E-01
 9.500000000E-01 1.000000000E+00 -1.086175818E-01
 9.000000000E-01 1.000000000E+00 -1.127152661E-01
 8.500000000E-01 1.000000000E+00 -1.158323155E-01
 8.000000000E-01 1.000000000E+00 -1.176906029E-01
 7.500000000E-01 1.000000000E+00 -1.193975047E-01
 7.000000000E-01 1.000000000E+00 -1.197907262E-01
 6.500000000E-01 1.000000000E+00 -1.184242500E-01
 6.000000000E-01 1.000000000E+00 -1.166297854E-01
 5.500000000E-01 1.000000000E+00 -1.133146822E-01
 5.000000000E-01 1.000000000E+00 -1.086539564E-01
 4.500000000E-01 1.000000000E+00 -1.036166081E-01
 4.000000000E-01 1.000000000E+00 -9.781711592E-02
 3.500000000E-01 1.000000000E+00 -8.973801140E-02
 3.000000000E-01 1.000000000E+00 -8.270354728E-02
 2.500000000E-01 1.000000000E+00 -7.443495743E-02
 2.000000000E-01 1.000000000E+00 -6.598850641E-02
 1.500000000E-01 1.000000000E+00 -5.768699919E-02
 1.000000000E-01 1.000000000E+00 -4.941720612E-02
 5.000000000E-02 1.000000000E+00 -4.176522943E-02
 1.733724275E-12 1.000000000E+00 -3.419122408E-02
 -5.000000000E-02 1.000000000E+00 -2.725571582E-02
 -1.000000000E-01 1.000000000E+00 -2.107441268E-02
 -1.500000000E-01 1.000000000E+00 -1.561857868E-02
 -2.000000000E-01 1.000000000E+00 -1.099871395E-02
 -2.500000000E-01 1.000000000E+00 -7.336571061E-03
 -3.000000000E-01 1.000000000E+00 -4.467257611E-03
 -3.500000000E-01 1.000000000E+00 -2.333394952E-03
 -4.000000000E-01 1.000000000E+00 -9.644967390E-04
 -4.500000000E-01 1.000000000E+00 -2.562627541E-04
 1.976469551E+00 -9.605487527E-01 2.710449763E-02
 1.973226102E+00 9.553283025E-01 -2.201403076E-02
 9.063868513E-01 -5.458678461E-03 3.146897057E-01
 8.292125066E-01 -1.263223212E-02 2.372385716E-01
 9.858469387E-01 -4.424229128E-03 3.542251987E-01
 7.563811598E-01 -2.235239814E-02 1.436712356E-01
 6.855188397E-01 -3.291139094E-02 4.766563115E-02
 6.176480561E-01 -4.370824021E-02 -5.305196735E-02
 5.453714162E-01 -5.344746683E-02 -1.834585537E-01
 4.804530895E-01 -6.086705244E-02 -3.175274183E-01
 4.247618010E-01 -6.577797003E-02 -4.132975726E-01
 3.697541724E-01 -6.796114759E-02 -4.523667707E-01