TITLE     = "Visualization of the solution"
VARIABLES = "x"
"y"
"Pressure_Coefficient"
ZONE T="Zone"
 STRANDID=0, SOLUTIONTIME=0
 Nodes=11922, Elements=23266, ZONETYPE=FEQuadrilateral
 DATAPACKING=POINT
 DT=(DOUBLE DOUBLE DOUBLE )
 9.997946024E-01 5.128072225E-04 2.455464188E-01
 9.886254668E-01 2.834391315E-03 2.450090565E-01
 9.763961434E-01 5.451445468E-03 1.517824329E-01
 9.599901438E-01 8.865023032E-03 9.109841275E-02
 9.450157881E-01 1.197511237E-02 4.711105997E-02
 9.296012521E-01 1.520504709E-02 -4.050781439E-04
 9.181516767E-01 1.758755371E-02 -4.050645610E-02
 9.067012668E-01 1.989155822E-02 -5.568951621E-02
 8.955407143E-01 2.219100296E-02 -1.056730411E-01
 8.836312294E-01 2.447119914E-02 -1.107578476E-01
 8.716300130E-01 2.680269815E-02 -1.405411712E-01
 8.591713309E-01 2.917184122E-02 -1.706166692E-01
 8.465051055E-01 3.149925917E-02 -1.939284827E-01
 8.358488679E-01 3.339282423E-02 -2.069816424E-01
 8.239838481E-01 3.545848280E-02 -2.210930269E-01
 8.110980392E-01 3.767192736E-02 -2.440351240E-01
 7.983143926E-01 3.980205581E-02 -2.608881080E-01
 7.856076360E-01 4.187059775E-02 -2.796478186E-01
 7.733550668E-01 4.380530119E-02 -2.902875653E-01
 7.616853118E-01 4.563782364E-02 -3.148946489E-01
 7.483729720E-01 4.763357714E-02 -3.242642495E-01
 7.344384789E-01 4.970467463E-02 -3.507469698E-01
 7.239549160E-01 5.120511353E-02 -3.665253940E-01
 7.129763961E-01 5.271960422E-02 -3.735080913E-01
 7.014045119E-01 5.429736897E-02 -3.928822190E-01
 6.877688766E-01 5.608467385E-02 -4.123018622E-01
 6.749261022E-01 5.769424140E-02 -4.297331302E-01
 6.653909087E-01 5.886389315E-02 -4.430118028E-01
 6.540430784E-01 6.018790230E-02 -4.590085277E-01
 6.422477365E-01 6.149514392E-02 -4.698677659E-01
 6.305051446E-01 6.274309754E-02 -4.863180700E-01
 6.191150546E-01 6.388159096E-02 -4.964060244E-01
 6.085917354E-01 6.488917023E-02 -5.103998285E-01
 5.959494114E-01 6.601548195E-02 -5.259376765E-01
 5.845699310E-01 6.693595648E-02 -5.269714481E-01
 5.712018609E-01 6.795811653E-02 -5.419643071E-01
 5.590450168E-01 6.879624724E-02 -5.521302064E-01
 5.472223163E-01 6.951911002E-02 -5.559324691E-01
 5.367549658E-01 7.009164244E-02 -5.532284742E-01
 5.257486701E-01 7.066235691E-02 -5.674397151E-01
 5.137274265E-01 7.117421180E-02 -5.673849891E-01
 5.026815534E-01 7.156968862E-02 -5.594592996E-01
 4.895234406E-01 7.199214399E-02 -5.668111013E-01
 4.758966863E-01 7.232487202E-02 -5.683951110E-01
 4.618954062E-01 7.255649567E-02 -5.665819666E-01
 4.484294951E-01 7.267605513E-02 -5.585177976E-01
 4.356144369E-01 7.272680849E-02 -5.575191641E-01
 4.230055511E-01 7.270006090E-02 -5.554338333E-01
 4.106279016E-01 7.259930670E-02 -5.502600815E-01
 3.986862302E-01 7.244402915E-02 -5.498499921E-01
 3.862272203E-01 7.220083475E-02 -5.432491739E-01
 3.747094870E-01 7.192146033E-02 -5.386573561E-01
 3.615069389E-01 7.153330743E-02 -5.368482590E-01
 3.485118449E-01 7.106866688E-02 -5.315950642E-01
 3.350207806E-01 7.050639391E-02 -5.293655871E-01
 3.236640394E-01 6.995720416E-02 -5.199584195E-01
 3.106384575E-01 6.926564127E-02 -5.155474860E-01
 2.972194254E-01 6.846751273E-02 -5.074320357E-01
 2.831622362E-01 6.755855680E-02 -5.095358933E-01
 2.708445191E-01 6.665481627E-02 -4.981866072E-01
 2.588534951E-01 6.571720541E-02 -4.954103936E-01
 2.462290227E-01 6.463135779E-02 -4.840986559E-01
 2.338322252E-01 6.349714845E-02 -4.804059873E-01
 2.213702351E-01 6.225756556E-02 -4.695373928E-01
 2.096714824E-01 6.102808937E-02 -4.666278014E-01
 1.978248656E-01 5.968415737E-02 -4.572585001E-01
 1.853759736E-01 5.817129090E-02 -4.466416231E-01
 1.736958325E-01 5.666242540E-02 -4.395557441E-01
 1.627067029E-01 5.514691398E-02 -4.290023054E-01
 1.508997530E-01 5.341500416E-02 -4.184184849E-01
 1.402882934E-01 5.176191404E-02 -4.077819964E-01
 1.285076439E-01 4.980267584E-02 -3.954453085E-01
 1.173294038E-01 4.781033471E-02 -3.805138061E-01
 1.069322452E-01 4.583622888E-02 -3.628206368E-01
 9.715545923E-02 4.386486858E-02 -3.483757553E-01
 8.624321967E-02 4.151014611E-02 -3.297919235E-01
 7.437647879E-02 3.872613981E-02 -3.016514822E-01
 6.463145465E-02 3.624714911E-02 -2.764910198E-01
 5.448120087E-02 3.344568983E-02 -2.476439449E-01
 4.612144828E-02 3.091232479E-02 -2.109049585E-01
 3.882693499E-02 2.852112800E-02 -1.823534739E-01
 3.236357123E-02 2.620888874E-02 -1.364472264E-01
 2.669033036E-02 2.399334311E-02 -1.025282535E-01
 2.262200043E-02 2.226681821E-02 -5.796296419E-02
 1.861221902E-02 2.043048665E-02 -1.557119263E-02
 1.542102080E-02 1.883596182E-02 4.130332170E-02
 1.242242195E-02 1.720990613E-02 8.487697117E-02
 1.020604745E-02 1.590020582E-02 1.459942436E-01
 8.297806606E-03 1.467380486E-02 1.863784225E-01
 6.584488787E-03 1.347687840E-02 2.600521057E-01
 4.354147241E-03 1.171734370E-02 3.709653575E-01
 2.383042360E-03 9.874476120E-03 4.803817461E-01
 7.328916690E-04 7.957230322E-03 7.087880278E-01
 -8.975343662E-04 5.153929349E-03 9.572886448E-01
 -1.487315400E-03 3.102219896E-03 1.121792201E+00
 -1.587838284E-03 1.530207344E-03 1.130282802E+00
 -1.378341578E-03 -3.447118434E-05 1.037519074E+00
 -9.200447821E-04 -1.451188233E-03 9.100727614E-01
 1.916974179E-05 -3.206860973E-03 7.459088381E-01
 1.368658734E-03 -4.963838961E-03 5.478676648E-01
 3.211062402E-03 -6.774319801E-03 3.731341674E-01
 4.877752159E-03 -8.109112270E-03 2.424194289E-01
 6.737821270E-03 -9.395979345E-03 1.728033070E-01
 8.295767941E-03 -1.035740040E-02 9.676488925E-02
 1.033478230E-02 -1.149510313E-02 5.611797250E-02
 1.261630002E-02 -1.264021732E-02 1.080626159E-02
 1.583875716E-02 -1.409609430E-02 -2.844689268E-02
 1.860115677E-02 -1.521671750E-02 -7.105021154E-02
 2.225008979E-02 -1.657275856E-02 -8.579803446E-02
 2.755428478E-02 -1.833274774E-02 -1.065479369E-01
 3.326396644E-02 -2.003034204E-02 -1.331540575E-01
 4.033545777E-02 -2.191151120E-02 -1.448747105E-01
 4.774092138E-02 -2.368550003E-02 -1.552517092E-01
 5.676523969E-02 -2.565577440E-02 -1.632495386E-01
 6.519350410E-02 -2.733177692E-02 -1.734892040E-01
 7.509189099E-02 -2.915496379E-02 -1.787854089E-01
 8.505718410E-02 -3.085253201E-02 -1.845850521E-01
 9.488089383E-02 -3.242300078E-02 -1.923101664E-01
 1.058346629E-01 -3.407162055E-02 -2.002600517E-01
 1.167850643E-01 -3.561692312E-02 -2.070588471E-01
 1.283624023E-01 -3.715936840E-02 -2.154561843E-01
 1.387682855E-01 -3.846855462E-02 -2.220160933E-01
 1.498840600E-01 -3.980037197E-02 -2.308223794E-01
 1.620510370E-01 -4.117934033E-02 -2.392678959E-01
 1.738856733E-01 -4.244968295E-02 -2.488295515E-01
 1.858493388E-01 -4.366209731E-02 -2.579094612E-01
 1.967714578E-01 -4.471204430E-02 -2.683937507E-01
 2.080113292E-01 -4.573031887E-02 -2.773133687E-01
 2.204448581E-01 -4.678769037E-02 -2.878718452E-01
 2.334880084E-01 -4.781411961E-02 -2.982200447E-01
 2.460814416E-01 -4.872846976E-02 -3.094066635E-01
 2.583494782E-01 -4.954045638E-02 -3.191106628E-01
 2.695888281E-01 -5.022012815E-02 -3.301612994E-01
 2.823639810E-01 -5.091107264E-02 -3.405463716E-01
 2.950406373E-01 -5.149992555E-02 -3.491535377E-01
 3.081445396E-01 -5.201674998E-02 -3.590996536E-01
 3.203464448E-01 -5.240609124E-02 -3.691623644E-01
 3.331311345E-01 -5.270862207E-02 -3.768597862E-01
 3.443774581E-01 -5.287939310E-02 -3.830128095E-01
 3.560287952E-01 -5.295734480E-02 -3.852052703E-01
 3.668150902E-01 -5.295098573E-02 -3.924205595E-01
 3.776537776E-01 -5.283741653E-02 -3.887177724E-01
 3.894032240E-01 -5.262579769E-02 -3.904189863E-01
 4.030947387E-01 -5.222588778E-02 -3.821484583E-01
 4.157772660E-01 -5.172237754E-02 -3.755763060E-01
 4.285341799E-01 -5.108802021E-02 -3.671385101E-01
 4.412119687E-01 -5.031171441E-02 -3.512667064E-01
 4.529507160E-01 -4.947431386E-02 -3.337425889E-01
 4.646384418E-01 -4.854818434E-02 -3.192762159E-01
 4.766474366E-01 -4.746872559E-02 -2.914858475E-01
 4.878581762E-01 -4.639526457E-02 -2.757308892E-01
 5.007938147E-01 -4.503915086E-02 -2.442023052E-01
 5.149777532E-01 -4.346164688E-02 -2.159098159E-01
 5.285043716E-01 -4.187806696E-02 -1.907114200E-01
 5.421036482E-01 -4.020635411E-02 -1.621833064E-01
 5.544444919E-01 -3.862880915E-02 -1.344117342E-01
 5.679602623E-01 -3.686278686E-02 -1.073903831E-01
 5.807335377E-01 -3.516874462E-02 -8.420802621E-02
 5.924695134E-01 -3.360289335E-02 -6.671689441E-02
 6.049015522E-01 -3.189476579E-02 -3.846757772E-02
 6.199656129E-01 -2.984852158E-02 -1.795051357E-02
 6.346909404E-01 -2.782792598E-02 7.246168134E-03
 6.504766941E-01 -2.567277849E-02 2.985371740E-02
 6.633897424E-01 -2.391835675E-02 4.807626754E-02
 6.766092181E-01 -2.212177031E-02 6.874198343E-02
 6.889681220E-01 -2.046971582E-02 8.406789986E-02
 7.010835409E-01 -1.885438524E-02 1.034210419E-01
 7.155249715E-01 -1.699381135E-02 1.144035265E-01
 7.285355330E-01 -1.530312095E-02 1.358639189E-01
 7.403975129E-01 -1.377810538E-02 1.571852976E-01
 7.541525364E-01 -1.213007793E-02 1.615988440E-01
 7.657200694E-01 -1.073011942E-02 1.803595694E-01
 7.787033916E-01 -9.197844192E-03 1.966334616E-01
 7.901787758E-01 -7.889374159E-03 2.119261607E-01
 8.029571176E-01 -6.497764029E-03 2.258808329E-01
 8.138642311E-01 -5.361347925E-03 2.396688071E-01
 8.256831169E-01 -4.207566846E-03 2.494165711E-01
 8.388007879E-01 -2.988032531E-03 2.641337247E-01
 8.510704637E-01 -1.929565216E-03 2.781612692E-01
 8.631211519E-01 -9.833234362E-04 2.912530005E-01
 8.749660850E-01 -1.693480881E-04 3.006504755E-01
 8.868804574E-01 5.330165150E-04 3.086255671E-01
 8.999894261E-01 1.165944384E-03 3.151999450E-01
 9.100830555E-01 1.543963910E-03 3.196666934E-01
 9.199600816E-01 1.819137484E-03 3.214283009E-01
 9.287239909E-01 1.982816262E-03 3.242569935E-01
 9.366213679E-01 2.067314228E-03 3.243889990E-01
 9.475654364E-01 2.084626351E-03 3.229214966E-01
 9.593776464E-01 1.976769650E-03 3.208537250E-01
 9.746707082E-01 1.649769139E-03 3.206705047E-01
 9.877951741E-01 1.173062599E-03 3.240045267E-01
 -5.000000000E-01 -1.000000000E+00 1.499976410E-02
 3.500000000E+00 -1.000000000E+00 9.018650849E-03
 3.500000000E+00 1.000000000E+00 -2.660813056E-02
 -5.000000000E-01 1.000000000E+00 -1.814538033E-03
 9.942100346E-01 1.673599269E-03 3.439969029E-01
 9.825108051E-01 4.142918391E-03 1.901987012E-01
 9.681931436E-01 7.158234250E-03 1.191952063E-01
 9.525029659E-01 1.042006770E-02 6.916942680E-02
 9.373085201E-01 1.359007973E-02 2.101404852E-02
 9.238764644E-01 1.639630040E-02 -2.330163919E-02
 9.124264717E-01 1.873955596E-02 -4.424744475E-02
 9.011209905E-01 2.104128059E-02 -8.797100196E-02
 8.895859718E-01 2.333110105E-02 -1.033823441E-01
 8.776306212E-01 2.563694865E-02 -1.265530485E-01
 8.654006720E-01 2.798726968E-02 -1.574516040E-01
 8.528382182E-01 3.033555020E-02 -1.823017983E-01
 8.411769867E-01 3.244604170E-02 -1.999614871E-01
 8.299163580E-01 3.442565352E-02 -2.130696914E-01
 8.175409436E-01 3.656520508E-02 -2.332743462E-01
 8.047062159E-01 3.873699158E-02 -2.521671712E-01
 7.919610143E-01 4.083632678E-02 -2.706121247E-01
 7.794813514E-01 4.283794947E-02 -2.830848788E-01
 7.675201893E-01 4.472156242E-02 -3.057087543E-01
 7.550291419E-01 4.663570039E-02 -3.176173286E-01
 7.414057255E-01 4.866912588E-02 -3.377114106E-01
 7.291966975E-01 5.045489408E-02 -3.595301885E-01
 7.184656560E-01 5.196235888E-02 -3.681709759E-01
 7.071904540E-01 5.350848660E-02 -3.846660206E-01
 6.945866942E-01 5.519102141E-02 -4.032374904E-01
 6.813474894E-01 5.688945763E-02 -4.168134366E-01
 6.597169936E-01 5.952589773E-02 -4.523159796E-01
 6.481454074E-01 6.084152311E-02 -4.637156375E-01
 6.363764405E-01 6.211912073E-02 -4.788733619E-01
 6.248100996E-01 6.331234425E-02 -4.899464067E-01
 6.138533950E-01 6.438538060E-02 -5.054256303E-01
 6.022705734E-01 6.545232609E-02 -5.187470743E-01
 5.902596712E-01 6.647571921E-02 -5.257053008E-01
 5.778858960E-01 6.744703650E-02 -5.346709693E-01
 5.651234388E-01 6.837718189E-02 -5.480205027E-01
 5.531336665E-01 6.915767863E-02 -5.531897232E-01
 5.419886410E-01 6.980537623E-02 -5.520882141E-01
 5.312518179E-01 7.037699968E-02 -5.643450302E-01
 5.197380483E-01 7.091828436E-02 -5.669371789E-01
 5.082044899E-01 7.137195021E-02 -5.619365093E-01
 4.961024970E-01 7.178091630E-02 -5.646046521E-01
 4.827100635E-01 7.215850800E-02 -5.687332076E-01
 4.688960463E-01 7.244068384E-02 -5.677698130E-01
 4.551624507E-01 7.261627540E-02 -5.608379907E-01
 4.420219660E-01 7.270143181E-02 -5.580805144E-01
 4.293099940E-01 7.271343470E-02 -5.565874469E-01
 4.168167263E-01 7.264968380E-02 -5.518742761E-01
 4.046570659E-01 7.252166793E-02 -5.512833437E-01
 3.924567252E-01 7.232243195E-02 -5.452004232E-01
 3.804683536E-01 7.206114754E-02 -5.416313167E-01
 3.681082129E-01 7.172738388E-02 -5.382500207E-01
 3.550093919E-01 7.130098715E-02 -5.345640963E-01
 3.417663127E-01 7.078753039E-02 -5.296199927E-01
 3.293424100E-01 7.023179904E-02 -5.248030258E-01
 3.171512485E-01 6.961142272E-02 -5.184124566E-01
 3.039289415E-01 6.886657700E-02 -5.111675558E-01
 2.901908308E-01 6.801303476E-02 -5.092843371E-01
 2.770033777E-01 6.710668653E-02 -5.021736491E-01
 2.648490071E-01 6.618601084E-02 -4.984133605E-01
 2.525412589E-01 6.517428160E-02 -4.884561330E-01
 2.400306240E-01 6.406425312E-02 -4.834695429E-01
 2.276012301E-01 6.287735701E-02 -4.733767533E-01
 2.155208588E-01 6.164282747E-02 -4.693696189E-01
 2.037481740E-01 6.035612337E-02 -4.626850582E-01
 1.916004196E-01 5.892772414E-02 -4.512288354E-01
 1.795359030E-01 5.741685815E-02 -4.429983563E-01
 1.682012677E-01 5.590466969E-02 -4.354517030E-01
 1.568032280E-01 5.428095907E-02 -4.225166525E-01
 1.455940232E-01 5.258845910E-02 -4.153749435E-01
 1.343979686E-01 5.078229494E-02 -4.018317466E-01
 1.229185238E-01 4.880650528E-02 -3.877547215E-01
 1.121308245E-01 4.682328179E-02 -3.749183208E-01
 9.169933945E-02 4.268750735E-02 -3.441377982E-01
 8.030984923E-02 4.011814296E-02 -3.194039225E-01
 5.955632776E-02 3.484641947E-02 -2.705294002E-01
 8.007453755E-02 -3.000374790E-02 -1.872353593E-01
 1.003577784E-01 -3.324731067E-02 -1.971118999E-01
 1.113098636E-01 -3.484427184E-02 -2.046979548E-01
 1.225737333E-01 -3.638814576E-02 -2.108997401E-01
 1.335653439E-01 -3.781396151E-02 -2.199453068E-01
 1.443261728E-01 -3.913446330E-02 -2.260301869E-01
 1.559675485E-01 -4.048985615E-02 -2.347045674E-01
 1.679683551E-01 -4.181451164E-02 -2.441487380E-01
 1.798675060E-01 -4.305589013E-02 -2.536039324E-01
 1.913103983E-01 -4.418707080E-02 -2.634094545E-01
 2.023913935E-01 -4.522118159E-02 -2.726196589E-01
 2.142280936E-01 -4.625900462E-02 -2.819339249E-01
 2.269664332E-01 -4.730090499E-02 -2.927732523E-01
 2.397847250E-01 -4.827129468E-02 -3.039598251E-01
 2.522154599E-01 -4.913446307E-02 -3.147102120E-01
 2.639691532E-01 -4.988029227E-02 -3.246691339E-01
 2.759764045E-01 -5.056560040E-02 -3.339869430E-01
 2.887023091E-01 -5.120549910E-02 -3.453251923E-01
 3.015925884E-01 -5.175833777E-02 -3.533320669E-01
 3.142454922E-01 -5.221142061E-02 -3.647450666E-01
 3.267387897E-01 -5.255735666E-02 -3.726101049E-01
 3.387542963E-01 -5.279400758E-02 -3.815155835E-01
 3.502031267E-01 -5.291836895E-02 -3.840938677E-01
 3.614219427E-01 -5.295416526E-02 -3.888109875E-01
 3.722344339E-01 -5.289420113E-02 -3.916014598E-01
 3.835285008E-01 -5.273160711E-02 -3.873691141E-01
 3.962489814E-01 -5.242584273E-02 -3.853186814E-01
 4.094360024E-01 -5.197413266E-02 -3.800900851E-01
 4.221557230E-01 -5.140519887E-02 -3.710962872E-01
 4.348730743E-01 -5.069986731E-02 -3.605302240E-01
 4.470813423E-01 -4.989301413E-02 -3.440373210E-01
 4.587945789E-01 -4.901124910E-02 -3.258398176E-01
 4.706429392E-01 -4.800845496E-02 -3.068830700E-01
 4.822528064E-01 -4.693199508E-02 -2.829628366E-01
 4.943259954E-01 -4.571720771E-02 -2.604485526E-01
 5.078857839E-01 -4.425039887E-02 -2.297802346E-01
 5.217410624E-01 -4.266985692E-02 -2.035896753E-01
 5.353040099E-01 -4.104221053E-02 -1.764939964E-01
 5.482740700E-01 -3.941758163E-02 -1.492833346E-01
 5.612023771E-01 -3.774579801E-02 -1.208659431E-01
 5.743469000E-01 -3.601576574E-02 -9.568888525E-02
 5.866015255E-01 -3.438581899E-02 -7.471504570E-02
 5.986855328E-01 -3.274882957E-02 -5.421472274E-02
 6.124335825E-01 -3.087164368E-02 -2.729812554E-02
 6.273282766E-01 -2.883822378E-02 -5.995188968E-03
 6.425838172E-01 -2.675035223E-02 1.870772533E-02
 6.569332182E-01 -2.479556762E-02 3.946409714E-02
 6.699994802E-01 -2.302006353E-02 5.771574221E-02
 6.827886701E-01 -2.129574306E-02 7.693335389E-02
 6.950258315E-01 -1.966205053E-02 9.278006451E-02
 7.083042562E-01 -1.792409830E-02 1.098020146E-01
 7.220302522E-01 -1.614846615E-02 1.239719758E-01
 7.344665229E-01 -1.454061316E-02 1.455639493E-01
 7.472750247E-01 -1.295409165E-02 1.614187479E-01
 7.599363029E-01 -1.143009868E-02 1.694962185E-01
 7.722117305E-01 -9.963981807E-03 1.875734972E-01
 7.844410837E-01 -8.543609176E-03 2.047311178E-01
 7.965679467E-01 -7.193569094E-03 2.186993405E-01
 8.084106743E-01 -5.929555977E-03 2.331934648E-01
 8.197736740E-01 -4.784457386E-03 2.445216318E-01
 8.322419524E-01 -3.597799689E-03 2.555246564E-01
 8.449356258E-01 -2.458798874E-03 2.710636763E-01
 8.570958078E-01 -1.456444326E-03 2.844423403E-01
 8.690436184E-01 -5.763357622E-04 2.961169444E-01
 8.809232712E-01 1.818342134E-04 3.044517158E-01
 8.934349418E-01 8.494804497E-04 3.114676151E-01
 9.050362408E-01 1.354954147E-03 3.205819837E-01
 9.420934021E-01 2.075970289E-03 3.216512474E-01
 9.534715414E-01 2.030698000E-03 3.215654244E-01
 9.670241773E-01 1.813269395E-03 3.171725735E-01
 9.812329412E-01 1.411415869E-03 3.205578828E-01
 9.937948883E-01 8.429349109E-04 3.699115407E-01
 -5.000000000E-01 9.500000000E-01 -2.341223045E-03
 -5.000000000E-01 9.000000000E-01 -2.584164340E-03
 -5.000000000E-01 8.500000000E-01 -1.927957519E-03
 -5.000000000E-01 8.000000000E-01 -4.729760771E-04
 -5.000000000E-01 7.500000000E-01 1.751881905E-03
 -5.000000000E-01 7.000000000E-01 4.823625926E-03
 -5.000000000E-01 6.500000000E-01 8.835569901E-03
 -5.000000000E-01 6.000000000E-01 1.360047443E-02
 -5.000000000E-01 5.500000000E-01 1.946469794E-02
 -5.000000000E-01 5.000000000E-01 2.602715757E-02
 -5.000000000E-01 4.500000000E-01 3.347066868E-02
 -5.000000000E-01 4.000000000E-01 4.172095140E-02
 -5.000000000E-01 3.500000000E-01 5.045226771E-02
 -5.000000000E-01 3.000000000E-01 5.946627905E-02
 -5.000000000E-01 2.500000000E-01 6.857003766E-02
 -5.000000000E-01 2.000000000E-01 7.721703280E-02
 -5.000000000E-01 1.500000000E-01 8.520563401E-02
 -5.000000000E-01 1.000000000E-01 9.189756753E-02
 -5.000000000E-01 5.000000000E-02 9.710782265E-02
 -5.000000000E-01 2.752242878E-12 1.004993891E-01
 -5.000000000E-01 -5.000000000E-02 1.018968447E-01
 -5.000000000E-01 -1.000000000E-01 1.015869863E-01
 -5.000000000E-01 -1.500000000E-01 9.952341877E-02
 -5.000000000E-01 -2.000000000E-01 9.613271766E-02
 -5.000000000E-01 -2.500000000E-01 9.155377507E-02
 -5.000000000E-01 -3.000000000E-01 8.636258498E-02
 -5.000000000E-01 -3.500000000E-01 8.075859708E-02
 -5.000000000E-01 -4.000000000E-01 7.492668494E-02
 -5.000000000E-01 -4.500000000E-01 6.924227687E-02
 -5.000000000E-01 -5.000000000E-01 6.367432177E-02
 -5.000000000E-01 -5.500000000E-01 5.846013010E-02
 -5.000000000E-01 -6.000000000E-01 5.346743777E-02
 -5.000000000E-01 -6.500000000E-01 4.884474583E-02
 -5.000000000E-01 -7.000000000E-01 4.451166737E-02
 -5.000000000E-01 -7.500000000E-01 4.030923221E-02
 -5.000000000E-01 -8.000000000E-01 3.632964256E-02
 -5.000000000E-01 -8.500000000E-01 3.216137593E-02
 -5.000000000E-01 -9.000000000E-01 2.747238214E-02
 -5.000000000E-01 -9.500000000E-01 2.049149827E-02
 -4.500000000E-01 -1.000000000E+00 1.877845974E-02
 -4.000000000E-01 -1.000000000E+00 2.444349386E-02
 -3.500000000E-01 -1.000000000E+00 2.715520072E-02
 -3.000000000E-01 -1.000000000E+00 2.863335862E-02
 -2.500000000E-01 -1.000000000E+00 2.941567682E-02
 -2.000000000E-01 -1.000000000E+00 2.941927237E-02
 -1.500000000E-01 -1.000000000E+00 2.867610836E-02
 -1.000000000E-01 -1.000000000E+00 2.742920384E-02
 -5.000000000E-02 -1.000000000E+00 2.561891274E-02
 -9.424683256E-13 -1.000000000E+00 2.343977276E-02
 5.000000000E-02 -1.000000000E+00 2.084779080E-02
 1.000000000E-01 -1.000000000E+00 1.812829134E-02
 1.500000000E-01 -1.000000000E+00 1.530202942E-02
 2.000000000E-01 -1.000000000E+00 1.261242395E-02
 2.500000000E-01 -1.000000000E+00 1.015299987E-02
 3.000000000E-01 -1.000000000E+00 8.091434561E-03
 3.500000000E-01 -1.000000000E+00 6.288469132E-03
 4.000000000E-01 -1.000000000E+00 5.182064601E-03
 4.500000000E-01 -1.000000000E+00 4.716243134E-03
 5.000000000E-01 -1.000000000E+00 4.845631029E-03
 5.500000000E-01 -1.000000000E+00 5.707634955E-03
 6.000000000E-01 -1.000000000E+00 7.119717181E-03
 6.500000000E-01 -1.000000000E+00 9.089903159E-03
 7.000000000E-01 -1.000000000E+00 1.147591002E-02
 7.500000000E-01 -1.000000000E+00 1.417166078E-02
 8.000000000E-01 -1.000000000E+00 1.708475521E-02
 8.500000000E-01 -1.000000000E+00 2.015370393E-02
 9.000000000E-01 -1.000000000E+00 2.316391138E-02
 9.500000000E-01 -1.000000000E+00 2.604078343E-02
 1.000000000E+00 -1.000000000E+00 2.871665580E-02
 1.050000000E+00 -1.000000000E+00 3.118341281E-02
 1.100000000E+00 -1.000000000E+00 3.324711802E-02
 1.150000000E+00 -1.000000000E+00 3.509742883E-02
 1.200000000E+00 -1.000000000E+00 3.657434161E-02
 1.250000000E+00 -1.000000000E+00 3.764397642E-02
 1.300000000E+00 -1.000000000E+00 3.841629572E-02
 1.350000000E+00 -1.000000000E+00 3.891510025E-02
 1.400000000E+00 -1.000000000E+00 3.912853529E-02
 1.450000000E+00 -1.000000000E+00 3.911046842E-02
 1.500000000E+00 -1.000000000E+00 3.889218905E-02
 1.550000000E+00 -1.000000000E+00 3.845355419E-02
 1.600000000E+00 -1.000000000E+00 3.789063100E-02
 1.650000000E+00 -1.000000000E+00 3.720189387E-02
 1.700000000E+00 -1.000000000E+00 3.641730713E-02
 1.750000000E+00 -1.000000000E+00 3.561007043E-02
 1.800000000E+00 -1.000000000E+00 3.471940006E-02
 1.850000000E+00 -1.000000000E+00 3.380783564E-02
 1.900000000E+00 -1.000000000E+00 3.288198433E-02
 1.950000000E+00 -1.000000000E+00 3.196718310E-02
 2.000000000E+00 -1.000000000E+00 3.102127928E-02
 2.050000000E+00 -1.000000000E+00 3.014773911E-02
 2.100000000E+00 -1.000000000E+00 2.922848240E-02
 2.150000000E+00 -1.000000000E+00 2.839664337E-02
 2.200000000E+00 -1.000000000E+00 2.759604584E-02
 2.250000000E+00 -1.000000000E+00 2.680655793E-02
 2.300000000E+00 -1.000000000E+00 2.607606134E-02
 2.350000000E+00 -1.000000000E+00 2.537891436E-02
 2.400000000E+00 -1.000000000E+00 2.469875999E-02
 2.450000000E+00 -1.000000000E+00 2.411439289E-02
 2.500000000E+00 -1.000000000E+00 2.350359308E-02
 2.550000000E+00 -1.000000000E+00 2.302571562E-02
 2.600000000E+00 -1.000000000E+00 2.252800679E-02
 2.650000000E+00 -1.000000000E+00 2.208286753E-02
 2.700000000E+00 -1.000000000E+00 2.174367688E-02
 2.750000000E+00 -1.000000000E+00 2.130721303E-02
 2.800000000E+00 -1.000000000E+00 2.097087842E-02
 2.850000000E+00 -1.000000000E+00 2.068626329E-02
 2.900000000E+00 -1.000000000E+00 2.037754205E-02
 2.950000000E+00 -1.000000000E+00 2.010594602E-02
 3.000000000E+00 -1.000000000E+00 1.982343482E-02
 3.050000000E+00 -1.000000000E+00 1.953787237E-02
 3.100000000E+00 -1.000000000E+00 1.922217481E-02
 3.150000000E+00 -1.000000000E+00 1.887287854E-02
 3.200000000E+00 -1.000000000E+00 1.845179677E-02
 3.250000000E+00 -1.000000000E+00 1.788929721E-02
 3.300000000E+00 -1.000000000E+00 1.717293134E-02
 3.350000000E+00 -1.000000000E+00 1.613930971E-02
 3.400000000E+00 -1.000000000E+00 1.453755941E-02
 3.450000000E+00 -1.000000000E+00 1.193177166E-02
 3.500000000E+00 -9.500000000E-01 8.296466033E-03
 3.500000000E+00 -9.000000000E-01 9.886966188E-03
 3.500000000E+00 -8.500000000E-01 1.119932707E-02
 3.500000000E+00 -8.000000000E-01 1.273602709E-02
 3.500000000E+00 -7.500000000E-01 1.423845715E-02
 3.500000000E+00 -7.000000000E-01 1.575114900E-02
 3.500000000E+00 -6.500000000E-01 1.726319997E-02
 3.500000000E+00 -6.000000000E-01 1.888709726E-02
 3.500000000E+00 -5.500000000E-01 2.055009564E-02
 3.500000000E+00 -5.000000000E-01 2.239482599E-02
 3.500000000E+00 -4.500000000E-01 2.430486549E-02
 3.500000000E+00 -4.000000000E-01 2.636381192E-02
 3.500000000E+00 -3.500000000E-01 2.848229263E-02
 3.500000000E+00 -3.000000000E-01 3.041007990E-02
 3.500000000E+00 -2.500000000E-01 3.178740176E-02
 3.500000000E+00 -2.000000000E-01 3.227335582E-02
 3.500000000E+00 -1.500000000E-01 3.168490490E-02
 3.500000000E+00 -1.000000000E-01 3.063326333E-02
 3.500000000E+00 -5.000000000E-02 2.956710841E-02
 3.500000000E+00 -2.752242878E-12 2.885207178E-02
 3.500000000E+00 5.000000000E-02 2.835503377E-02
 3.500000000E+00 1.000000000E-01 2.759955572E-02
 3.500000000E+00 1.500000000E-01 2.625634798E-02
 3.500000000E+00 2.000000000E-01 2.342747113E-02
 3.500000000E+00 2.500000000E-01 2.046974990E-02
 3.500000000E+00 3.000000000E-01 1.727922005E-02
 3.500000000E+00 3.500000000E-01 1.422099712E-02
 3.500000000E+00 4.000000000E-01 1.144816826E-02
 3.500000000E+00 4.500000000E-01 8.814714109E-03
 3.500000000E+00 5.000000000E-01 6.403792935E-03
 3.500000000E+00 5.500000000E-01 4.472852553E-03
 3.500000000E+00 6.000000000E-01 3.274352821E-03
 3.500000000E+00 6.500000000E-01 2.961535467E-03
 3.500000000E+00 7.000000000E-01 3.093061188E-03
 3.500000000E+00 7.500000000E-01 2.582864110E-03
 3.500000000E+00 8.000000000E-01 -8.997971574E-04
 3.500000000E+00 8.500000000E-01 -6.960526522E-03
 3.500000000E+00 9.000000000E-01 -1.512340319E-02
 3.500000000E+00 9.500000000E-01 -2.630340612E-02
 3.450000000E+00 1.000000000E+00 -1.657076883E-02
 3.400000000E+00 1.000000000E+00 -8.030049160E-03
 3.350000000E+00 1.000000000E+00 -3.925114875E-03
 3.300000000E+00 1.000000000E+00 -2.089697246E-03
 3.250000000E+00 1.000000000E+00 -8.782297138E-04
 3.200000000E+00 1.000000000E+00 -4.832429472E-04
 3.150000000E+00 1.000000000E+00 -1.291034159E-04
 3.100000000E+00 1.000000000E+00 -2.080505648E-04
 3.050000000E+00 1.000000000E+00 -2.825309064E-04
 3.000000000E+00 1.000000000E+00 -7.476318623E-04
 2.950000000E+00 1.000000000E+00 -1.048271162E-03
 2.900000000E+00 1.000000000E+00 -1.691309323E-03
 2.850000000E+00 1.000000000E+00 -2.358644561E-03
 2.800000000E+00 1.000000000E+00 -3.090389219E-03
 2.750000000E+00 1.000000000E+00 -3.915497291E-03
 2.700000000E+00 1.000000000E+00 -4.658161449E-03
 2.650000000E+00 1.000000000E+00 -5.665492828E-03
 2.600000000E+00 1.000000000E+00 -6.752411210E-03
 2.550000000E+00 1.000000000E+00 -7.704345748E-03
 2.500000000E+00 1.000000000E+00 -9.088469927E-03
 2.450000000E+00 1.000000000E+00 -1.018681319E-02
 2.400000000E+00 1.000000000E+00 -1.169377566E-02
 2.350000000E+00 1.000000000E+00 -1.309150058E-02
 2.300000000E+00 1.000000000E+00 -1.460389319E-02
 2.250000000E+00 1.000000000E+00 -1.629207609E-02
 2.200000000E+00 1.000000000E+00 -1.799209492E-02
 2.150000000E+00 1.000000000E+00 -1.993373491E-02
 2.100000000E+00 1.000000000E+00 -2.191780206E-02
 2.050000000E+00 1.000000000E+00 -2.407403425E-02
 2.000000000E+00 1.000000000E+00 -2.636533069E-02
 1.950000000E+00 1.000000000E+00 -2.892045997E-02
 1.900000000E+00 1.000000000E+00 -3.168149255E-02
 1.850000000E+00 1.000000000E+00 -3.428603927E-02
 1.800000000E+00 1.000000000E+00 -3.749238100E-02
 1.750000000E+00 1.000000000E+00 -4.074917484E-02
 1.700000000E+00 1.000000000E+00 -4.416626728E-02
 1.650000000E+00 1.000000000E+00 -4.824389550E-02
 1.600000000E+00 1.000000000E+00 -5.198368816E-02
 1.550000000E+00 1.000000000E+00 -5.655523512E-02
 1.500000000E+00 1.000000000E+00 -6.108668908E-02
 1.450000000E+00 1.000000000E+00 -6.589219991E-02
 1.400000000E+00 1.000000000E+00 -7.103929617E-02
 1.350000000E+00 1.000000000E+00 -7.659075841E-02
 1.300000000E+00 1.000000000E+00 -8.200777537E-02
 1.250000000E+00 1.000000000E+00 -8.797029165E-02
 1.200000000E+00 1.000000000E+00 -9.427992974E-02
 1.150000000E+00 1.000000000E+00 -1.000985294E-01
 1.100000000E+00 1.000000000E+00 -1.060988977E-01
 1.050000000E+00 1.000000000E+00 -1.113431940E-01
 1.000000000E+00 1.000000000E+00 -1.165708574E-01
 9.500000000E-01 1.000000000E+00 -1.215803593E-01
 9.000000000E-01 1.000000000E+00 -1.258302903E-01
 8.500000000E-01 1.000000000E+00 -1.293850553E-01
 8.000000000E-01 1.000000000E+00 -1.314284306E-01
 7.500000000E-01 1.000000000E+00 -1.333052810E-01
 7.000000000E-01 1.000000000E+00 -1.328797459E-01
 6.500000000E-01 1.000000000E+00 -1.323516645E-01
 6.000000000E-01 1.000000000E+00 -1.298137459E-01
 5.500000000E-01 1.000000000E+00 -1.260127428E-01
 5.000000000E-01 1.000000000E+00 -1.216082646E-01
 4.500000000E-01 1.000000000E+00 -1.154004768E-01
 4.000000000E-01 1.000000000E+00 -1.085167059E-01
 3.500000000E-01 1.000000000E+00 -1.009068487E-01
 3.000000000E-01 1.000000000E+00 -9.253318071E-02
 2.500000000E-01 1.000000000E+00 -8.369124189E-02
 2.000000000E-01 1.000000000E+00 -7.493755834E-02
 1.500000000E-01 1.000000000E+00 -6.575972658E-02
 1.000000000E-01 1.000000000E+00 -5.670875225E-02
 5.000000000E-02 1.000000000E+00 -4.832255581E-02
 1.733724275E-12 1.000000000E+00 -4.049797903E-02
 -5.000000000E-02 1.000000000E+00 -3.313241883E-02
 -1.000000000E-01 1.000000000E+00 -2.612453502E-02
 -1.500000000E-01 1.000000000E+00 -2.037110515E-02
 -2.000000000E-01 1.000000000E+00 -1.551373274E-02
 -2.500000000E-01 1.000000000E+00 -1.152581023E-02
 -3.000000000E-01 1.000000000E+00 -8.301798934E-03
 -3.500000000E-01 1.000000000E+00 -5.777216937E-03
 -4.000000000E-01 1.000000000E+00 -3.908801684E-03
 -4.500000000E-01 1.000000000E+00 -2.458685708E-03
 9.707158605E-01 -4.422279948E-03 3.090396441E-01
 8.723428058E-01 -5.372416733E-03 2.920123591E-01
 7.939534589E-01 -1.251410454E-02 2.116697357E-01
 7.196480254E-01 -2.255691799E-02 1.194868877E-01
 6.480986931E-01 -3.233472892E-02 2.498849843E-02
 5.718958743E-01 -4.217463273E-02 -9.929731995E-02
 5.049926081E-01 -5.051442757E-02 -2.304038399E-01
 4.445092606E-01 -5.518539098E-02 -3.367037537E-01
 3.937613698E-01 -5.818789695E-02 -3.752514835E-01
 3.358941034E-01 -5.838561560E-02 -3.682133987E-01
 2.791444948E-01 -5.728358692E-02 -3.284777740E-01
 2.165225848E-01 -5.198615919E-02 -2.779821369E-01
 1.523542848E-01 -4.518777086E-02 -2.257979034E-01
 9.794846567E-02 -3.763368888E-02 -1.849268936E-01
 5.089775416E-02 -3.153541260E-02 -1.258172407E-01