TITLE     = "Visualization of the solution"
VARIABLES = "x"
"y"
"Pressure_Coefficient"
ZONE T="Zone"
 STRANDID=0, SOLUTIONTIME=0
 Nodes=11840, Elements=23099, ZONETYPE=FEQuadrilateral
 DATAPACKING=POINT
 DT=(DOUBLE DOUBLE DOUBLE )
 9.997469783E-01 5.177216954E-04 2.475191418E-01
 9.852167368E-01 3.435136518E-03 1.627338342E-01
 9.722030163E-01 6.037203595E-03 1.046457624E-01
 9.561623931E-01 9.227450937E-03 5.132759283E-02
 9.418087602E-01 1.202464197E-02 1.801710092E-02
 9.290555716E-01 1.451772824E-02 -1.171861334E-02
 9.179663658E-01 1.670595072E-02 -4.595842019E-02
 9.065028429E-01 1.895348541E-02 -9.240620328E-02
 8.945590854E-01 2.111953497E-02 -9.095045667E-02
 8.829978108E-01 2.328454517E-02 -1.266400085E-01
 8.711231947E-01 2.543293126E-02 -1.496055567E-01
 8.594210148E-01 2.751673013E-02 -1.824296302E-01
 8.475303650E-01 2.950028703E-02 -1.876013577E-01
 8.365339637E-01 3.131648898E-02 -2.016448474E-01
 8.252973557E-01 3.314172104E-02 -2.224948057E-01
 8.128610849E-01 3.507102653E-02 -2.269986598E-01
 8.005123138E-01 3.698130697E-02 -2.443984803E-01
 7.884591818E-01 3.881331906E-02 -2.644298932E-01
 7.760360837E-01 4.063898325E-02 -2.821375194E-01
 7.640609741E-01 4.232048243E-02 -2.812039430E-01
 7.511146665E-01 4.416932911E-02 -3.131095119E-01
 7.375891209E-01 4.596376792E-02 -3.109329540E-01
 7.267292738E-01 4.743312672E-02 -3.369525884E-01
 7.150574923E-01 4.893567041E-02 -3.497552178E-01
 7.030421495E-01 5.042425543E-02 -3.562783205E-01
 6.900565624E-01 5.201168358E-02 -3.751551343E-01
 6.769888997E-01 5.355096608E-02 -3.938857705E-01
 6.657205820E-01 5.482054502E-02 -4.061567544E-01
 6.536806822E-01 5.612383038E-02 -4.209567290E-01
 6.420993209E-01 5.731029809E-02 -4.285706466E-01
 6.301415563E-01 5.848970637E-02 -4.407865999E-01
 6.182330251E-01 5.960671604E-02 -4.512246885E-01
 6.075493097E-01 6.057252735E-02 -4.648466990E-01
 5.956307650E-01 6.159206852E-02 -4.820218305E-01
 5.838534832E-01 6.251250952E-02 -4.894037162E-01
 5.701420903E-01 6.348732114E-02 -4.943929022E-01
 5.572167635E-01 6.433083862E-02 -4.968467854E-01
 5.444710851E-01 6.512567401E-02 -5.196159945E-01
 5.327939987E-01 6.573642790E-02 -5.160194110E-01
 5.205202699E-01 6.632423401E-02 -5.207036256E-01
 5.080181956E-01 6.684917957E-02 -5.272855809E-01
 4.970151782E-01 6.724281609E-02 -5.268500774E-01
 4.839149714E-01 6.764505804E-02 -5.336608651E-01
 4.707777500E-01 6.794174761E-02 -5.294207047E-01
 4.573397338E-01 6.817311049E-02 -5.283358404E-01
 4.438074827E-01 6.833747774E-02 -5.360210861E-01
 4.309529662E-01 6.838437170E-02 -5.265654469E-01
 4.177424014E-01 6.838165224E-02 -5.316193265E-01
 4.052041173E-01 6.828282773E-02 -5.237652769E-01
 3.923565447E-01 6.813193858E-02 -5.281137688E-01
 3.800831437E-01 6.789454818E-02 -5.202797356E-01
 3.683440089E-01 6.761640310E-02 -5.174104079E-01
 3.550384045E-01 6.722784787E-02 -5.172182580E-01
 3.424313366E-01 6.676977128E-02 -5.066723307E-01
 3.297955394E-01 6.626744568E-02 -5.124924242E-01
 3.191224039E-01 6.575797498E-02 -5.007982904E-01
 3.069328666E-01 6.513184309E-02 -4.986391443E-01
 2.943698466E-01 6.440926343E-02 -4.923433237E-01
 2.807104290E-01 6.354892254E-02 -4.918420834E-01
 2.684824765E-01 6.268662959E-02 -4.851474495E-01
 2.568526566E-01 6.179405376E-02 -4.775715437E-01
 2.445606738E-01 6.077857688E-02 -4.703063742E-01
 2.321774364E-01 5.968116224E-02 -4.654365817E-01
 2.200581729E-01 5.852366239E-02 -4.596172462E-01
 2.083834112E-01 5.732488260E-02 -4.509533064E-01
 1.965164691E-01 5.603054538E-02 -4.443013033E-01
 1.843413711E-01 5.461179838E-02 -4.381285022E-01
 1.726410538E-01 5.314643681E-02 -4.269268216E-01
 1.609377712E-01 5.159118026E-02 -4.162743579E-01
 1.492303610E-01 4.994560778E-02 -4.108741969E-01
 1.383482218E-01 4.830782115E-02 -3.973614767E-01
 1.269675791E-01 4.649986327E-02 -3.900102668E-01
 1.159188598E-01 4.462434724E-02 -3.779311968E-01
 1.051260307E-01 4.267532751E-02 -3.660322634E-01
 9.531109035E-02 4.078040645E-02 -3.519084401E-01
 8.460073173E-02 3.858043626E-02 -3.374736771E-01
 7.357487082E-02 3.614816815E-02 -3.226272867E-01
 6.389463693E-02 3.383479267E-02 -3.021237264E-01
 5.463382974E-02 3.144351393E-02 -2.835407209E-01
 4.593227804E-02 2.900750749E-02 -2.621441572E-01
 3.818445280E-02 2.664341219E-02 -2.397978247E-01
 3.140116856E-02 2.437664382E-02 -2.124890557E-01
 2.559653297E-02 2.225407399E-02 -1.919153154E-01
 2.123366855E-02 2.050851844E-02 -1.598914669E-01
 1.717909984E-02 1.873538271E-02 -1.299026750E-01
 1.399370469E-02 1.721272990E-02 -9.466001565E-02
 1.117610373E-02 1.574040763E-02 -6.276125687E-02
 9.117214940E-03 1.456089877E-02 -2.627791602E-02
 7.246928755E-03 1.339559536E-02 2.934645743E-03
 5.494690500E-03 1.219086256E-02 8.081765764E-02
 3.243608633E-03 1.041987352E-02 1.797328890E-01
 1.414866420E-03 8.682755753E-03 2.864369302E-01
 -4.399091631E-05 6.924606394E-03 5.136925536E-01
 -1.431724988E-03 4.511627369E-03 7.729396729E-01
 -2.039943123E-03 2.619751729E-03 9.701472179E-01
 -2.234542044E-03 1.055779401E-03 1.069443747E+00
 -2.138782525E-03 -7.619435200E-04 1.131503263E+00
 -1.635257504E-03 -2.793199616E-03 1.074958180E+00
 -5.783240777E-04 -5.140138324E-03 9.715443865E-01
 1.018361072E-03 -7.562367246E-03 7.999437254E-01
 3.145703115E-03 -1.003006566E-02 6.490365478E-01
 5.142563954E-03 -1.195232663E-02 5.144533706E-01
 7.420889102E-03 -1.386283431E-02 4.313460521E-01
 9.254297242E-03 -1.524407882E-02 3.337700028E-01
 1.145510282E-02 -1.676473767E-02 2.769712465E-01
 1.397364214E-02 -1.836105064E-02 2.069931379E-01
 1.728547364E-02 -2.027519606E-02 1.397155368E-01
 2.047866955E-02 -2.196510695E-02 7.342577527E-02
 2.443801053E-02 -2.389334142E-02 1.989392258E-02
 2.969399095E-02 -2.621148154E-02 -3.319167084E-02
 3.529660776E-02 -2.846102417E-02 -8.796262855E-02
 4.193157703E-02 -3.087080084E-02 -1.277147834E-01
 4.936230183E-02 -3.332675993E-02 -1.669151793E-01
 5.794541910E-02 -3.590474650E-02 -1.975219269E-01
 6.656954437E-02 -3.826810420E-02 -2.291296909E-01
 7.668620348E-02 -4.080670699E-02 -2.491830538E-01
 8.639638126E-02 -4.305007309E-02 -2.684803499E-01
 9.682647139E-02 -4.527335986E-02 -2.877136963E-01
 1.081479117E-01 -4.750579596E-02 -3.036631722E-01
 1.197307035E-01 -4.962230101E-02 -3.180764635E-01
 1.314713806E-01 -5.161821470E-02 -3.325859068E-01
 1.421400607E-01 -5.331251770E-02 -3.466121650E-01
 1.534457505E-01 -5.499342084E-02 -3.601563243E-01
 1.654457450E-01 -5.664338171E-02 -3.677243222E-01
 1.770012826E-01 -5.814618245E-02 -3.863702617E-01
 1.887169033E-01 -5.954353511E-02 -3.939670692E-01
 1.994489133E-01 -6.073595211E-02 -4.040089899E-01
 2.107765824E-01 -6.191039458E-02 -4.149627645E-01
 2.228215784E-01 -6.307109445E-02 -4.293111297E-01
 2.346359938E-01 -6.409288943E-02 -4.365387767E-01
 2.464213967E-01 -6.503265351E-02 -4.528750345E-01
 2.585688829E-01 -6.587640196E-02 -4.573162885E-01
 2.699082792E-01 -6.657755375E-02 -4.668094884E-01
 2.821190357E-01 -6.723957509E-02 -4.796400488E-01
 2.941225171E-01 -6.776459515E-02 -4.825429642E-01
 3.069039881E-01 -6.822974980E-02 -4.961144178E-01
 3.186829984E-01 -6.852505356E-02 -4.984709067E-01
 3.310039043E-01 -6.871911138E-02 -5.014777234E-01
 3.416267931E-01 -6.879064441E-02 -5.054790775E-01
 3.530276716E-01 -6.875840575E-02 -5.036418906E-01
 3.640783727E-01 -6.863386929E-02 -5.078076932E-01
 3.750623763E-01 -6.838010997E-02 -4.965525589E-01
 3.868721426E-01 -6.800074130E-02 -4.873425524E-01
 3.997886479E-01 -6.747794151E-02 -4.855905630E-01
 4.119754732E-01 -6.681939960E-02 -4.667855644E-01
 4.245522022E-01 -6.603464484E-02 -4.590539837E-01
 4.366635680E-01 -6.510455161E-02 -4.259116566E-01
 4.492263198E-01 -6.407428533E-02 -4.166979566E-01
 4.613973200E-01 -6.292425096E-02 -3.840216198E-01
 4.741496146E-01 -6.165782362E-02 -3.713948901E-01
 4.863284230E-01 -6.028708443E-02 -3.308469271E-01
 4.987909794E-01 -5.887203664E-02 -3.234596625E-01
 5.119462609E-01 -5.720222741E-02 -2.771838838E-01
 5.250534415E-01 -5.550553277E-02 -2.546415474E-01
 5.376082659E-01 -5.381632596E-02 -2.291284205E-01
 5.504837036E-01 -5.202290788E-02 -2.032409516E-01
 5.636950135E-01 -5.011485517E-02 -1.719866706E-01
 5.766814947E-01 -4.821894690E-02 -1.494435871E-01
 5.900775194E-01 -4.622895643E-02 -1.265699557E-01
 6.031829715E-01 -4.422175512E-02 -9.610388368E-02
 6.167094111E-01 -4.216582328E-02 -7.851073919E-02
 6.302399039E-01 -4.006233811E-02 -5.121384965E-02
 6.439858079E-01 -3.792074323E-02 -2.828667428E-02
 6.569325924E-01 -3.590861708E-02 -9.302980456E-03
 6.702669263E-01 -3.383156285E-02 1.059789398E-02
 6.827501655E-01 -3.187962994E-02 3.058809918E-02
 6.952143312E-01 -2.993137576E-02 5.155939718E-02
 7.099916935E-01 -2.765084058E-02 7.012942271E-02
 7.232661843E-01 -2.562432364E-02 8.592284356E-02
 7.347595096E-01 -2.383980155E-02 1.108855255E-01
 7.487252951E-01 -2.176973596E-02 1.185121422E-01
 7.615092993E-01 -1.982911304E-02 1.458218907E-01
 7.753651142E-01 -1.779243536E-02 1.616694575E-01
 7.878554463E-01 -1.599895582E-02 1.758511462E-01
 8.006452322E-01 -1.416026521E-02 1.990111296E-01
 8.117836118E-01 -1.260469761E-02 2.156781485E-01
 8.230137825E-01 -1.108208485E-02 2.332344475E-01
 8.355669975E-01 -9.457682259E-03 2.479476186E-01
 8.481920362E-01 -7.905520499E-03 2.612755830E-01
 8.603516221E-01 -6.439447403E-03 2.843957072E-01
 8.710951209E-01 -5.234473385E-03 3.006222945E-01
 8.825446963E-01 -4.076161422E-03 3.091170734E-01
 8.950120211E-01 -2.892670222E-03 3.268579674E-01
 9.053486586E-01 -2.043821616E-03 3.346039896E-01
 9.160116315E-01 -1.249743276E-03 3.489427779E-01
 9.267205000E-01 -6.113954587E-04 3.504839181E-01
 9.364407063E-01 -1.171117692E-04 3.589961906E-01
 9.489458799E-01 3.375639790E-04 3.619541464E-01
 9.625007510E-01 6.492770626E-04 3.676335851E-01
 9.763634801E-01 7.652369095E-04 3.774992079E-01
 9.890615940E-01 6.954538403E-04 4.042493731E-01
 -5.000000000E-01 -1.000000000E+00 1.311065733E-02
 3.500000000E+00 -1.000000000E+00 7.636543639E-03
 3.500000000E+00 1.000000000E+00 -2.170287682E-02
 -5.000000000E-01 1.000000000E+00 5.017494363E-04
 9.924818575E-01 1.976429106E-03 2.481031142E-01
 9.787098765E-01 4.736170056E-03 1.318612304E-01
 9.641827047E-01 7.632327266E-03 7.537943762E-02
 9.489855766E-01 1.062604645E-02 3.496581830E-02
 9.354321659E-01 1.327118510E-02 3.508966135E-03
 9.235109687E-01 1.561183948E-02 -3.059660941E-02
 9.122346044E-01 1.782971807E-02 -7.529481407E-02
 9.005309641E-01 2.003651019E-02 -8.525609265E-02
 8.887784481E-01 2.220204007E-02 -1.114037025E-01
 8.770605028E-01 2.435873821E-02 -1.378043477E-01
 8.652721047E-01 2.647483069E-02 -1.699002664E-01
 8.534756899E-01 2.850850858E-02 -1.819497885E-01
 8.420321643E-01 3.040838800E-02 -1.939576056E-01
 8.309156597E-01 3.222910501E-02 -2.150408422E-01
 8.190792203E-01 3.410637379E-02 -2.222123467E-01
 8.066866994E-01 3.602616675E-02 -2.356545881E-01
 7.944857478E-01 3.789731301E-02 -2.559698817E-01
 7.822476327E-01 3.972615115E-02 -2.746235329E-01
 7.700485289E-01 4.147973284E-02 -2.770430476E-01
 7.575878203E-01 4.324490577E-02 -3.031037818E-01
 7.443518937E-01 4.506654851E-02 -3.080697256E-01
 7.321591973E-01 4.669844732E-02 -3.272560673E-01
 7.208933830E-01 4.818439856E-02 -3.440269065E-01
 7.090498209E-01 4.967996292E-02 -3.514459367E-01
 6.965493560E-01 5.121796951E-02 -3.664428457E-01
 6.835227311E-01 5.278132483E-02 -3.852001120E-01
 6.713547409E-01 5.418575555E-02 -4.005708926E-01
 6.597006321E-01 5.547218770E-02 -4.140567001E-01
 6.478900015E-01 5.671706423E-02 -4.241642802E-01
 6.361204386E-01 5.790000223E-02 -4.350711296E-01
 6.241872907E-01 5.904821120E-02 -4.449118520E-01
 6.128911674E-01 6.008962169E-02 -4.588892059E-01
 6.015900373E-01 6.108229794E-02 -4.748491857E-01
 5.897421241E-01 6.205228902E-02 -4.873109189E-01
 5.769977868E-01 6.299991533E-02 -4.910413489E-01
 5.636794269E-01 6.390907988E-02 -4.932374329E-01
 5.508439243E-01 6.472825631E-02 -5.110898847E-01
 5.386325419E-01 6.543105096E-02 -5.165273324E-01
 5.266571343E-01 6.603033096E-02 -5.186840210E-01
 5.142692327E-01 6.658670679E-02 -5.234887454E-01
 5.025166869E-01 6.704599783E-02 -5.275739752E-01
 4.904650748E-01 6.744393706E-02 -5.319010204E-01
 4.773463607E-01 6.779340282E-02 -5.309237102E-01
 4.640587419E-01 6.805742905E-02 -5.279418006E-01
 4.505736083E-01 6.825529411E-02 -5.338172083E-01
 4.373802245E-01 6.836092472E-02 -5.293257784E-01
 4.243476838E-01 6.838301197E-02 -5.303657759E-01
 4.114732593E-01 6.833223999E-02 -5.261181151E-01
 3.987803310E-01 6.820738316E-02 -5.272911788E-01
 3.862198442E-01 6.801324338E-02 -5.225188829E-01
 3.742135763E-01 6.775547564E-02 -5.198268620E-01
 3.616912067E-01 6.742212549E-02 -5.180705681E-01
 3.487348706E-01 6.699880958E-02 -5.100888493E-01
 3.361134380E-01 6.651860848E-02 -5.103436406E-01
 3.244589716E-01 6.601271033E-02 -5.057665392E-01
 3.130276352E-01 6.544490904E-02 -5.003755821E-01
 3.006513566E-01 6.477055326E-02 -4.960665607E-01
 2.875401378E-01 6.397909299E-02 -4.921737746E-01
 2.745964527E-01 6.311777607E-02 -4.881606105E-01
 2.626675665E-01 6.224034168E-02 -4.815318186E-01
 2.507066652E-01 6.128631532E-02 -4.738946931E-01
 2.383690551E-01 6.022986956E-02 -4.680197189E-01
 2.261178046E-01 5.910241231E-02 -4.626070673E-01
 2.142207921E-01 5.792427249E-02 -4.550217921E-01
 2.024499401E-01 5.667771399E-02 -4.481311243E-01
 1.904289201E-01 5.532117188E-02 -4.415681820E-01
 1.784912124E-01 5.387911759E-02 -4.321755386E-01
 1.667894125E-01 5.236880854E-02 -4.212640147E-01
 1.550840661E-01 5.076839402E-02 -4.137837546E-01
 1.437892914E-01 4.912671447E-02 -4.041400125E-01
 1.326579005E-01 4.740384221E-02 -3.947050473E-01
 1.214432195E-01 4.556210525E-02 -3.836231952E-01
 1.105224453E-01 4.364983737E-02 -3.762774218E-01
 8.995591104E-02 3.968042135E-02 -3.471487928E-01
 7.908780128E-02 3.736430220E-02 -3.347075324E-01
 7.162787393E-02 -3.953740560E-02 -2.433993733E-01
 9.161142632E-02 -4.416171648E-02 -2.838730514E-01
 1.024871916E-01 -4.638957791E-02 -2.948370633E-01
 1.139393076E-01 -4.856404848E-02 -3.114269800E-01
 1.256010421E-01 -5.062025785E-02 -3.262521771E-01
 1.368057206E-01 -5.246536620E-02 -3.414347010E-01
 1.477929056E-01 -5.415296927E-02 -3.531694759E-01
 1.594457477E-01 -5.581840128E-02 -3.644942660E-01
 1.712235138E-01 -5.739478208E-02 -3.760162384E-01
 1.828590930E-01 -5.884485878E-02 -3.915431717E-01
 1.940829083E-01 -6.013974361E-02 -3.999400916E-01
 2.051127478E-01 -6.132317334E-02 -4.082807689E-01
 2.167990804E-01 -6.249074452E-02 -4.209517928E-01
 2.287287861E-01 -6.358199194E-02 -4.350072312E-01
 2.405286953E-01 -6.456277147E-02 -4.431580923E-01
 2.524951398E-01 -6.545452774E-02 -4.564569093E-01
 2.642385811E-01 -6.622697785E-02 -4.619647400E-01
 2.760136575E-01 -6.690856442E-02 -4.721627956E-01
 2.881207764E-01 -6.750208512E-02 -4.827196824E-01
 3.005132526E-01 -6.799717247E-02 -4.871073063E-01
 3.127934933E-01 -6.837740168E-02 -5.002159819E-01
 3.248434514E-01 -6.862208247E-02 -4.991627219E-01
 3.363153487E-01 -6.875487790E-02 -5.050354973E-01
 3.473272324E-01 -6.877452508E-02 -5.038939917E-01
 3.585530221E-01 -6.869613752E-02 -5.053826253E-01
 3.695703745E-01 -6.850698963E-02 -5.046589623E-01
 3.809672594E-01 -6.819042563E-02 -4.913226382E-01
 3.933303952E-01 -6.773934141E-02 -4.839126626E-01
 4.058820605E-01 -6.714867055E-02 -4.799963564E-01
 4.182638377E-01 -6.642702222E-02 -4.610605208E-01
 4.306078851E-01 -6.556959823E-02 -4.473053681E-01
 4.429449439E-01 -6.458941847E-02 -4.178378828E-01
 4.553118199E-01 -6.349926814E-02 -4.037955503E-01
 4.677734673E-01 -6.229103729E-02 -3.751788935E-01
 4.802390188E-01 -6.097245403E-02 -3.561831346E-01
 4.925597012E-01 -5.957956053E-02 -3.220120613E-01
 5.053686202E-01 -5.803713202E-02 -3.046839394E-01
 5.184998512E-01 -5.635388009E-02 -2.644185739E-01
 5.313308537E-01 -5.466092937E-02 -2.421823745E-01
 5.440459847E-01 -5.291961692E-02 -2.163955071E-01
 5.570893586E-01 -5.106888153E-02 -1.885880506E-01
 5.701882541E-01 -4.916690104E-02 -1.596730148E-01
 5.833795071E-01 -4.722395167E-02 -1.379169709E-01
 5.966302454E-01 -4.522535577E-02 -1.132112756E-01
 6.099461913E-01 -4.319378920E-02 -8.571376101E-02
 6.234746575E-01 -4.111408070E-02 -6.622738326E-02
 6.371128559E-01 -3.899154067E-02 -4.001233861E-02
 6.504592001E-01 -3.691468015E-02 -1.820629730E-02
 6.635997593E-01 -3.487008996E-02 6.377743146E-04
 6.765085459E-01 -3.285559639E-02 2.019347007E-02
 6.889822483E-01 -3.090550285E-02 4.048061178E-02
 7.026030123E-01 -2.879110817E-02 6.078976418E-02
 7.166289389E-01 -2.663758211E-02 7.878815724E-02
 7.290128469E-01 -2.473206259E-02 9.590091154E-02
 7.417424023E-01 -2.280476876E-02 1.167838675E-01
 7.551172972E-01 -2.079942450E-02 1.294944031E-01
 7.684372067E-01 -1.881077420E-02 1.542298572E-01
 7.816102803E-01 -1.689569559E-02 1.700677798E-01
 7.942503393E-01 -1.507961052E-02 1.856662273E-01
 8.062144220E-01 -1.338248141E-02 2.081940321E-01
 8.173986971E-01 -1.184339123E-02 2.235616513E-01
 8.292903900E-01 -1.026988355E-02 2.401530842E-01
 8.418795168E-01 -8.681601379E-03 2.554814268E-01
 8.542718291E-01 -7.172483951E-03 2.709373168E-01
 8.657233715E-01 -5.836960394E-03 2.925935885E-01
 8.768199086E-01 -4.655317403E-03 3.056945441E-01
 8.887783587E-01 -3.484415822E-03 3.159797094E-01
 9.001803398E-01 -2.468245919E-03 3.334743304E-01
 9.106801450E-01 -1.646782446E-03 3.400783589E-01
 9.213660657E-01 -9.305693675E-04 3.522084081E-01
 9.426932931E-01 1.102261049E-04 3.617497251E-01
 9.557233155E-01 4.934205208E-04 3.636307532E-01
 9.694321156E-01 7.072569861E-04 3.708489017E-01
 9.827125371E-01 7.303453749E-04 3.848592402E-01
 9.944042861E-01 6.065877678E-04 4.572212471E-01
 -5.000000000E-01 9.500000000E-01 8.440101005E-04
 -5.000000000E-01 9.000000000E-01 1.654682636E-03
 -5.000000000E-01 8.500000000E-01 2.944798441E-03
 -5.000000000E-01 8.000000000E-01 4.896297029E-03
 -5.000000000E-01 7.500000000E-01 7.587922970E-03
 -5.000000000E-01 7.000000000E-01 1.107588397E-02
 -5.000000000E-01 6.500000000E-01 1.533938307E-02
 -5.000000000E-01 6.000000000E-01 2.064643497E-02
 -5.000000000E-01 5.500000000E-01 2.674487252E-02
 -5.000000000E-01 5.000000000E-01 3.376519842E-02
 -5.000000000E-01 4.500000000E-01 4.158968940E-02
 -5.000000000E-01 4.000000000E-01 5.026571588E-02
 -5.000000000E-01 3.500000000E-01 5.927623422E-02
 -5.000000000E-01 3.000000000E-01 6.881416928E-02
 -5.000000000E-01 2.500000000E-01 7.832851867E-02
 -5.000000000E-01 2.000000000E-01 8.752251196E-02
 -5.000000000E-01 1.500000000E-01 9.564979339E-02
 -5.000000000E-01 1.000000000E-01 1.026594587E-01
 -5.000000000E-01 5.000000000E-02 1.079331739E-01
 -5.000000000E-01 2.752242878E-12 1.112832188E-01
 -5.000000000E-01 -5.000000000E-02 1.123812793E-01
 -5.000000000E-01 -1.000000000E-01 1.114340233E-01
 -5.000000000E-01 -1.500000000E-01 1.084316533E-01
 -5.000000000E-01 -2.000000000E-01 1.039434460E-01
 -5.000000000E-01 -2.500000000E-01 9.806640625E-02
 -5.000000000E-01 -3.000000000E-01 9.158288849E-02
 -5.000000000E-01 -3.500000000E-01 8.455024979E-02
 -5.000000000E-01 -4.000000000E-01 7.736831164E-02
 -5.000000000E-01 -4.500000000E-01 7.043335785E-02
 -5.000000000E-01 -5.000000000E-01 6.370297365E-02
 -5.000000000E-01 -5.500000000E-01 5.740197307E-02
 -5.000000000E-01 -6.000000000E-01 5.161597768E-02
 -5.000000000E-01 -6.500000000E-01 4.629240002E-02
 -5.000000000E-01 -7.000000000E-01 4.139364593E-02
 -5.000000000E-01 -7.500000000E-01 3.696850925E-02
 -5.000000000E-01 -8.000000000E-01 3.274113818E-02
 -5.000000000E-01 -8.500000000E-01 2.866523841E-02
 -5.000000000E-01 -9.000000000E-01 2.435219210E-02
 -5.000000000E-01 -9.500000000E-01 1.800527351E-02
 -4.500000000E-01 -1.000000000E+00 1.637049683E-02
 -4.000000000E-01 -1.000000000E+00 2.118577284E-02
 -3.500000000E-01 -1.000000000E+00 2.324391087E-02
 -3.000000000E-01 -1.000000000E+00 2.405122151E-02
 -2.500000000E-01 -1.000000000E+00 2.394938897E-02
 -2.000000000E-01 -1.000000000E+00 2.296240702E-02
 -1.500000000E-01 -1.000000000E+00 2.119972903E-02
 -1.000000000E-01 -1.000000000E+00 1.871853131E-02
 -5.000000000E-02 -1.000000000E+00 1.556890030E-02
 -9.424683256E-13 -1.000000000E+00 1.190178043E-02
 5.000000000E-02 -1.000000000E+00 7.803127234E-03
 1.000000000E-01 -1.000000000E+00 3.539474312E-03
 1.500000000E-01 -1.000000000E+00 -8.035544364E-04
 2.000000000E-01 -1.000000000E+00 -5.014609428E-03
 2.500000000E-01 -1.000000000E+00 -8.883331632E-03
 3.000000000E-01 -1.000000000E+00 -1.230318295E-02
 3.500000000E-01 -1.000000000E+00 -1.516244359E-02
 4.000000000E-01 -1.000000000E+00 -1.725264332E-02
 4.500000000E-01 -1.000000000E+00 -1.851354400E-02
 5.000000000E-01 -1.000000000E+00 -1.878995171E-02
 5.500000000E-01 -1.000000000E+00 -1.818986311E-02
 6.000000000E-01 -1.000000000E+00 -1.677465138E-02
 6.500000000E-01 -1.000000000E+00 -1.454373782E-02
 7.000000000E-01 -1.000000000E+00 -1.175794014E-02
 7.500000000E-01 -1.000000000E+00 -8.429060872E-03
 8.000000000E-01 -1.000000000E+00 -4.490704949E-03
 8.500000000E-01 -1.000000000E+00 -6.649303438E-04
 9.000000000E-01 -1.000000000E+00 3.479051374E-03
 9.500000000E-01 -1.000000000E+00 7.390128786E-03
 1.000000000E+00 -1.000000000E+00 1.120479746E-02
 1.050000000E+00 -1.000000000E+00 1.470877169E-02
 1.100000000E+00 -1.000000000E+00 1.797777371E-02
 1.150000000E+00 -1.000000000E+00 2.082478888E-02
 1.200000000E+00 -1.000000000E+00 2.334505224E-02
 1.250000000E+00 -1.000000000E+00 2.541044562E-02
 1.300000000E+00 -1.000000000E+00 2.712294182E-02
 1.350000000E+00 -1.000000000E+00 2.844476881E-02
 1.400000000E+00 -1.000000000E+00 2.944239609E-02
 1.450000000E+00 -1.000000000E+00 3.018297674E-02
 1.500000000E+00 -1.000000000E+00 3.058678102E-02
 1.550000000E+00 -1.000000000E+00 3.086169538E-02
 1.600000000E+00 -1.000000000E+00 3.080321373E-02
 1.650000000E+00 -1.000000000E+00 3.071396568E-02
 1.700000000E+00 -1.000000000E+00 3.040563800E-02
 1.750000000E+00 -1.000000000E+00 3.005324950E-02
 1.800000000E+00 -1.000000000E+00 2.959682103E-02
 1.850000000E+00 -1.000000000E+00 2.908096848E-02
 1.900000000E+00 -1.000000000E+00 2.850192045E-02
 1.950000000E+00 -1.000000000E+00 2.793484762E-02
 2.000000000E+00 -1.000000000E+00 2.730552354E-02
 2.050000000E+00 -1.000000000E+00 2.674545248E-02
 2.100000000E+00 -1.000000000E+00 2.612340929E-02
 2.150000000E+00 -1.000000000E+00 2.552995842E-02
 2.200000000E+00 -1.000000000E+00 2.495149845E-02
 2.250000000E+00 -1.000000000E+00 2.440626006E-02
 2.300000000E+00 -1.000000000E+00 2.387190742E-02
 2.350000000E+00 -1.000000000E+00 2.341902074E-02
 2.400000000E+00 -1.000000000E+00 2.290172357E-02
 2.450000000E+00 -1.000000000E+00 2.249929055E-02
 2.500000000E+00 -1.000000000E+00 2.207331799E-02
 2.550000000E+00 -1.000000000E+00 2.171113972E-02
 2.600000000E+00 -1.000000000E+00 2.136638034E-02
 2.650000000E+00 -1.000000000E+00 2.106025271E-02
 2.700000000E+00 -1.000000000E+00 2.078822264E-02
 2.750000000E+00 -1.000000000E+00 2.052750337E-02
 2.800000000E+00 -1.000000000E+00 2.031627285E-02
 2.850000000E+00 -1.000000000E+00 2.006010327E-02
 2.900000000E+00 -1.000000000E+00 1.986925497E-02
 2.950000000E+00 -1.000000000E+00 1.963864190E-02
 3.000000000E+00 -1.000000000E+00 1.940564386E-02
 3.050000000E+00 -1.000000000E+00 1.917754261E-02
 3.100000000E+00 -1.000000000E+00 1.886250232E-02
 3.150000000E+00 -1.000000000E+00 1.851037294E-02
 3.200000000E+00 -1.000000000E+00 1.800598622E-02
 3.250000000E+00 -1.000000000E+00 1.741844680E-02
 3.300000000E+00 -1.000000000E+00 1.662214958E-02
 3.350000000E+00 -1.000000000E+00 1.546400314E-02
 3.400000000E+00 -1.000000000E+00 1.369997699E-02
 3.450000000E+00 -1.000000000E+00 1.083263509E-02
 3.500000000E+00 -9.500000000E-01 6.797026595E-03
 3.500000000E+00 -9.000000000E-01 8.420697241E-03
 3.500000000E+00 -8.500000000E-01 9.812906200E-03
 3.500000000E+00 -8.000000000E-01 1.138486053E-02
 3.500000000E+00 -7.500000000E-01 1.294655934E-02
 3.500000000E+00 -7.000000000E-01 1.449534592E-02
 3.500000000E+00 -6.500000000E-01 1.622122408E-02
 3.500000000E+00 -6.000000000E-01 1.809336785E-02
 3.500000000E+00 -5.500000000E-01 2.008710467E-02
 3.500000000E+00 -5.000000000E-01 2.226711658E-02
 3.500000000E+00 -4.500000000E-01 2.451511456E-02
 3.500000000E+00 -4.000000000E-01 2.700889918E-02
 3.500000000E+00 -3.500000000E-01 2.958052630E-02
 3.500000000E+00 -3.000000000E-01 3.216063575E-02
 3.500000000E+00 -2.500000000E-01 3.370728128E-02
 3.500000000E+00 -2.000000000E-01 3.499855942E-02
 3.500000000E+00 -1.500000000E-01 3.539719435E-02
 3.500000000E+00 -1.000000000E-01 3.501736327E-02
 3.500000000E+00 -5.000000000E-02 3.444366363E-02
 3.500000000E+00 -2.752242878E-12 3.379973488E-02
 3.500000000E+00 5.000000000E-02 3.291747427E-02
 3.500000000E+00 1.000000000E-01 3.189432239E-02
 3.500000000E+00 1.500000000E-01 2.993291795E-02
 3.500000000E+00 2.000000000E-01 2.711515376E-02
 3.500000000E+00 2.500000000E-01 2.396502056E-02
 3.500000000E+00 3.000000000E-01 2.069036979E-02
 3.500000000E+00 3.500000000E-01 1.747582701E-02
 3.500000000E+00 4.000000000E-01 1.451846428E-02
 3.500000000E+00 4.500000000E-01 1.174858703E-02
 3.500000000E+00 5.000000000E-01 9.263916211E-03
 3.500000000E+00 5.500000000E-01 7.140493174E-03
 3.500000000E+00 6.000000000E-01 5.705753588E-03
 3.500000000E+00 6.500000000E-01 4.995987072E-03
 3.500000000E+00 7.000000000E-01 4.743851319E-03
 3.500000000E+00 7.500000000E-01 4.029354947E-03
 3.500000000E+00 8.000000000E-01 1.320289310E-03
 3.500000000E+00 8.500000000E-01 -3.994190990E-03
 3.500000000E+00 9.000000000E-01 -1.129622547E-02
 3.500000000E+00 9.500000000E-01 -2.142373785E-02
 3.450000000E+00 1.000000000E+00 -1.249444006E-02
 3.400000000E+00 1.000000000E+00 -4.650538441E-03
 3.350000000E+00 1.000000000E+00 -8.936419519E-04
 3.300000000E+00 1.000000000E+00 8.420719288E-04
 3.250000000E+00 1.000000000E+00 1.859302253E-03
 3.200000000E+00 1.000000000E+00 2.376973860E-03
 3.150000000E+00 1.000000000E+00 2.622485433E-03
 3.100000000E+00 1.000000000E+00 2.633235500E-03
 3.050000000E+00 1.000000000E+00 2.516360191E-03
 3.000000000E+00 1.000000000E+00 2.154731049E-03
 2.950000000E+00 1.000000000E+00 1.651398118E-03
 2.900000000E+00 1.000000000E+00 1.134078896E-03
 2.850000000E+00 1.000000000E+00 5.380745363E-04
 2.800000000E+00 1.000000000E+00 -1.646964814E-04
 2.750000000E+00 1.000000000E+00 -1.015112200E-03
 2.700000000E+00 1.000000000E+00 -1.890393801E-03
 2.650000000E+00 1.000000000E+00 -2.674159512E-03
 2.600000000E+00 1.000000000E+00 -3.669210129E-03
 2.550000000E+00 1.000000000E+00 -4.447500874E-03
 2.500000000E+00 1.000000000E+00 -5.970045282E-03
 2.450000000E+00 1.000000000E+00 -7.001401435E-03
 2.400000000E+00 1.000000000E+00 -8.173489235E-03
 2.350000000E+00 1.000000000E+00 -9.605137583E-03
 2.300000000E+00 1.000000000E+00 -1.074661099E-02
 2.250000000E+00 1.000000000E+00 -1.264809148E-02
 2.200000000E+00 1.000000000E+00 -1.388228907E-02
 2.150000000E+00 1.000000000E+00 -1.611903879E-02
 2.100000000E+00 1.000000000E+00 -1.748349655E-02
 2.050000000E+00 1.000000000E+00 -1.957262202E-02
 2.000000000E+00 1.000000000E+00 -2.182918776E-02
 1.950000000E+00 1.000000000E+00 -2.408430652E-02
 1.900000000E+00 1.000000000E+00 -2.660607969E-02
 1.850000000E+00 1.000000000E+00 -2.918878410E-02
 1.800000000E+00 1.000000000E+00 -3.204364449E-02
 1.750000000E+00 1.000000000E+00 -3.513974265E-02
 1.700000000E+00 1.000000000E+00 -3.832068446E-02
 1.650000000E+00 1.000000000E+00 -4.203223497E-02
 1.600000000E+00 1.000000000E+00 -4.549583101E-02
 1.550000000E+00 1.000000000E+00 -4.979404270E-02
 1.500000000E+00 1.000000000E+00 -5.392525546E-02
 1.450000000E+00 1.000000000E+00 -5.869304393E-02
 1.400000000E+00 1.000000000E+00 -6.356644484E-02
 1.350000000E+00 1.000000000E+00 -6.878090721E-02
 1.300000000E+00 1.000000000E+00 -7.385093730E-02
 1.250000000E+00 1.000000000E+00 -7.952650805E-02
 1.200000000E+00 1.000000000E+00 -8.523080689E-02
 1.150000000E+00 1.000000000E+00 -9.059990178E-02
 1.100000000E+00 1.000000000E+00 -9.687776351E-02
 1.050000000E+00 1.000000000E+00 -1.020749489E-01
 1.000000000E+00 1.000000000E+00 -1.062675119E-01
 9.500000000E-01 1.000000000E+00 -1.114261488E-01
 9.000000000E-01 1.000000000E+00 -1.156532419E-01
 8.500000000E-01 1.000000000E+00 -1.184913318E-01
 8.000000000E-01 1.000000000E+00 -1.213454230E-01
 7.500000000E-01 1.000000000E+00 -1.223849071E-01
 7.000000000E-01 1.000000000E+00 -1.220494102E-01
 6.500000000E-01 1.000000000E+00 -1.215260861E-01
 6.000000000E-01 1.000000000E+00 -1.184250523E-01
 5.500000000E-01 1.000000000E+00 -1.157948826E-01
 5.000000000E-01 1.000000000E+00 -1.113646637E-01
 4.500000000E-01 1.000000000E+00 -1.056644600E-01
 4.000000000E-01 1.000000000E+00 -9.921768410E-02
 3.500000000E-01 1.000000000E+00 -9.190146903E-02
 3.000000000E-01 1.000000000E+00 -8.364915228E-02
 2.500000000E-01 1.000000000E+00 -7.556260843E-02
 2.000000000E-01 1.000000000E+00 -6.679613749E-02
 1.500000000E-01 1.000000000E+00 -5.802296629E-02
 1.000000000E-01 1.000000000E+00 -4.966195496E-02
 5.000000000E-02 1.000000000E+00 -4.143270859E-02
 1.733724275E-12 1.000000000E+00 -3.371020543E-02
 -5.000000000E-02 1.000000000E+00 -2.674014187E-02
 -1.000000000E-01 1.000000000E+00 -2.037559626E-02
 -1.500000000E-01 1.000000000E+00 -1.483236092E-02
 -2.000000000E-01 1.000000000E+00 -1.012771063E-02
 -2.500000000E-01 1.000000000E+00 -6.320375032E-03
 -3.000000000E-01 1.000000000E+00 -3.392692435E-03
 -3.500000000E-01 1.000000000E+00 -1.313086217E-03
 -4.000000000E-01 1.000000000E+00 -4.332104482E-05
 -4.500000000E-01 1.000000000E+00 4.569844955E-04
 8.980101164E-01 -8.085420513E-03 3.215556292E-01
 8.216000310E-01 -1.641200838E-02 2.260547931E-01
 9.855568856E-01 -4.455465160E-03 3.893848736E-01
 7.529377773E-01 -2.662814924E-02 1.256231201E-01
 6.801958854E-01 -3.735742414E-02 2.490674135E-02
 6.148262951E-01 -4.943247000E-02 -7.991685253E-02
 5.479246594E-01 -5.872293391E-02 -2.049153576E-01
 4.838214642E-01 -6.579879267E-02 -3.353684958E-01
 4.282204897E-01 -7.130874689E-02 -4.375645737E-01
 3.731379330E-01 -7.309134737E-02 -4.876325113E-01
 3.230041532E-01 -7.433252910E-02 -4.864889581E-01
 2.611001244E-01 -7.096179251E-02 -4.505956100E-01