TITLE     = "Visualization of the solution"
VARIABLES = "x"
"y"
"Pressure_Coefficient"
ZONE T="Zone"
 STRANDID=0, SOLUTIONTIME=0
 Nodes=11992, Elements=23402, ZONETYPE=FEQuadrilateral
 DATAPACKING=POINT
 DT=(DOUBLE DOUBLE DOUBLE )
 9.998518229E-01 5.103357253E-04 2.587801489E-01
 9.861802459E-01 3.279300872E-03 1.838405634E-01
 9.734015465E-01 5.910126958E-03 1.125955974E-01
 9.566074610E-01 9.268674068E-03 6.389508458E-02
 9.416246414E-01 1.224251743E-02 3.423704259E-02
 9.282666445E-01 1.496159565E-02 -1.146799048E-02
 9.165953994E-01 1.727131568E-02 -3.073274116E-02
 9.051859975E-01 1.956909522E-02 -6.814354916E-02
 8.933669925E-01 2.188565210E-02 -9.165729570E-02
 8.816663623E-01 2.417253330E-02 -1.330820093E-01
 8.692915440E-01 2.643012442E-02 -1.295034999E-01
 8.573498130E-01 2.869644947E-02 -1.769320117E-01
 8.452790976E-01 3.083275445E-02 -1.883811019E-01
 8.341361284E-01 3.276153281E-02 -1.939147229E-01
 8.228486776E-01 3.473842517E-02 -2.270135268E-01
 8.104749322E-01 3.678701445E-02 -2.345734079E-01
 7.979488969E-01 3.883490339E-02 -2.454199656E-01
 7.859203815E-01 4.081326351E-02 -2.784060487E-01
 7.735890746E-01 4.272991791E-02 -2.871833737E-01
 7.621059418E-01 4.448395967E-02 -2.971841399E-01
 7.493061423E-01 4.642907530E-02 -3.244323158E-01
 7.358658314E-01 4.836729541E-02 -3.344916594E-01
 7.251711488E-01 4.988585040E-02 -3.453668166E-01
 7.140280604E-01 5.146212876E-02 -3.729485839E-01
 7.022594810E-01 5.303224549E-02 -3.793719010E-01
 6.894066930E-01 5.472404137E-02 -3.997377916E-01
 6.767950058E-01 5.632318184E-02 -4.232630939E-01
 6.658896208E-01 5.762379616E-02 -4.257600564E-01
 6.543021202E-01 5.899348482E-02 -4.529551845E-01
 6.426519752E-01 6.026411429E-02 -4.503167230E-01
 6.310042143E-01 6.153790653E-02 -4.810414229E-01
 6.193392277E-01 6.269659102E-02 -4.832934322E-01
 6.089547276E-01 6.370683014E-02 -5.027154046E-01
 5.970872045E-01 6.476467103E-02 -5.090618959E-01
 5.856209397E-01 6.573021412E-02 -5.185499553E-01
 5.722665787E-01 6.677273661E-02 -5.332611290E-01
 5.596755147E-01 6.764794886E-02 -5.330672656E-01
 5.472170115E-01 6.846937537E-02 -5.508218135E-01
 5.359854698E-01 6.911050528E-02 -5.524225415E-01
 5.239178538E-01 6.972452998E-02 -5.505204939E-01
 5.116465092E-01 7.030225545E-02 -5.679134921E-01
 5.005379915E-01 7.071132213E-02 -5.565748492E-01
 4.875116050E-01 7.114709914E-02 -5.629820765E-01
 4.743188322E-01 7.148789614E-02 -5.620065097E-01
 4.608220756E-01 7.175339758E-02 -5.616159683E-01
 4.475360215E-01 7.193566859E-02 -5.661182145E-01
 4.347506762E-01 7.200527936E-02 -5.566512400E-01
 4.219507277E-01 7.202307135E-02 -5.587625719E-01
 4.094646275E-01 7.196170092E-02 -5.585262367E-01
 3.966343403E-01 7.180958241E-02 -5.520910396E-01
 3.845015168E-01 7.160657644E-02 -5.515166527E-01
 3.726722598E-01 7.133466750E-02 -5.449754431E-01
 3.593401313E-01 7.096001506E-02 -5.414303524E-01
 3.466912508E-01 7.054225355E-02 -5.442383452E-01
 3.335941136E-01 6.999991834E-02 -5.345061059E-01
 3.228327334E-01 6.950599700E-02 -5.310469551E-01
 3.102314174E-01 6.885288656E-02 -5.234826645E-01
 2.974817157E-01 6.813295931E-02 -5.240498796E-01
 2.835605741E-01 6.723500788E-02 -5.157461569E-01
 2.714687586E-01 6.639163941E-02 -5.153087261E-01
 2.596881390E-01 6.547896564E-02 -5.066041627E-01
 2.473205179E-01 6.444551796E-02 -4.994248165E-01
 2.348975092E-01 6.332846731E-02 -4.950906567E-01
 2.225868851E-01 6.212736294E-02 -4.878440058E-01
 2.106174529E-01 6.087019295E-02 -4.795159645E-01
 1.986383349E-01 5.952846259E-02 -4.724864017E-01
 1.862192452E-01 5.803124234E-02 -4.621911576E-01
 1.744894385E-01 5.652754754E-02 -4.544831946E-01
 1.627198309E-01 5.491787568E-02 -4.467468433E-01
 1.510187089E-01 5.320250615E-02 -4.350853732E-01
 1.400576681E-01 5.149889365E-02 -4.275642136E-01
 1.285531968E-01 4.957286268E-02 -4.105453756E-01
 1.173948199E-01 4.759180173E-02 -3.978334650E-01
 1.067043245E-01 4.557275400E-02 -3.875110488E-01
 9.675857425E-02 4.356361181E-02 -3.706113167E-01
 8.605878055E-02 4.125669226E-02 -3.547084522E-01
 7.491799444E-02 3.865894675E-02 -3.324965509E-01
 6.512805820E-02 3.619758412E-02 -3.099357366E-01
 5.555053055E-02 3.358936682E-02 -2.852557647E-01
 4.666625336E-02 3.094471619E-02 -2.578624111E-01
 3.896817565E-02 2.844614908E-02 -2.275890905E-01
 3.210549057E-02 2.601453662E-02 -1.924143330E-01
 2.628729492E-02 2.375259809E-02 -1.632229940E-01
 2.199671045E-02 2.193795145E-02 -1.238915133E-01
 1.786521077E-02 2.004222386E-02 -8.837543893E-02
 1.459666248E-02 1.839439943E-02 -4.212235311E-02
 1.168009173E-02 1.679076441E-02 -1.384967434E-03
 9.533925913E-03 1.550228614E-02 4.129538370E-02
 7.619227283E-03 1.425222494E-02 7.829513106E-02
 5.862837657E-03 1.299168449E-02 1.623858516E-01
 3.610573476E-03 1.114769187E-02 2.671798276E-01
 1.727491966E-03 9.292103350E-03 3.536172021E-01
 2.068869944E-04 7.395314518E-03 6.043182858E-01
 -1.252955757E-03 4.710309207E-03 8.558328546E-01
 -1.826175954E-03 2.697711345E-03 1.018495041E+00
 -1.972501865E-03 1.085543772E-03 1.101906868E+00
 -1.810163609E-03 -7.490808493E-04 1.127373933E+00
 -1.286503742E-03 -2.673959127E-03 1.056720854E+00
 -1.953292522E-04 -4.986478016E-03 9.327087158E-01
 1.401509740E-03 -7.340281270E-03 7.631727122E-01
 3.529955866E-03 -9.743902832E-03 5.981768547E-01
 5.473615136E-03 -1.156846900E-02 4.662411996E-01
 7.709665690E-03 -1.339980401E-02 3.733391159E-01
 9.468388744E-03 -1.469509769E-02 2.884466275E-01
 1.164063346E-02 -1.616190188E-02 2.325254434E-01
 1.411833428E-02 -1.769896410E-02 1.670166998E-01
 1.743223891E-02 -1.956246421E-02 1.040654816E-01
 2.050730772E-02 -2.114558965E-02 4.217009671E-02
 2.447704412E-02 -2.302276716E-02 -2.743425326E-03
 2.976910770E-02 -2.529915795E-02 -5.521369003E-02
 3.545104340E-02 -2.750047296E-02 -1.099247314E-01
 4.214540496E-02 -2.984681726E-02 -1.409546777E-01
 4.965273291E-02 -3.224522248E-02 -1.768010923E-01
 5.846152082E-02 -3.478227556E-02 -2.029946966E-01
 6.717582792E-02 -3.708560765E-02 -2.308707981E-01
 7.729978114E-02 -3.952284530E-02 -2.486342683E-01
 8.713556826E-02 -4.170421883E-02 -2.649556417E-01
 9.759331495E-02 -4.384667799E-02 -2.824077578E-01
 1.089009941E-01 -4.600061476E-02 -2.983686151E-01
 1.202882826E-01 -4.800207913E-02 -3.096418682E-01
 1.320903599E-01 -4.993868619E-02 -3.237556278E-01
 1.425547004E-01 -5.154081434E-02 -3.360424820E-01
 1.538664997E-01 -5.315848812E-02 -3.450025816E-01
 1.659366041E-01 -5.478374287E-02 -3.601057304E-01
 1.774225384E-01 -5.621422827E-02 -3.703631065E-01
 1.891001612E-01 -5.756730959E-02 -3.801814903E-01
 1.997547746E-01 -5.871871486E-02 -3.905037842E-01
 2.111413479E-01 -5.986855552E-02 -4.030476975E-01
 2.232171744E-01 -6.098497659E-02 -4.132300533E-01
 2.352678031E-01 -6.200129911E-02 -4.257818575E-01
 2.469911724E-01 -6.288193911E-02 -4.323826350E-01
 2.589762211E-01 -6.369078159E-02 -4.416146155E-01
 2.700788081E-01 -6.436396390E-02 -4.561219250E-01
 2.822144032E-01 -6.498113275E-02 -4.609676387E-01
 2.941232324E-01 -6.548371166E-02 -4.685906775E-01
 3.070499897E-01 -6.591295451E-02 -4.761368886E-01
 3.186702132E-01 -6.617689878E-02 -4.769454619E-01
 3.312748075E-01 -6.636328995E-02 -4.841614285E-01
 3.420427740E-01 -6.641519815E-02 -4.857744774E-01
 3.535406590E-01 -6.636456400E-02 -4.845509286E-01
 3.645027280E-01 -6.620909274E-02 -4.799607110E-01
 3.755376339E-01 -6.596986204E-02 -4.829976966E-01
 3.874203265E-01 -6.557816267E-02 -4.742107403E-01
 4.005476832E-01 -6.499329954E-02 -4.589657040E-01
 4.129751623E-01 -6.431120634E-02 -4.461732159E-01
 4.255204499E-01 -6.349712610E-02 -4.320338254E-01
 4.377746880E-01 -6.256078184E-02 -4.079762572E-01
 4.501958489E-01 -6.150977314E-02 -3.878923275E-01
 4.621669948E-01 -6.039825454E-02 -3.686146281E-01
 4.744199514E-01 -5.915069953E-02 -3.439159168E-01
 4.865099192E-01 -5.782350525E-02 -3.186563129E-01
 4.989207983E-01 -5.637365580E-02 -2.919611421E-01
 5.123796463E-01 -5.470551178E-02 -2.604090181E-01
 5.255038142E-01 -5.301300064E-02 -2.339699522E-01
 5.381116867E-01 -5.131694674E-02 -2.051404701E-01
 5.509082079E-01 -4.955898970E-02 -1.819071419E-01
 5.642516613E-01 -4.765880480E-02 -1.508659108E-01
 5.773363709E-01 -4.579144716E-02 -1.329457873E-01
 5.900834799E-01 -4.391299188E-02 -1.061364518E-01
 6.031608582E-01 -4.197174311E-02 -8.508713618E-02
 6.169000268E-01 -3.987910971E-02 -5.419637999E-02
 6.309235096E-01 -3.777761385E-02 -3.794959608E-02
 6.451551318E-01 -3.560408950E-02 -1.184674184E-02
 6.579450369E-01 -3.365076333E-02 8.240762929E-03
 6.711781025E-01 -3.162883222E-02 3.054301996E-02
 6.837239265E-01 -2.973956428E-02 4.485791119E-02
 6.961039901E-01 -2.786846831E-02 6.400809250E-02
 7.108476758E-01 -2.565512992E-02 8.367987464E-02
 7.239882350E-01 -2.369182184E-02 1.030578324E-01
 7.356889844E-01 -2.196474373E-02 1.195407335E-01
 7.495327592E-01 -1.993465982E-02 1.401768675E-01
 7.623856664E-01 -1.810235158E-02 1.540502086E-01
 7.761350274E-01 -1.616505533E-02 1.720789370E-01
 7.884468436E-01 -1.444955263E-02 1.911086917E-01
 8.014888763E-01 -1.267937943E-02 2.092316590E-01
 8.125535846E-01 -1.121461112E-02 2.274453878E-01
 8.242421150E-01 -9.756655432E-03 2.365382431E-01
 8.369288445E-01 -8.192748763E-03 2.565463719E-01
 8.493385315E-01 -6.735110190E-03 2.754721749E-01
 8.618972301E-01 -5.378557369E-03 2.870533674E-01
 8.727716208E-01 -4.272090271E-03 3.018599815E-01
 8.839420676E-01 -3.216888290E-03 3.157870510E-01
 8.963864446E-01 -2.160771750E-03 3.288369390E-01
 9.066203833E-01 -1.410527970E-03 3.384865751E-01
 9.175516367E-01 -7.277322584E-04 3.449992074E-01
 9.277462959E-01 -1.984649280E-04 3.502895984E-01
 9.375377297E-01 1.984318660E-04 3.542023470E-01
 9.493833780E-01 5.569593632E-04 3.585013504E-01
 9.627237916E-01 7.849061512E-04 3.628107398E-01
 9.764089584E-01 8.398829377E-04 3.729908598E-01
 9.889007211E-01 7.291947259E-04 3.996732615E-01
 -5.000000000E-01 -1.000000000E+00 1.408808719E-02
 3.500000000E+00 -1.000000000E+00 8.389968993E-03
 3.500000000E+00 1.000000000E+00 -2.463544406E-02
 -5.000000000E-01 1.000000000E+00 -9.934866206E-05
 9.930160344E-01 1.894818299E-03 2.639551043E-01
 9.797908962E-01 4.594713915E-03 1.415162821E-01
 9.650045037E-01 7.589400513E-03 8.691611078E-02
 9.491160512E-01 1.075559575E-02 5.038689953E-02
 9.349456429E-01 1.360205654E-02 7.712937271E-03
 9.224310219E-01 1.611645566E-02 -1.888042934E-02
 9.108906984E-01 1.842020545E-02 -5.198023708E-02
 8.992764950E-01 2.072737366E-02 -7.933377297E-02
 8.875166774E-01 2.302909270E-02 -1.180421459E-01
 8.754789531E-01 2.530132886E-02 -1.243897975E-01
 8.633206785E-01 2.756328695E-02 -1.593192067E-01
 8.513144553E-01 2.976460196E-02 -1.813928824E-01
 8.397076130E-01 3.179714363E-02 -1.877345924E-01
 8.284924030E-01 3.374997899E-02 -2.151011457E-01
 8.166618049E-01 3.576271981E-02 -2.288797739E-01
 8.042119145E-01 3.781095892E-02 -2.375041116E-01
 7.919346392E-01 3.982408345E-02 -2.659987089E-01
 7.797547281E-01 4.177159071E-02 -2.812135920E-01
 7.678475082E-01 4.360693879E-02 -2.903694013E-01
 7.557060421E-01 4.545651749E-02 -3.141299962E-01
 7.425859869E-01 4.739818536E-02 -3.276183446E-01
 7.305184901E-01 4.912657291E-02 -3.380760305E-01
 7.195996046E-01 5.067398958E-02 -3.629915527E-01
 7.081437707E-01 5.224718712E-02 -3.741940375E-01
 6.958330870E-01 5.387814343E-02 -3.898817957E-01
 6.831008494E-01 5.552361161E-02 -4.128508187E-01
 6.713423133E-01 5.697348900E-02 -4.219224177E-01
 6.600958705E-01 5.830864049E-02 -4.424078830E-01
 6.484770477E-01 5.962879956E-02 -4.478743819E-01
 6.368280947E-01 6.090101041E-02 -4.702983532E-01
 6.251717210E-01 6.211724877E-02 -4.789189758E-01
 6.141469777E-01 6.320171058E-02 -4.965704525E-01
 6.030209661E-01 6.423575059E-02 -5.046639746E-01
 5.913540721E-01 6.524744257E-02 -5.149368367E-01
 5.789437592E-01 6.625147536E-02 -5.272294389E-01
 5.659710467E-01 6.721034274E-02 -5.306551323E-01
 5.534462631E-01 6.805866212E-02 -5.435721294E-01
 5.416012406E-01 6.878994033E-02 -5.521290795E-01
 5.299516618E-01 6.941751763E-02 -5.493701787E-01
 5.177821815E-01 7.001339272E-02 -5.619735444E-01
 5.060922503E-01 7.050678879E-02 -5.603198693E-01
 4.940247983E-01 7.092921063E-02 -5.612291139E-01
 4.809152186E-01 7.131749764E-02 -5.625154442E-01
 4.675704539E-01 7.162064686E-02 -5.611793475E-01
 4.541790485E-01 7.184453309E-02 -5.652616840E-01
 4.411433488E-01 7.197047397E-02 -5.593758709E-01
 4.283507019E-01 7.201417536E-02 -5.579409590E-01
 4.157076776E-01 7.199238613E-02 -5.598529158E-01
 4.030494839E-01 7.188564166E-02 -5.540297626E-01
 3.905679286E-01 7.170807943E-02 -5.522177184E-01
 3.785868883E-01 7.147062197E-02 -5.486111784E-01
 3.660061955E-01 7.114734128E-02 -5.419119465E-01
 3.530156910E-01 7.075113431E-02 -5.456297452E-01
 3.401426822E-01 7.027108595E-02 -5.369932617E-01
 3.282134235E-01 6.975295767E-02 -5.345375346E-01
 3.165320754E-01 6.917944178E-02 -5.263171935E-01
 3.038565665E-01 6.849292293E-02 -5.264034085E-01
 2.905211449E-01 6.768398359E-02 -5.176383168E-01
 2.775146663E-01 6.681332365E-02 -5.165070889E-01
 2.655784488E-01 6.593530253E-02 -5.110096005E-01
 2.535043284E-01 6.496224180E-02 -5.022996312E-01
 2.411090136E-01 6.388699263E-02 -4.978582020E-01
 2.287421972E-01 6.272791512E-02 -4.915671760E-01
 2.166021690E-01 6.149877794E-02 -4.830384898E-01
 2.046278939E-01 6.019932777E-02 -4.774708087E-01
 1.924287900E-01 5.877985246E-02 -4.663107190E-01
 1.803543419E-01 5.727939494E-02 -4.588083034E-01
 1.686046347E-01 5.572271161E-02 -4.512943730E-01
 1.568692699E-01 5.406019092E-02 -4.398091606E-01
 1.455381885E-01 5.235069990E-02 -4.337311106E-01
 1.343054324E-01 5.053587817E-02 -4.184940312E-01
 1.229740083E-01 4.858233221E-02 -4.038137167E-01
 1.120495722E-01 4.658227786E-02 -3.928803690E-01
 1.017314494E-01 4.456818290E-02 -3.804577162E-01
 9.140867740E-02 4.241015203E-02 -3.649773143E-01
 8.048838750E-02 3.995781951E-02 -3.457136029E-01
 7.223780453E-02 -3.830422647E-02 -2.443008840E-01
 9.236444160E-02 -4.277544841E-02 -2.790724428E-01
 1.032471545E-01 -4.492364638E-02 -2.893719218E-01
 1.145946383E-01 -4.700134695E-02 -3.056328480E-01
 1.261893213E-01 -4.897038266E-02 -3.168302659E-01
 1.373225302E-01 -5.073975027E-02 -3.322836463E-01
 1.482106000E-01 -5.234965123E-02 -3.401273942E-01
 1.599015519E-01 -5.397111550E-02 -3.510160558E-01
 1.716795713E-01 -5.549898557E-02 -3.666172175E-01
 1.832613498E-01 -5.689076893E-02 -3.754529747E-01
 1.944274679E-01 -5.814301223E-02 -3.863104504E-01
 2.054480612E-01 -5.929363519E-02 -3.953593423E-01
 2.171792611E-01 -6.042676605E-02 -4.081557163E-01
 2.292424887E-01 -6.149313785E-02 -4.194957925E-01
 2.411294878E-01 -6.244161911E-02 -4.303634732E-01
 2.529836968E-01 -6.328636035E-02 -4.365339125E-01
 2.645275146E-01 -6.402737275E-02 -4.485492839E-01
 2.761466056E-01 -6.467254832E-02 -4.582580766E-01
 2.881688178E-01 -6.523242220E-02 -4.650073739E-01
 3.005866110E-01 -6.569833308E-02 -4.711921676E-01
 3.128601015E-01 -6.604492664E-02 -4.789996824E-01
 3.249725103E-01 -6.627009436E-02 -4.784426473E-01
 3.366587907E-01 -6.638924405E-02 -4.874449409E-01
 3.477917165E-01 -6.638988107E-02 -4.844802541E-01
 3.590216935E-01 -6.628682837E-02 -4.836859390E-01
 3.700201809E-01 -6.608947739E-02 -4.795965306E-01
 3.814789802E-01 -6.577401236E-02 -4.787627176E-01
 3.939840049E-01 -6.528573111E-02 -4.663221126E-01
 4.067614228E-01 -6.465225294E-02 -4.535399707E-01
 4.192478061E-01 -6.390416622E-02 -4.391063272E-01
 4.316475689E-01 -6.302895397E-02 -4.224409529E-01
 4.439852685E-01 -6.203527749E-02 -3.974549580E-01
 4.561814219E-01 -6.095401384E-02 -3.792989841E-01
 4.682934731E-01 -5.977447703E-02 -3.571712802E-01
 4.804649353E-01 -5.848710239E-02 -3.320098361E-01
 4.927153587E-01 -5.709858052E-02 -3.053746273E-01
 5.056502223E-01 -5.553958379E-02 -2.767583787E-01
 5.189417303E-01 -5.385925621E-02 -2.470090094E-01
 5.318077505E-01 -5.216497369E-02 -2.205236004E-01
 5.445099473E-01 -5.043796822E-02 -1.929529612E-01
 5.575799346E-01 -4.860889725E-02 -1.676661967E-01
 5.707940161E-01 -4.672512598E-02 -1.402679379E-01
 5.837099254E-01 -4.485221952E-02 -1.209842057E-01
 5.966221690E-01 -4.294236749E-02 -9.529913070E-02
 6.100304425E-01 -4.092542641E-02 -7.144872924E-02
 6.239117682E-01 -3.882836178E-02 -4.419552290E-02
 6.380393207E-01 -3.669085167E-02 -2.582664284E-02
 6.515500844E-01 -3.462742642E-02 -1.625018679E-03
 6.645615697E-01 -3.263979778E-02 1.828148280E-02
 6.774510145E-01 -3.068419825E-02 3.872273978E-02
 6.899139583E-01 -2.880401630E-02 5.373571118E-02
 7.034758329E-01 -2.676179912E-02 7.349643090E-02
 7.174179554E-01 -2.467347588E-02 9.343290883E-02
 7.298386097E-01 -2.282828279E-02 1.112552553E-01
 7.426108718E-01 -2.094970178E-02 1.285185273E-01
 7.559592128E-01 -1.901850570E-02 1.483302904E-01
 7.692603469E-01 -1.713370346E-02 1.626645331E-01
 7.822909355E-01 -1.530730398E-02 1.812794009E-01
 7.949678600E-01 -1.356446603E-02 1.996970638E-01
 8.070212305E-01 -1.194699528E-02 2.182752927E-01
 8.183978498E-01 -1.048563328E-02 2.331705946E-01
 8.305854797E-01 -8.974702097E-03 2.444876112E-01
 8.431336880E-01 -7.463929476E-03 2.652999407E-01
 8.556178808E-01 -6.056833779E-03 2.821641656E-01
 8.673344254E-01 -4.825323820E-03 2.948303329E-01
 8.783568442E-01 -3.744489281E-03 3.077070129E-01
 8.901642561E-01 -2.688830020E-03 3.212944441E-01
 9.015034139E-01 -1.785649860E-03 3.353442135E-01
 9.120860100E-01 -1.069130114E-03 3.414821575E-01
 9.226489663E-01 -4.630985932E-04 3.487572912E-01
 9.434605539E-01 3.776956146E-04 3.557335123E-01
 9.560535848E-01 6.709327572E-04 3.592942300E-01
 9.695663750E-01 8.123945445E-04 3.655026654E-01
 9.826548398E-01 7.845388318E-04 3.805775365E-01
 9.943762720E-01 6.197652256E-04 4.596882286E-01
 -5.000000000E-01 9.500000000E-01 1.993310122E-05
 -5.000000000E-01 9.000000000E-01 5.697444535E-04
 -5.000000000E-01 8.500000000E-01 1.743630105E-03
 -5.000000000E-01 8.000000000E-01 3.659639423E-03
 -5.000000000E-01 7.500000000E-01 6.336922677E-03
 -5.000000000E-01 7.000000000E-01 9.857267468E-03
 -5.000000000E-01 6.500000000E-01 1.428737192E-02
 -5.000000000E-01 6.000000000E-01 1.960592436E-02
 -5.000000000E-01 5.500000000E-01 2.592600063E-02
 -5.000000000E-01 5.000000000E-01 3.311061472E-02
 -5.000000000E-01 4.500000000E-01 4.124384581E-02
 -5.000000000E-01 4.000000000E-01 4.999839459E-02
 -5.000000000E-01 3.500000000E-01 5.956272410E-02
 -5.000000000E-01 3.000000000E-01 6.915633253E-02
 -5.000000000E-01 2.500000000E-01 7.907572625E-02
 -5.000000000E-01 2.000000000E-01 8.840835530E-02
 -5.000000000E-01 1.500000000E-01 9.689752032E-02
 -5.000000000E-01 1.000000000E-01 1.040360489E-01
 -5.000000000E-01 5.000000000E-02 1.095274286E-01
 -5.000000000E-01 2.752242878E-12 1.128477114E-01
 -5.000000000E-01 -5.000000000E-02 1.140388715E-01
 -5.000000000E-01 -1.000000000E-01 1.132961533E-01
 -5.000000000E-01 -1.500000000E-01 1.104656733E-01
 -5.000000000E-01 -2.000000000E-01 1.057841321E-01
 -5.000000000E-01 -2.500000000E-01 1.003067713E-01
 -5.000000000E-01 -3.000000000E-01 9.369316026E-02
 -5.000000000E-01 -3.500000000E-01 8.678699846E-02
 -5.000000000E-01 -4.000000000E-01 7.968963562E-02
 -5.000000000E-01 -4.500000000E-01 7.280126602E-02
 -5.000000000E-01 -5.000000000E-01 6.608451800E-02
 -5.000000000E-01 -5.500000000E-01 5.986171722E-02
 -5.000000000E-01 -6.000000000E-01 5.406059576E-02
 -5.000000000E-01 -6.500000000E-01 4.870966233E-02
 -5.000000000E-01 -7.000000000E-01 4.381655779E-02
 -5.000000000E-01 -7.500000000E-01 3.932096811E-02
 -5.000000000E-01 -8.000000000E-01 3.489743289E-02
 -5.000000000E-01 -8.500000000E-01 3.070880210E-02
 -5.000000000E-01 -9.000000000E-01 2.611139263E-02
 -5.000000000E-01 -9.500000000E-01 1.937449806E-02
 -4.500000000E-01 -1.000000000E+00 1.760294462E-02
 -4.000000000E-01 -1.000000000E+00 2.283227061E-02
 -3.500000000E-01 -1.000000000E+00 2.513641766E-02
 -3.000000000E-01 -1.000000000E+00 2.617674231E-02
 -2.500000000E-01 -1.000000000E+00 2.633396519E-02
 -2.000000000E-01 -1.000000000E+00 2.558492813E-02
 -1.500000000E-01 -1.000000000E+00 2.402779050E-02
 -1.000000000E-01 -1.000000000E+00 2.176908296E-02
 -5.000000000E-02 -1.000000000E+00 1.888522469E-02
 -9.424683256E-13 -1.000000000E+00 1.547128982E-02
 5.000000000E-02 -1.000000000E+00 1.169762298E-02
 1.000000000E-01 -1.000000000E+00 7.720691626E-03
 1.500000000E-01 -1.000000000E+00 3.538754247E-03
 2.000000000E-01 -1.000000000E+00 -3.192357817E-04
 2.500000000E-01 -1.000000000E+00 -3.831431104E-03
 3.000000000E-01 -1.000000000E+00 -7.080794305E-03
 3.500000000E-01 -1.000000000E+00 -9.661081670E-03
 4.000000000E-01 -1.000000000E+00 -1.143487802E-02
 4.500000000E-01 -1.000000000E+00 -1.245699201E-02
 5.000000000E-01 -1.000000000E+00 -1.262839374E-02
 5.500000000E-01 -1.000000000E+00 -1.193513613E-02
 6.000000000E-01 -1.000000000E+00 -1.044519485E-02
 6.500000000E-01 -1.000000000E+00 -8.174322509E-03
 7.000000000E-01 -1.000000000E+00 -5.334178693E-03
 7.500000000E-01 -1.000000000E+00 -1.988756726E-03
 8.000000000E-01 -1.000000000E+00 1.586465724E-03
 8.500000000E-01 -1.000000000E+00 5.483992456E-03
 9.000000000E-01 -1.000000000E+00 9.306179048E-03
 9.500000000E-01 -1.000000000E+00 1.313117809E-02
 1.000000000E+00 -1.000000000E+00 1.673254371E-02
 1.050000000E+00 -1.000000000E+00 2.012252567E-02
 1.100000000E+00 -1.000000000E+00 2.304697259E-02
 1.150000000E+00 -1.000000000E+00 2.571811192E-02
 1.200000000E+00 -1.000000000E+00 2.793583152E-02
 1.250000000E+00 -1.000000000E+00 2.980803949E-02
 1.300000000E+00 -1.000000000E+00 3.132307818E-02
 1.350000000E+00 -1.000000000E+00 3.246285137E-02
 1.400000000E+00 -1.000000000E+00 3.326149234E-02
 1.450000000E+00 -1.000000000E+00 3.377405626E-02
 1.500000000E+00 -1.000000000E+00 3.409882019E-02
 1.550000000E+00 -1.000000000E+00 3.405399244E-02
 1.600000000E+00 -1.000000000E+00 3.398524484E-02
 1.650000000E+00 -1.000000000E+00 3.366476370E-02
 1.700000000E+00 -1.000000000E+00 3.322410397E-02
 1.750000000E+00 -1.000000000E+00 3.273057225E-02
 1.800000000E+00 -1.000000000E+00 3.211802213E-02
 1.850000000E+00 -1.000000000E+00 3.152815638E-02
 1.900000000E+00 -1.000000000E+00 3.075009886E-02
 1.950000000E+00 -1.000000000E+00 3.009494912E-02
 2.000000000E+00 -1.000000000E+00 2.932004394E-02
 2.050000000E+00 -1.000000000E+00 2.868185389E-02
 2.100000000E+00 -1.000000000E+00 2.795815704E-02
 2.150000000E+00 -1.000000000E+00 2.726259177E-02
 2.200000000E+00 -1.000000000E+00 2.661442987E-02
 2.250000000E+00 -1.000000000E+00 2.595884457E-02
 2.300000000E+00 -1.000000000E+00 2.536754236E-02
 2.350000000E+00 -1.000000000E+00 2.479434255E-02
 2.400000000E+00 -1.000000000E+00 2.427086215E-02
 2.450000000E+00 -1.000000000E+00 2.378237264E-02
 2.500000000E+00 -1.000000000E+00 2.331529195E-02
 2.550000000E+00 -1.000000000E+00 2.288286674E-02
 2.600000000E+00 -1.000000000E+00 2.250074947E-02
 2.650000000E+00 -1.000000000E+00 2.213877521E-02
 2.700000000E+00 -1.000000000E+00 2.182494082E-02
 2.750000000E+00 -1.000000000E+00 2.151491553E-02
 2.800000000E+00 -1.000000000E+00 2.125830533E-02
 2.850000000E+00 -1.000000000E+00 2.101708622E-02
 2.900000000E+00 -1.000000000E+00 2.076254661E-02
 2.950000000E+00 -1.000000000E+00 2.054567328E-02
 3.000000000E+00 -1.000000000E+00 2.029401623E-02
 3.050000000E+00 -1.000000000E+00 2.001004088E-02
 3.100000000E+00 -1.000000000E+00 1.971555348E-02
 3.150000000E+00 -1.000000000E+00 1.932925180E-02
 3.200000000E+00 -1.000000000E+00 1.884104249E-02
 3.250000000E+00 -1.000000000E+00 1.824290144E-02
 3.300000000E+00 -1.000000000E+00 1.741014511E-02
 3.350000000E+00 -1.000000000E+00 1.627102993E-02
 3.400000000E+00 -1.000000000E+00 1.448840979E-02
 3.450000000E+00 -1.000000000E+00 1.159975600E-02
 3.500000000E+00 -9.500000000E-01 7.555509009E-03
 3.500000000E+00 -9.000000000E-01 9.218813057E-03
 3.500000000E+00 -8.500000000E-01 1.060161377E-02
 3.500000000E+00 -8.000000000E-01 1.218787711E-02
 3.500000000E+00 -7.500000000E-01 1.380482018E-02
 3.500000000E+00 -7.000000000E-01 1.540355545E-02
 3.500000000E+00 -6.500000000E-01 1.711735731E-02
 3.500000000E+00 -6.000000000E-01 1.901355347E-02
 3.500000000E+00 -5.500000000E-01 2.099946778E-02
 3.500000000E+00 -5.000000000E-01 2.319239923E-02
 3.500000000E+00 -4.500000000E-01 2.548358173E-02
 3.500000000E+00 -4.000000000E-01 2.791518375E-02
 3.500000000E+00 -3.500000000E-01 3.050146955E-02
 3.500000000E+00 -3.000000000E-01 3.284561009E-02
 3.500000000E+00 -2.500000000E-01 3.482729464E-02
 3.500000000E+00 -2.000000000E-01 3.575634027E-02
 3.500000000E+00 -1.500000000E-01 3.577921543E-02
 3.500000000E+00 -1.000000000E-01 3.519529221E-02
 3.500000000E+00 -5.000000000E-02 3.442230454E-02
 3.500000000E+00 -2.752242878E-12 3.374461021E-02
 3.500000000E+00 5.000000000E-02 3.304855930E-02
 3.500000000E+00 1.000000000E-01 3.212589054E-02
 3.500000000E+00 1.500000000E-01 3.001285324E-02
 3.500000000E+00 2.000000000E-01 2.727618568E-02
 3.500000000E+00 2.500000000E-01 2.395259352E-02
 3.500000000E+00 3.000000000E-01 2.055916587E-02
 3.500000000E+00 3.500000000E-01 1.728748880E-02
 3.500000000E+00 4.000000000E-01 1.420174003E-02
 3.500000000E+00 4.500000000E-01 1.133546237E-02
 3.500000000E+00 5.000000000E-01 8.837004216E-03
 3.500000000E+00 5.500000000E-01 6.717246369E-03
 3.500000000E+00 6.000000000E-01 5.234692829E-03
 3.500000000E+00 6.500000000E-01 4.717877425E-03
 3.500000000E+00 7.000000000E-01 4.544438158E-03
 3.500000000E+00 7.500000000E-01 3.630405623E-03
 3.500000000E+00 8.000000000E-01 5.122532384E-04
 3.500000000E+00 8.500000000E-01 -5.395658678E-03
 3.500000000E+00 9.000000000E-01 -1.343964331E-02
 3.500000000E+00 9.500000000E-01 -2.436387301E-02
 3.450000000E+00 1.000000000E+00 -1.458841330E-02
 3.400000000E+00 1.000000000E+00 -6.144112321E-03
 3.350000000E+00 1.000000000E+00 -1.939106592E-03
 3.300000000E+00 1.000000000E+00 6.702526996E-05
 3.250000000E+00 1.000000000E+00 9.659326935E-04
 3.200000000E+00 1.000000000E+00 1.598594776E-03
 3.150000000E+00 1.000000000E+00 1.904787656E-03
 3.100000000E+00 1.000000000E+00 1.870993112E-03
 3.050000000E+00 1.000000000E+00 1.632650237E-03
 3.000000000E+00 1.000000000E+00 1.597689296E-03
 2.950000000E+00 1.000000000E+00 6.433444645E-04
 2.900000000E+00 1.000000000E+00 5.999018682E-04
 2.850000000E+00 1.000000000E+00 -5.257312401E-04
 2.800000000E+00 1.000000000E+00 -1.030633531E-03
 2.750000000E+00 1.000000000E+00 -1.757730656E-03
 2.700000000E+00 1.000000000E+00 -2.786960075E-03
 2.650000000E+00 1.000000000E+00 -3.477679103E-03
 2.600000000E+00 1.000000000E+00 -4.659204669E-03
 2.550000000E+00 1.000000000E+00 -5.617470705E-03
 2.500000000E+00 1.000000000E+00 -6.890085839E-03
 2.450000000E+00 1.000000000E+00 -8.122132923E-03
 2.400000000E+00 1.000000000E+00 -9.433812647E-03
 2.350000000E+00 1.000000000E+00 -1.075486585E-02
 2.300000000E+00 1.000000000E+00 -1.245095385E-02
 2.250000000E+00 1.000000000E+00 -1.383227402E-02
 2.200000000E+00 1.000000000E+00 -1.582360887E-02
 2.150000000E+00 1.000000000E+00 -1.756221078E-02
 2.100000000E+00 1.000000000E+00 -1.945534371E-02
 2.050000000E+00 1.000000000E+00 -2.161644038E-02
 2.000000000E+00 1.000000000E+00 -2.375074259E-02
 1.950000000E+00 1.000000000E+00 -2.628438389E-02
 1.900000000E+00 1.000000000E+00 -2.888877232E-02
 1.850000000E+00 1.000000000E+00 -3.166791284E-02
 1.800000000E+00 1.000000000E+00 -3.476476787E-02
 1.750000000E+00 1.000000000E+00 -3.807329970E-02
 1.700000000E+00 1.000000000E+00 -4.153937760E-02
 1.650000000E+00 1.000000000E+00 -4.501059150E-02
 1.600000000E+00 1.000000000E+00 -4.916516160E-02
 1.550000000E+00 1.000000000E+00 -5.302219445E-02
 1.500000000E+00 1.000000000E+00 -5.794568280E-02
 1.450000000E+00 1.000000000E+00 -6.285098311E-02
 1.400000000E+00 1.000000000E+00 -6.818340189E-02
 1.350000000E+00 1.000000000E+00 -7.332635945E-02
 1.300000000E+00 1.000000000E+00 -7.914065878E-02
 1.250000000E+00 1.000000000E+00 -8.504093934E-02
 1.200000000E+00 1.000000000E+00 -9.084161602E-02
 1.150000000E+00 1.000000000E+00 -9.679439217E-02
 1.100000000E+00 1.000000000E+00 -1.027817448E-01
 1.050000000E+00 1.000000000E+00 -1.085092795E-01
 1.000000000E+00 1.000000000E+00 -1.132601157E-01
 9.500000000E-01 1.000000000E+00 -1.191945096E-01
 9.000000000E-01 1.000000000E+00 -1.220767901E-01
 8.500000000E-01 1.000000000E+00 -1.265055925E-01
 8.000000000E-01 1.000000000E+00 -1.284912256E-01
 7.500000000E-01 1.000000000E+00 -1.302272103E-01
 7.000000000E-01 1.000000000E+00 -1.303580318E-01
 6.500000000E-01 1.000000000E+00 -1.292108425E-01
 6.000000000E-01 1.000000000E+00 -1.276412116E-01
 5.500000000E-01 1.000000000E+00 -1.230236406E-01
 5.000000000E-01 1.000000000E+00 -1.190277339E-01
 4.500000000E-01 1.000000000E+00 -1.127356622E-01
 4.000000000E-01 1.000000000E+00 -1.062031333E-01
 3.500000000E-01 1.000000000E+00 -9.794837702E-02
 3.000000000E-01 1.000000000E+00 -9.007781954E-02
 2.500000000E-01 1.000000000E+00 -8.113922812E-02
 2.000000000E-01 1.000000000E+00 -7.157187841E-02
 1.500000000E-01 1.000000000E+00 -6.290291484E-02
 1.000000000E-01 1.000000000E+00 -5.376564363E-02
 5.000000000E-02 1.000000000E+00 -4.525474881E-02
 1.733724275E-12 1.000000000E+00 -3.710703753E-02
 -5.000000000E-02 1.000000000E+00 -2.957090307E-02
 -1.000000000E-01 1.000000000E+00 -2.293570558E-02
 -1.500000000E-01 1.000000000E+00 -1.695104361E-02
 -2.000000000E-01 1.000000000E+00 -1.195501576E-02
 -2.500000000E-01 1.000000000E+00 -8.086504481E-03
 -3.000000000E-01 1.000000000E+00 -4.811765771E-03
 -3.500000000E-01 1.000000000E+00 -2.553457238E-03
 -4.000000000E-01 1.000000000E+00 -1.079769419E-03
 -4.500000000E-01 1.000000000E+00 -2.839965775E-04
 9.096395271E-01 -5.823852134E-03 3.330397683E-01
 8.348962299E-01 -1.459704958E-02 2.476339644E-01
 7.599367532E-01 -2.534972613E-02 1.483810181E-01
 6.876291507E-01 -3.463251505E-02 4.997106379E-02
 9.856863039E-01 -4.051686110E-03 3.881911418E-01
 6.216701436E-01 -4.494084587E-02 -4.892569559E-02
 5.544768537E-01 -5.484358049E-02 -1.718567995E-01
 4.902278604E-01 -6.267775651E-02 -3.047529932E-01
 4.289894584E-01 -6.856928080E-02 -4.137652324E-01
 3.729314992E-01 -7.068005618E-02 -4.701452989E-01
 3.212296239E-01 -7.213710765E-02 -4.652892799E-01