TITLE     = "Visualization of the solution"
VARIABLES = "x"
"y"
"Pressure_Coefficient"
ZONE T="Zone"
 STRANDID=0, SOLUTIONTIME=0
 Nodes=11992, Elements=23401, ZONETYPE=FEQuadrilateral
 DATAPACKING=POINT
 DT=(DOUBLE DOUBLE DOUBLE )
 1.000078797E+00 5.114787491E-04 2.820029525E-01
 9.887377620E-01 2.892738441E-03 2.360736489E-01
 9.756017327E-01 5.533767398E-03 1.668370740E-01
 9.584010839E-01 9.108629078E-03 9.584979604E-02
 9.427888393E-01 1.231265534E-02 5.074981303E-02
 9.277358651E-01 1.540592685E-02 8.411655240E-03
 9.157223105E-01 1.784992591E-02 -1.433787636E-02
 9.048587084E-01 2.012608573E-02 -6.170215218E-02
 8.930942416E-01 2.248731628E-02 -8.977929995E-02
 8.816977143E-01 2.472187206E-02 -1.171299198E-01
 8.698310852E-01 2.696206793E-02 -1.315257572E-01
 8.574689031E-01 2.927412093E-02 -1.481770760E-01
 8.458170295E-01 3.147609159E-02 -1.936627907E-01
 8.350476027E-01 3.336749971E-02 -1.965756441E-01
 8.234326839E-01 3.539716452E-02 -2.163852658E-01
 8.109694719E-01 3.750329092E-02 -2.255742783E-01
 7.986270785E-01 3.958957270E-02 -2.513022989E-01
 7.858295441E-01 4.167860746E-02 -2.693689432E-01
 7.732352018E-01 4.367964342E-02 -2.833375129E-01
 7.616933584E-01 4.548870027E-02 -3.050778864E-01
 7.483087778E-01 4.750318080E-02 -3.172020780E-01
 7.347589731E-01 4.950921237E-02 -3.405015043E-01
 7.236956954E-01 5.108412728E-02 -3.535234559E-01
 7.124268413E-01 5.264066160E-02 -3.597420772E-01
 7.007229328E-01 5.426316336E-02 -3.885406079E-01
 6.876702309E-01 5.597356334E-02 -4.065698924E-01
 6.746933460E-01 5.758879706E-02 -4.151614221E-01
 6.641393900E-01 5.888574198E-02 -4.382483721E-01
 6.523360610E-01 6.024899334E-02 -4.493775822E-01
 6.402110457E-01 6.158294156E-02 -4.591475547E-01
 6.283925772E-01 6.283822656E-02 -4.767726675E-01
 6.165137291E-01 6.402358413E-02 -4.865827571E-01
 6.060604453E-01 6.503331661E-02 -5.064874894E-01
 5.939293504E-01 6.610529870E-02 -5.170642846E-01
 5.824837685E-01 6.703504175E-02 -5.207691846E-01
 5.693551898E-01 6.803029031E-02 -5.305605898E-01
 5.572864413E-01 6.887491792E-02 -5.456841714E-01
 5.453758836E-01 6.959787756E-02 -5.413970779E-01
 5.346413851E-01 7.021856308E-02 -5.541836399E-01
 5.232722163E-01 7.078520954E-02 -5.547366886E-01
 5.115199685E-01 7.130655646E-02 -5.606009262E-01
 5.004428625E-01 7.171820849E-02 -5.561618459E-01
 4.875251055E-01 7.213779539E-02 -5.640277958E-01
 4.743421972E-01 7.244662195E-02 -5.551715571E-01
 4.613305628E-01 7.269388437E-02 -5.574659039E-01
 4.487821758E-01 7.285200804E-02 -5.569064733E-01
 4.366858006E-01 7.293421030E-02 -5.573987809E-01
 4.245962203E-01 7.293311507E-02 -5.490082507E-01
 4.126812220E-01 7.288905233E-02 -5.523390460E-01
 4.005255997E-01 7.276009023E-02 -5.470512347E-01
 3.885666132E-01 7.257462293E-02 -5.447558904E-01
 3.765535355E-01 7.232084125E-02 -5.413244142E-01
 3.638360500E-01 7.197703421E-02 -5.346363411E-01
 3.510194421E-01 7.157261670E-02 -5.345915068E-01
 3.380377889E-01 7.107972354E-02 -5.319312467E-01
 3.267806172E-01 7.059328258E-02 -5.307725559E-01
 3.139076829E-01 6.994321942E-02 -5.207017492E-01
 3.009865582E-01 6.922665238E-02 -5.174744085E-01
 2.873684466E-01 6.837919354E-02 -5.138716053E-01
 2.753887773E-01 6.755068898E-02 -5.045625543E-01
 2.635528743E-01 6.668034941E-02 -5.053172493E-01
 2.510146797E-01 6.565835327E-02 -4.976382765E-01
 2.387606204E-01 6.457834691E-02 -4.913773443E-01
 2.262432873E-01 6.338341534E-02 -4.820565899E-01
 2.139935493E-01 6.214191392E-02 -4.801025006E-01
 2.014698386E-01 6.076000258E-02 -4.712604740E-01
 1.889785528E-01 5.927626044E-02 -4.611506384E-01
 1.768661886E-01 5.774096400E-02 -4.549969310E-01
 1.651892960E-01 5.614610761E-02 -4.414679151E-01
 1.530255675E-01 5.438775197E-02 -4.360916298E-01
 1.417739093E-01 5.263214931E-02 -4.207655158E-01
 1.295726448E-01 5.060663074E-02 -4.107193291E-01
 1.181897596E-01 4.856953397E-02 -3.945061150E-01
 1.074476019E-01 4.652371630E-02 -3.833814329E-01
 9.704943746E-02 4.439317435E-02 -3.633291738E-01
 8.593907207E-02 4.194995761E-02 -3.411941200E-01
 7.453591377E-02 3.924166784E-02 -3.204093834E-01
 6.447152793E-02 3.664588928E-02 -2.944054454E-01
 5.462161079E-02 3.387639299E-02 -2.613068940E-01
 4.614949599E-02 3.127176315E-02 -2.326972678E-01
 3.886799887E-02 2.883672342E-02 -1.945489614E-01
 3.231099620E-02 2.644959651E-02 -1.548074449E-01
 2.675209567E-02 2.423747815E-02 -1.183924288E-01
 2.267062478E-02 2.248272672E-02 -7.848299579E-02
 1.877087727E-02 2.066290751E-02 -3.891069519E-02
 1.541181467E-02 1.896362007E-02 1.766177236E-02
 1.229664218E-02 1.723256521E-02 6.573535166E-02
 1.003612857E-02 1.586676389E-02 1.154812068E-01
 8.076117374E-03 1.456977520E-02 1.565918522E-01
 6.303479429E-03 1.328789350E-02 2.433772633E-01
 4.008882679E-03 1.139434427E-02 3.622185002E-01
 2.084309934E-03 9.482652880E-03 4.590256029E-01
 5.533457734E-04 7.557940204E-03 7.105216209E-01
 -9.382982971E-04 4.745559767E-03 9.490335122E-01
 -1.456481987E-03 2.660701284E-03 1.083476000E+00
 -1.518869423E-03 9.674044559E-04 1.127589166E+00
 -1.257512136E-03 -7.228392060E-04 1.070281586E+00
 -7.337223506E-04 -2.287285402E-03 9.660695209E-01
 2.848791482E-04 -4.228284582E-03 8.314195526E-01
 1.749254996E-03 -6.213029847E-03 6.460065666E-01
 3.665489843E-03 -8.230615407E-03 4.929505359E-01
 5.439237691E-03 -9.781824425E-03 3.636395088E-01
 7.478522137E-03 -1.133392286E-02 2.870582744E-01
 9.233877994E-03 -1.253326703E-02 2.069094018E-01
 1.138520706E-02 -1.387056801E-02 1.533042176E-01
 1.368877292E-02 -1.517395955E-02 9.582895386E-02
 1.697604917E-02 -1.686461084E-02 4.783184573E-02
 1.987764612E-02 -1.822170056E-02 -1.096633779E-02
 2.358539216E-02 -1.981858350E-02 -4.059637471E-02
 2.871763892E-02 -2.182243951E-02 -7.986414788E-02
 3.420644626E-02 -2.375503071E-02 -1.191786125E-01
 4.079960287E-02 -2.585603856E-02 -1.456196421E-01
 4.827307537E-02 -2.801912464E-02 -1.695959044E-01
 5.726230145E-02 -3.037477843E-02 -1.891291870E-01
 6.598034501E-02 -3.245942667E-02 -2.121420605E-01
 7.596777380E-02 -3.465519473E-02 -2.253626128E-01
 8.597552031E-02 -3.668132424E-02 -2.395651885E-01
 9.611073881E-02 -3.858686611E-02 -2.515327690E-01
 1.072812974E-01 -4.053737596E-02 -2.615726399E-01
 1.183475852E-01 -4.234785214E-02 -2.743528700E-01
 1.302805245E-01 -4.416652769E-02 -2.843290846E-01
 1.412709355E-01 -4.573830217E-02 -2.968006493E-01
 1.526995748E-01 -4.726371542E-02 -3.042421092E-01
 1.650349051E-01 -4.882032797E-02 -3.182584093E-01
 1.767858118E-01 -5.019736290E-02 -3.281256478E-01
 1.888806373E-01 -5.152354389E-02 -3.394498865E-01
 1.999204755E-01 -5.265271664E-02 -3.506564711E-01
 2.114014030E-01 -5.374195427E-02 -3.596580363E-01
 2.237958908E-01 -5.482936278E-02 -3.698585877E-01
 2.364339978E-01 -5.584556609E-02 -3.827761159E-01
 2.487431020E-01 -5.673595890E-02 -3.933761589E-01
 2.608291805E-01 -5.750710145E-02 -3.995319703E-01
 2.721387744E-01 -5.816330388E-02 -4.153335912E-01
 2.844995856E-01 -5.876233801E-02 -4.198635112E-01
 2.967517376E-01 -5.925294012E-02 -4.256821398E-01
 3.094036579E-01 -5.966619030E-02 -4.371582249E-01
 3.214265704E-01 -5.993461609E-02 -4.393231752E-01
 3.342785239E-01 -6.010678038E-02 -4.417412031E-01
 3.453748524E-01 -6.016574427E-02 -4.490391605E-01
 3.569249213E-01 -6.011175364E-02 -4.473105644E-01
 3.678115308E-01 -5.995646119E-02 -4.434303105E-01
 3.789727092E-01 -5.971039459E-02 -4.440100427E-01
 3.907790482E-01 -5.931657180E-02 -4.306884613E-01
 4.041960537E-01 -5.874725431E-02 -4.213303766E-01
 4.168955982E-01 -5.807577446E-02 -4.095118627E-01
 4.295090735E-01 -5.727872625E-02 -3.944675224E-01
 4.419858158E-01 -5.636570603E-02 -3.764904241E-01
 4.534386098E-01 -5.542858690E-02 -3.608501531E-01
 4.649382830E-01 -5.436952412E-02 -3.325522843E-01
 4.771273136E-01 -5.317100137E-02 -3.099763932E-01
 4.889013469E-01 -5.194238201E-02 -2.904249687E-01
 5.018473268E-01 -5.049308017E-02 -2.629342214E-01
 5.154621005E-01 -4.887167737E-02 -2.312410711E-01
 5.284355879E-01 -4.728610069E-02 -2.120207186E-01
 5.414355993E-01 -4.559505731E-02 -1.763901896E-01
 5.538067818E-01 -4.398953542E-02 -1.630375314E-01
 5.675909519E-01 -4.210903496E-02 -1.308339729E-01
 5.803495646E-01 -4.033978283E-02 -1.069429695E-01
 5.925869346E-01 -3.861040995E-02 -7.973510934E-02
 6.059607863E-01 -3.675713390E-02 -6.773663249E-02
 6.207984090E-01 -3.463021293E-02 -3.863302891E-02
 6.350914240E-01 -3.256479651E-02 -1.260716453E-02
 6.503661871E-01 -3.037457354E-02 9.676479881E-03
 6.631574035E-01 -2.857034281E-02 2.259544330E-02
 6.764138341E-01 -2.667404711E-02 4.392009537E-02
 6.886838078E-01 -2.491417527E-02 6.611906263E-02
 7.009068131E-01 -2.321217023E-02 7.600672532E-02
 7.150761485E-01 -2.121624164E-02 9.954267175E-02
 7.280600667E-01 -1.941944472E-02 1.176586711E-01
 7.405374050E-01 -1.775575615E-02 1.257354072E-01
 7.542963624E-01 -1.588938013E-02 1.503665849E-01
 7.663702965E-01 -1.431330759E-02 1.631665698E-01
 7.799101472E-01 -1.256414223E-02 1.826433138E-01
 7.916753888E-01 -1.109257899E-02 1.982256755E-01
 8.046147227E-01 -9.534477256E-03 2.129255234E-01
 8.156456351E-01 -8.262479678E-03 2.246335138E-01
 8.270310760E-01 -6.974374410E-03 2.430434668E-01
 8.403885961E-01 -5.580272526E-03 2.523321336E-01
 8.527939320E-01 -4.335714038E-03 2.701261028E-01
 8.648797274E-01 -3.209888469E-03 2.857514349E-01
 8.761169314E-01 -2.283099806E-03 2.938603631E-01
 8.871374130E-01 -1.445650822E-03 3.074285684E-01
 9.003245234E-01 -6.142825587E-04 3.102598833E-01
 9.101944566E-01 -6.068859875E-05 3.214399619E-01
 9.215188622E-01 4.121685051E-04 3.212040820E-01
 9.312574863E-01 7.367813960E-04 3.250544451E-01
 9.403616786E-01 9.520925814E-04 3.283444714E-01
 9.519966245E-01 1.110998564E-03 3.262416752E-01
 9.640660882E-01 1.147981733E-03 3.262063689E-01
 9.773366451E-01 1.045291661E-03 3.304796089E-01
 9.884589911E-01 8.294960135E-04 3.378869979E-01
 -5.000000000E-01 -1.000000000E+00 1.397578173E-02
 3.500000000E+00 -1.000000000E+00 8.362759395E-03
 3.500000000E+00 1.000000000E+00 -2.435460229E-02
 -5.000000000E-01 1.000000000E+00 -4.204637709E-04
 9.944082797E-01 1.702108595E-03 3.413567966E-01
 9.821697474E-01 4.213252920E-03 2.011034841E-01
 9.670014083E-01 7.321198238E-03 1.270351946E-01
 9.505949616E-01 1.071064221E-02 7.240245548E-02
 9.352623522E-01 1.385929110E-02 2.812746806E-02
 9.217290878E-01 1.662792638E-02 -5.272175734E-04
 9.102905095E-01 1.898800582E-02 -4.283699975E-02
 8.989764750E-01 2.130670100E-02 -7.600596577E-02
 8.873959780E-01 2.360459417E-02 -1.049507209E-01
 8.757643998E-01 2.584197000E-02 -1.224109732E-01
 8.636499941E-01 2.811809443E-02 -1.373835073E-01
 8.516429663E-01 3.037510626E-02 -1.768797392E-01
 8.404323161E-01 3.242179565E-02 -1.923303774E-01
 8.292401433E-01 3.438233212E-02 -2.076157485E-01
 8.172010779E-01 3.645022772E-02 -2.185710266E-01
 8.047982752E-01 3.854643181E-02 -2.400528404E-01
 7.922283113E-01 4.063409008E-02 -2.604499504E-01
 7.795323730E-01 4.267912544E-02 -2.750609808E-01
 7.674642801E-01 4.458417185E-02 -2.966208880E-01
 7.550010681E-01 4.649594054E-02 -3.097899522E-01
 7.415338755E-01 4.850619659E-02 -3.294084714E-01
 7.292273343E-01 5.029666983E-02 -3.472490074E-01
 7.180612683E-01 5.186239444E-02 -3.535851273E-01
 7.065748870E-01 5.345191248E-02 -3.777296433E-01
 6.941965818E-01 5.511836335E-02 -3.987004081E-01
 6.811817884E-01 5.678118020E-02 -4.078898433E-01
 6.694163680E-01 5.823726952E-02 -4.297591596E-01
 6.582377255E-01 5.956736766E-02 -4.437332682E-01
 6.462735534E-01 6.091596745E-02 -4.530529034E-01
 6.343018115E-01 6.221058406E-02 -4.689277134E-01
 6.224531531E-01 6.343090534E-02 -4.795071696E-01
 6.112870872E-01 6.452845037E-02 -5.003488145E-01
 5.999948978E-01 6.556930766E-02 -5.118876401E-01
 5.882065594E-01 6.657017022E-02 -5.188214541E-01
 5.759194791E-01 6.753266603E-02 -5.246096374E-01
 5.633208156E-01 6.845260412E-02 -5.407783552E-01
 5.513311625E-01 6.923639774E-02 -5.400515693E-01
 5.400086343E-01 6.990822032E-02 -5.503016598E-01
 5.289568007E-01 7.050188631E-02 -5.539374766E-01
 5.173960924E-01 7.104588300E-02 -5.578712571E-01
 5.059814155E-01 7.151238248E-02 -5.579603647E-01
 4.939839840E-01 7.192800194E-02 -5.626292186E-01
 4.809336513E-01 7.229220867E-02 -5.576050888E-01
 4.678363800E-01 7.257025316E-02 -5.565047236E-01
 4.550563693E-01 7.277294621E-02 -5.568641690E-01
 4.427339882E-01 7.289310917E-02 -5.581810053E-01
 4.306410104E-01 7.293366268E-02 -5.512505907E-01
 4.186387211E-01 7.291108370E-02 -5.520340922E-01
 4.066034108E-01 7.282457128E-02 -5.489790279E-01
 3.945461065E-01 7.266735658E-02 -5.460176050E-01
 3.825600743E-01 7.244773209E-02 -5.439374064E-01
 3.701947927E-01 7.214893773E-02 -5.369709388E-01
 3.574277461E-01 7.177482545E-02 -5.356045538E-01
 3.445286155E-01 7.132617012E-02 -5.315854804E-01
 3.324092031E-01 7.083650306E-02 -5.336988991E-01
 3.203441501E-01 7.026825100E-02 -5.245045935E-01
 3.074471205E-01 6.958493590E-02 -5.201916081E-01
 2.941775024E-01 6.880292296E-02 -5.153058621E-01
 2.813786119E-01 6.796494126E-02 -5.076358218E-01
 2.694708258E-01 6.711551920E-02 -5.073158158E-01
 2.572837770E-01 6.616935134E-02 -5.010510840E-01
 2.448876500E-01 6.511835009E-02 -4.950347114E-01
 2.325019538E-01 6.398088112E-02 -4.857049777E-01
 2.201184183E-01 6.276266463E-02 -4.827075060E-01
 2.077316940E-01 6.145095825E-02 -4.757777074E-01
 1.952241957E-01 6.001813151E-02 -4.654980442E-01
 1.829223707E-01 5.850861222E-02 -4.588033358E-01
 1.710277423E-01 5.694353580E-02 -4.479793592E-01
 1.591074318E-01 5.526692979E-02 -4.393036067E-01
 1.473997384E-01 5.350995064E-02 -4.292413651E-01
 1.356732771E-01 5.161939003E-02 -4.162859890E-01
 1.238812022E-01 4.958808236E-02 -4.018836292E-01
 1.128186807E-01 4.754662514E-02 -3.894168628E-01
 1.022485197E-01 4.545844533E-02 -3.755452204E-01
 9.149425477E-02 4.317156598E-02 -3.556164151E-01
 8.023749292E-02 4.059581272E-02 -3.292389340E-01
 6.950372085E-02 3.794377856E-02 -3.084239114E-01
 5.954656936E-02 3.526114114E-02 -2.845738087E-01
 7.097405940E-02 -3.355731070E-02 -2.208171750E-01
 8.097164705E-02 -3.566825949E-02 -2.334756844E-01
 9.104312956E-02 -3.763409518E-02 -2.461436440E-01
 1.016960181E-01 -3.956212103E-02 -2.563834927E-01
 1.128144413E-01 -4.144261405E-02 -2.681677281E-01
 1.243140548E-01 -4.325718991E-02 -2.789869409E-01
 1.357757300E-01 -4.495241493E-02 -2.920338796E-01
 1.469852552E-01 -4.650100879E-02 -3.009887810E-01
 1.588672400E-01 -4.804202169E-02 -3.097256111E-01
 1.709103584E-01 -4.950884543E-02 -3.245804307E-01
 1.828332245E-01 -5.086045340E-02 -3.335083205E-01
 1.944005564E-01 -5.208813027E-02 -3.458861918E-01
 2.056609392E-01 -5.319733545E-02 -3.549108149E-01
 2.175986469E-01 -5.428565852E-02 -3.639747054E-01
 2.301149443E-01 -5.533746444E-02 -3.760028616E-01
 2.425885499E-01 -5.629076250E-02 -3.883411643E-01
 2.547861412E-01 -5.712153018E-02 -3.973116999E-01
 2.664839774E-01 -5.783520266E-02 -4.063402603E-01
 2.783191800E-01 -5.846282095E-02 -4.176610150E-01
 2.906256616E-01 -5.900763907E-02 -4.231941716E-01
 3.030776978E-01 -5.945956521E-02 -4.297131072E-01
 3.154151142E-01 -5.980040319E-02 -4.400824112E-01
 3.278525472E-01 -6.002069823E-02 -4.396649768E-01
 3.398266882E-01 -6.013626233E-02 -4.459014778E-01
 3.511498868E-01 -6.013874896E-02 -4.489077736E-01
 3.623682261E-01 -6.003410742E-02 -4.466602060E-01
 3.733921200E-01 -5.983342789E-02 -4.422940708E-01
 3.848758787E-01 -5.951348320E-02 -4.381583461E-01
 3.974875510E-01 -5.903191306E-02 -4.244945615E-01
 4.105458260E-01 -5.841151439E-02 -4.165072366E-01
 4.232023358E-01 -5.767725036E-02 -4.028910189E-01
 4.357474446E-01 -5.682221614E-02 -3.862217698E-01
 4.477122128E-01 -5.589714646E-02 -3.694384342E-01
 4.591884464E-01 -5.489905551E-02 -3.489782002E-01
 4.710327983E-01 -5.377026275E-02 -3.205150855E-01
 4.830143303E-01 -5.255669169E-02 -2.998240775E-01
 4.953743368E-01 -5.121773109E-02 -2.771577841E-01
 5.086547136E-01 -4.968237877E-02 -2.479447845E-01
 5.219488442E-01 -4.807888903E-02 -2.204563762E-01
 5.349355936E-01 -4.644057900E-02 -1.969087351E-01
 5.476211905E-01 -4.479229636E-02 -1.670997193E-01
 5.606988668E-01 -4.304928519E-02 -1.486292775E-01
 5.739702582E-01 -4.122440889E-02 -1.191457706E-01
 5.864682496E-01 -3.947509639E-02 -9.440865560E-02
 5.992738605E-01 -3.768377192E-02 -7.120802528E-02
 6.133795977E-01 -3.569367342E-02 -5.484014214E-02
 6.279449165E-01 -3.359750472E-02 -2.675597375E-02
 6.427288055E-01 -3.146968503E-02 -1.295435785E-03
 6.567617953E-01 -2.947245818E-02 1.821718212E-02
 6.697856188E-01 -2.762219496E-02 3.224155349E-02
 6.825488210E-01 -2.579411119E-02 5.358225319E-02
 6.947953105E-01 -2.406317275E-02 7.251541936E-02
 7.079914808E-01 -2.221420594E-02 8.588803287E-02
 7.215681076E-01 -2.031784318E-02 1.087668626E-01
 7.342987359E-01 -1.858760044E-02 1.236510066E-01
 7.474168837E-01 -1.682256814E-02 1.357430673E-01
 7.603333294E-01 -1.510134386E-02 1.584814046E-01
 7.731402218E-01 -1.343872491E-02 1.713805298E-01
 7.857927680E-01 -1.182836061E-02 1.908297516E-01
 7.981450558E-01 -1.031352812E-02 2.052186290E-01
 8.101301789E-01 -8.898478467E-03 2.198460680E-01
 8.213383555E-01 -7.618427044E-03 2.320176754E-01
 8.337098360E-01 -6.277323468E-03 2.477383090E-01
 8.465912640E-01 -4.957993282E-03 2.603608257E-01
 8.588368297E-01 -3.772801254E-03 2.775183964E-01
 8.704983294E-01 -2.746494138E-03 2.913285739E-01
 8.816271722E-01 -1.864375314E-03 2.991416981E-01
 8.937309682E-01 -1.029966690E-03 3.094433122E-01
 9.158566594E-01 1.757399532E-04 3.265200403E-01
 9.461791515E-01 1.031545573E-03 3.265016081E-01
 9.580313563E-01 1.129490149E-03 3.260984284E-01
 9.707013667E-01 1.096636697E-03 3.266721577E-01
 9.828978181E-01 9.373938374E-04 3.355939311E-01
 9.942688942E-01 6.704873813E-04 4.135696877E-01
 -5.000000000E-01 9.500000000E-01 -4.171535852E-04
 -5.000000000E-01 9.000000000E-01 -1.964814692E-05
 -5.000000000E-01 8.500000000E-01 1.030972132E-03
 -5.000000000E-01 8.000000000E-01 2.914257813E-03
 -5.000000000E-01 7.500000000E-01 5.373232375E-03
 -5.000000000E-01 7.000000000E-01 8.803860905E-03
 -5.000000000E-01 6.500000000E-01 1.297389526E-02
 -5.000000000E-01 6.000000000E-01 1.824899087E-02
 -5.000000000E-01 5.500000000E-01 2.426610900E-02
 -5.000000000E-01 5.000000000E-01 3.123859054E-02
 -5.000000000E-01 4.500000000E-01 3.909480415E-02
 -5.000000000E-01 4.000000000E-01 4.760181913E-02
 -5.000000000E-01 3.500000000E-01 5.666487682E-02
 -5.000000000E-01 3.000000000E-01 6.616950846E-02
 -5.000000000E-01 2.500000000E-01 7.542184552E-02
 -5.000000000E-01 2.000000000E-01 8.441214626E-02
 -5.000000000E-01 1.500000000E-01 9.253620727E-02
 -5.000000000E-01 1.000000000E-01 9.943057609E-02
 -5.000000000E-01 5.000000000E-02 1.044486174E-01
 -5.000000000E-01 2.752242878E-12 1.077275370E-01
 -5.000000000E-01 -5.000000000E-02 1.088989249E-01
 -5.000000000E-01 -1.000000000E-01 1.080240329E-01
 -5.000000000E-01 -1.500000000E-01 1.053663246E-01
 -5.000000000E-01 -2.000000000E-01 1.009232744E-01
 -5.000000000E-01 -2.500000000E-01 9.587348136E-02
 -5.000000000E-01 -3.000000000E-01 8.969109676E-02
 -5.000000000E-01 -3.500000000E-01 8.327509534E-02
 -5.000000000E-01 -4.000000000E-01 7.656036812E-02
 -5.000000000E-01 -4.500000000E-01 7.020678283E-02
 -5.000000000E-01 -5.000000000E-01 6.388257848E-02
 -5.000000000E-01 -5.500000000E-01 5.809238996E-02
 -5.000000000E-01 -6.000000000E-01 5.259342637E-02
 -5.000000000E-01 -6.500000000E-01 4.759420444E-02
 -5.000000000E-01 -7.000000000E-01 4.294894428E-02
 -5.000000000E-01 -7.500000000E-01 3.860012730E-02
 -5.000000000E-01 -8.000000000E-01 3.449835763E-02
 -5.000000000E-01 -8.500000000E-01 3.037262808E-02
 -5.000000000E-01 -9.000000000E-01 2.579584008E-02
 -5.000000000E-01 -9.500000000E-01 1.918253782E-02
 -4.500000000E-01 -1.000000000E+00 1.755100773E-02
 -4.000000000E-01 -1.000000000E+00 2.268161007E-02
 -3.500000000E-01 -1.000000000E+00 2.507553864E-02
 -3.000000000E-01 -1.000000000E+00 2.625738589E-02
 -2.500000000E-01 -1.000000000E+00 2.653614942E-02
 -2.000000000E-01 -1.000000000E+00 2.602374862E-02
 -1.500000000E-01 -1.000000000E+00 2.479048790E-02
 -1.000000000E-01 -1.000000000E+00 2.282431591E-02
 -5.000000000E-02 -1.000000000E+00 2.035010232E-02
 -9.424683256E-13 -1.000000000E+00 1.733627961E-02
 5.000000000E-02 -1.000000000E+00 1.398729017E-02
 1.000000000E-01 -1.000000000E+00 1.044699061E-02
 1.500000000E-01 -1.000000000E+00 6.874724191E-03
 2.000000000E-01 -1.000000000E+00 3.346835519E-03
 2.500000000E-01 -1.000000000E+00 1.488484902E-04
 3.000000000E-01 -1.000000000E+00 -2.607247216E-03
 3.500000000E-01 -1.000000000E+00 -4.871530492E-03
 4.000000000E-01 -1.000000000E+00 -6.485080043E-03
 4.500000000E-01 -1.000000000E+00 -7.218887476E-03
 5.000000000E-01 -1.000000000E+00 -7.354451663E-03
 5.500000000E-01 -1.000000000E+00 -6.647402365E-03
 6.000000000E-01 -1.000000000E+00 -5.370722614E-03
 6.500000000E-01 -1.000000000E+00 -3.248445163E-03
 7.000000000E-01 -1.000000000E+00 -6.675655579E-04
 7.500000000E-01 -1.000000000E+00 2.367716165E-03
 8.000000000E-01 -1.000000000E+00 5.675354976E-03
 8.500000000E-01 -1.000000000E+00 9.129010164E-03
 9.000000000E-01 -1.000000000E+00 1.258860980E-02
 9.500000000E-01 -1.000000000E+00 1.598805165E-02
 1.000000000E+00 -1.000000000E+00 1.923781326E-02
 1.050000000E+00 -1.000000000E+00 2.216459191E-02
 1.100000000E+00 -1.000000000E+00 2.485004625E-02
 1.150000000E+00 -1.000000000E+00 2.709217612E-02
 1.200000000E+00 -1.000000000E+00 2.907859666E-02
 1.250000000E+00 -1.000000000E+00 3.071195872E-02
 1.300000000E+00 -1.000000000E+00 3.195283173E-02
 1.350000000E+00 -1.000000000E+00 3.291064689E-02
 1.400000000E+00 -1.000000000E+00 3.358195480E-02
 1.450000000E+00 -1.000000000E+00 3.389954264E-02
 1.500000000E+00 -1.000000000E+00 3.406837860E-02
 1.550000000E+00 -1.000000000E+00 3.393391151E-02
 1.600000000E+00 -1.000000000E+00 3.373356983E-02
 1.650000000E+00 -1.000000000E+00 3.332829756E-02
 1.700000000E+00 -1.000000000E+00 3.288054973E-02
 1.750000000E+00 -1.000000000E+00 3.230218009E-02
 1.800000000E+00 -1.000000000E+00 3.167250591E-02
 1.850000000E+00 -1.000000000E+00 3.096538814E-02
 1.900000000E+00 -1.000000000E+00 3.026276175E-02
 1.950000000E+00 -1.000000000E+00 2.953565654E-02
 2.000000000E+00 -1.000000000E+00 2.879158604E-02
 2.050000000E+00 -1.000000000E+00 2.808500661E-02
 2.100000000E+00 -1.000000000E+00 2.736113389E-02
 2.150000000E+00 -1.000000000E+00 2.665571356E-02
 2.200000000E+00 -1.000000000E+00 2.599922233E-02
 2.250000000E+00 -1.000000000E+00 2.532218741E-02
 2.300000000E+00 -1.000000000E+00 2.477330524E-02
 2.350000000E+00 -1.000000000E+00 2.413426476E-02
 2.400000000E+00 -1.000000000E+00 2.364150067E-02
 2.450000000E+00 -1.000000000E+00 2.309480236E-02
 2.500000000E+00 -1.000000000E+00 2.264384672E-02
 2.550000000E+00 -1.000000000E+00 2.221425876E-02
 2.600000000E+00 -1.000000000E+00 2.182158663E-02
 2.650000000E+00 -1.000000000E+00 2.148016365E-02
 2.700000000E+00 -1.000000000E+00 2.112900684E-02
 2.750000000E+00 -1.000000000E+00 2.085075919E-02
 2.800000000E+00 -1.000000000E+00 2.059937600E-02
 2.850000000E+00 -1.000000000E+00 2.028887405E-02
 2.900000000E+00 -1.000000000E+00 2.008961362E-02
 2.950000000E+00 -1.000000000E+00 1.979979284E-02
 3.000000000E+00 -1.000000000E+00 1.957615076E-02
 3.050000000E+00 -1.000000000E+00 1.930321216E-02
 3.100000000E+00 -1.000000000E+00 1.902334567E-02
 3.150000000E+00 -1.000000000E+00 1.866208273E-02
 3.200000000E+00 -1.000000000E+00 1.823664805E-02
 3.250000000E+00 -1.000000000E+00 1.766381342E-02
 3.300000000E+00 -1.000000000E+00 1.687002228E-02
 3.350000000E+00 -1.000000000E+00 1.581987343E-02
 3.400000000E+00 -1.000000000E+00 1.413972094E-02
 3.450000000E+00 -1.000000000E+00 1.137647942E-02
 3.500000000E+00 -9.500000000E-01 7.523963533E-03
 3.500000000E+00 -9.000000000E-01 9.040719316E-03
 3.500000000E+00 -8.500000000E-01 1.050316317E-02
 3.500000000E+00 -8.000000000E-01 1.202252352E-02
 3.500000000E+00 -7.500000000E-01 1.358180787E-02
 3.500000000E+00 -7.000000000E-01 1.508471378E-02
 3.500000000E+00 -6.500000000E-01 1.675425216E-02
 3.500000000E+00 -6.000000000E-01 1.849096230E-02
 3.500000000E+00 -5.500000000E-01 2.040148517E-02
 3.500000000E+00 -5.000000000E-01 2.239436653E-02
 3.500000000E+00 -4.500000000E-01 2.458777346E-02
 3.500000000E+00 -4.000000000E-01 2.686653166E-02
 3.500000000E+00 -3.500000000E-01 2.928945337E-02
 3.500000000E+00 -3.000000000E-01 3.154707854E-02
 3.500000000E+00 -2.500000000E-01 3.319277237E-02
 3.500000000E+00 -2.000000000E-01 3.390101105E-02
 3.500000000E+00 -1.500000000E-01 3.365620099E-02
 3.500000000E+00 -1.000000000E-01 3.255346396E-02
 3.500000000E+00 -5.000000000E-02 3.128580001E-02
 3.500000000E+00 -2.752242878E-12 3.074670739E-02
 3.500000000E+00 5.000000000E-02 3.051826150E-02
 3.500000000E+00 1.000000000E-01 3.005354021E-02
 3.500000000E+00 1.500000000E-01 2.857289014E-02
 3.500000000E+00 2.000000000E-01 2.608802495E-02
 3.500000000E+00 2.500000000E-01 2.295217642E-02
 3.500000000E+00 3.000000000E-01 1.961522934E-02
 3.500000000E+00 3.500000000E-01 1.640607612E-02
 3.500000000E+00 4.000000000E-01 1.346482619E-02
 3.500000000E+00 4.500000000E-01 1.075712488E-02
 3.500000000E+00 5.000000000E-01 8.327850696E-03
 3.500000000E+00 5.500000000E-01 6.289651496E-03
 3.500000000E+00 6.000000000E-01 4.904429257E-03
 3.500000000E+00 6.500000000E-01 4.267956739E-03
 3.500000000E+00 7.000000000E-01 4.194678771E-03
 3.500000000E+00 7.500000000E-01 3.567219328E-03
 3.500000000E+00 8.000000000E-01 6.053553405E-04
 3.500000000E+00 8.500000000E-01 -5.376549534E-03
 3.500000000E+00 9.000000000E-01 -1.328202038E-02
 3.500000000E+00 9.500000000E-01 -2.404274215E-02
 3.450000000E+00 1.000000000E+00 -1.454949886E-02
 3.400000000E+00 1.000000000E+00 -6.342100383E-03
 3.350000000E+00 1.000000000E+00 -2.262237246E-03
 3.300000000E+00 1.000000000E+00 -3.607761386E-04
 3.250000000E+00 1.000000000E+00 5.921731025E-04
 3.200000000E+00 1.000000000E+00 1.242521592E-03
 3.150000000E+00 1.000000000E+00 1.388238318E-03
 3.100000000E+00 1.000000000E+00 1.443521529E-03
 3.050000000E+00 1.000000000E+00 1.176665814E-03
 3.000000000E+00 1.000000000E+00 1.132060994E-03
 2.950000000E+00 1.000000000E+00 4.427832796E-04
 2.900000000E+00 1.000000000E+00 2.048001842E-04
 2.850000000E+00 1.000000000E+00 -7.889616681E-04
 2.800000000E+00 1.000000000E+00 -1.358962054E-03
 2.750000000E+00 1.000000000E+00 -2.191099417E-03
 2.700000000E+00 1.000000000E+00 -2.969640978E-03
 2.650000000E+00 1.000000000E+00 -3.907595495E-03
 2.600000000E+00 1.000000000E+00 -4.842154427E-03
 2.550000000E+00 1.000000000E+00 -6.012153603E-03
 2.500000000E+00 1.000000000E+00 -7.048328926E-03
 2.450000000E+00 1.000000000E+00 -8.305589882E-03
 2.400000000E+00 1.000000000E+00 -9.687057495E-03
 2.350000000E+00 1.000000000E+00 -1.083502131E-02
 2.300000000E+00 1.000000000E+00 -1.241759507E-02
 2.250000000E+00 1.000000000E+00 -1.409729472E-02
 2.200000000E+00 1.000000000E+00 -1.566564005E-02
 2.150000000E+00 1.000000000E+00 -1.730308116E-02
 2.100000000E+00 1.000000000E+00 -1.943727631E-02
 2.050000000E+00 1.000000000E+00 -2.123551789E-02
 2.000000000E+00 1.000000000E+00 -2.379778525E-02
 1.950000000E+00 1.000000000E+00 -2.586704551E-02
 1.900000000E+00 1.000000000E+00 -2.881867331E-02
 1.850000000E+00 1.000000000E+00 -3.137107893E-02
 1.800000000E+00 1.000000000E+00 -3.433678583E-02
 1.750000000E+00 1.000000000E+00 -3.744701905E-02
 1.700000000E+00 1.000000000E+00 -4.081298872E-02
 1.650000000E+00 1.000000000E+00 -4.447016018E-02
 1.600000000E+00 1.000000000E+00 -4.838621115E-02
 1.550000000E+00 1.000000000E+00 -5.240592696E-02
 1.500000000E+00 1.000000000E+00 -5.705404088E-02
 1.450000000E+00 1.000000000E+00 -6.169932649E-02
 1.400000000E+00 1.000000000E+00 -6.694900851E-02
 1.350000000E+00 1.000000000E+00 -7.228346908E-02
 1.300000000E+00 1.000000000E+00 -7.786352353E-02
 1.250000000E+00 1.000000000E+00 -8.393969813E-02
 1.200000000E+00 1.000000000E+00 -8.937534336E-02
 1.150000000E+00 1.000000000E+00 -9.569083862E-02
 1.100000000E+00 1.000000000E+00 -1.012705157E-01
 1.050000000E+00 1.000000000E+00 -1.070023545E-01
 1.000000000E+00 1.000000000E+00 -1.120719179E-01
 9.500000000E-01 1.000000000E+00 -1.173646089E-01
 9.000000000E-01 1.000000000E+00 -1.210615460E-01
 8.500000000E-01 1.000000000E+00 -1.249624885E-01
 8.000000000E-01 1.000000000E+00 -1.272311288E-01
 7.500000000E-01 1.000000000E+00 -1.288629393E-01
 7.000000000E-01 1.000000000E+00 -1.290885035E-01
 6.500000000E-01 1.000000000E+00 -1.285053782E-01
 6.000000000E-01 1.000000000E+00 -1.258226848E-01
 5.500000000E-01 1.000000000E+00 -1.228529779E-01
 5.000000000E-01 1.000000000E+00 -1.174787087E-01
 4.500000000E-01 1.000000000E+00 -1.119936347E-01
 4.000000000E-01 1.000000000E+00 -1.052549542E-01
 3.500000000E-01 1.000000000E+00 -9.713140634E-02
 3.000000000E-01 1.000000000E+00 -8.945623575E-02
 2.500000000E-01 1.000000000E+00 -8.053286724E-02
 2.000000000E-01 1.000000000E+00 -7.165025160E-02
 1.500000000E-01 1.000000000E+00 -6.250999821E-02
 1.000000000E-01 1.000000000E+00 -5.371967198E-02
 5.000000000E-02 1.000000000E+00 -4.498684594E-02
 1.733724275E-12 1.000000000E+00 -3.713492976E-02
 -5.000000000E-02 1.000000000E+00 -2.979852511E-02
 -1.000000000E-01 1.000000000E+00 -2.322004761E-02
 -1.500000000E-01 1.000000000E+00 -1.748186132E-02
 -2.000000000E-01 1.000000000E+00 -1.253543212E-02
 -2.500000000E-01 1.000000000E+00 -8.531694839E-03
 -3.000000000E-01 1.000000000E+00 -5.402478336E-03
 -3.500000000E-01 1.000000000E+00 -3.118655332E-03
 -4.000000000E-01 1.000000000E+00 -1.592366527E-03
 -4.500000000E-01 1.000000000E+00 -7.158997622E-04
 8.908094755E-01 -7.205494023E-03 2.995228320E-01
 9.854410750E-01 -4.671419367E-03 3.353558641E-01
 8.131930596E-01 -1.367612124E-02 2.183848974E-01
 7.456997409E-01 -2.289014920E-02 1.325945127E-01
 6.739825666E-01 -3.318352147E-02 3.851497889E-02
 6.033982357E-01 -4.285957980E-02 -6.867691095E-02
 5.332239550E-01 -5.192377397E-02 -1.964809651E-01
 4.696195171E-01 -5.827953432E-02 -3.176979113E-01
 4.144917720E-01 -6.375977195E-02 -4.002182284E-01
 3.531431262E-01 -6.502327213E-02 -4.365345241E-01