TITLE     = "Visualization of the solution"
VARIABLES = "x"
"y"
"Pressure_Coefficient"
ZONE T="Zone"
 STRANDID=0, SOLUTIONTIME=0
 Nodes=12048, Elements=23513, ZONETYPE=FEQuadrilateral
 DATAPACKING=POINT
 DT=(DOUBLE DOUBLE DOUBLE )
 1.000253677E+00 5.117807304E-04 2.510088178E-01
 9.865028262E-01 3.328460269E-03 1.933186087E-01
 9.729100466E-01 6.156425457E-03 1.225985315E-01
 9.549327493E-01 9.861847386E-03 6.596676079E-02
 9.395919442E-01 1.301919669E-02 2.676604353E-02
 9.256938696E-01 1.590484194E-02 -1.577769142E-02
 9.140611291E-01 1.828153431E-02 -3.826383008E-02
 9.031632543E-01 2.054616250E-02 -8.429580566E-02
 8.914406896E-01 2.285201848E-02 -9.410460395E-02
 8.800922632E-01 2.513130195E-02 -1.355234452E-01
 8.682553172E-01 2.739958838E-02 -1.586059738E-01
 8.556506038E-01 2.972520888E-02 -1.729293686E-01
 8.438236117E-01 3.186909854E-02 -1.857157472E-01
 8.332281113E-01 3.379977494E-02 -2.137464183E-01
 8.217484951E-01 3.582551330E-02 -2.389889915E-01
 8.092126250E-01 3.790910169E-02 -2.359806691E-01
 7.967118621E-01 4.001795128E-02 -2.618006054E-01
 7.841458917E-01 4.206801206E-02 -2.758823216E-01
 7.719395161E-01 4.404188693E-02 -2.965116876E-01
 7.606834769E-01 4.583440349E-02 -3.264784388E-01
 7.473444343E-01 4.780891910E-02 -3.223320682E-01
 7.340931296E-01 4.979695380E-02 -3.476675123E-01
 7.232974172E-01 5.137806758E-02 -3.727683523E-01
 7.118334770E-01 5.296934769E-02 -3.803089340E-01
 6.998016834E-01 5.460131168E-02 -3.935063942E-01
 6.866760850E-01 5.633680522E-02 -4.139028720E-01
 6.739002466E-01 5.795813352E-02 -4.317447727E-01
 6.630103588E-01 5.928716436E-02 -4.448078653E-01
 6.511590481E-01 6.068330258E-02 -4.629019524E-01
 6.394016147E-01 6.199773401E-02 -4.734821834E-01
 6.277397871E-01 6.326410174E-02 -5.002043258E-01
 6.156545281E-01 6.444588304E-02 -4.962895101E-01
 6.053260565E-01 6.544768065E-02 -5.168594290E-01
 5.935609341E-01 6.649944186E-02 -5.274098274E-01
 5.821110606E-01 6.745292246E-02 -5.367513262E-01
 5.687271357E-01 6.847076118E-02 -5.433819199E-01
 5.564089417E-01 6.933813542E-02 -5.553223512E-01
 5.442746878E-01 7.010122389E-02 -5.601802378E-01
 5.332114100E-01 7.073660195E-02 -5.674761339E-01
 5.216538906E-01 7.132419944E-02 -5.738922417E-01
 5.095841289E-01 7.184115052E-02 -5.700707335E-01
 4.986428320E-01 7.226225734E-02 -5.748884647E-01
 4.856980741E-01 7.266616821E-02 -5.758473525E-01
 4.723667204E-01 7.297874987E-02 -5.665312668E-01
 4.593320489E-01 7.324079424E-02 -5.771194553E-01
 4.463534057E-01 7.337825745E-02 -5.675489687E-01
 4.339061379E-01 7.345730811E-02 -5.667900787E-01
 4.216044843E-01 7.347218692E-02 -5.715935074E-01
 4.092060924E-01 7.338551432E-02 -5.593210184E-01
 3.966959417E-01 7.325747609E-02 -5.633630247E-01
 3.846917152E-01 7.304674387E-02 -5.555017147E-01
 3.729984164E-01 7.279838622E-02 -5.575033744E-01
 3.600296378E-01 7.242690027E-02 -5.479752113E-01
 3.472960591E-01 7.201099396E-02 -5.484582700E-01
 3.342141509E-01 7.149904221E-02 -5.479433152E-01
 3.233857453E-01 7.100481540E-02 -5.402819320E-01
 3.109193146E-01 7.037771493E-02 -5.389260289E-01
 2.982126474E-01 6.964934617E-02 -5.309710518E-01
 2.846285701E-01 6.879205257E-02 -5.290344626E-01
 2.730042636E-01 6.797754765E-02 -5.236111820E-01
 2.612826526E-01 6.708239019E-02 -5.143317545E-01
 2.491120994E-01 6.609439850E-02 -5.153833538E-01
 2.368832082E-01 6.499917805E-02 -5.061223062E-01
 2.246927470E-01 6.383192539E-02 -5.019950040E-01
 2.126424462E-01 6.258520484E-02 -4.962952430E-01
 2.004968375E-01 6.122719869E-02 -4.865664268E-01
 1.882016212E-01 5.976059660E-02 -4.813557443E-01
 1.763736308E-01 5.823765323E-02 -4.695600596E-01
 1.645500958E-01 5.661958456E-02 -4.626422518E-01
 1.527733356E-01 5.488840863E-02 -4.509989054E-01
 1.417848170E-01 5.317666009E-02 -4.435835320E-01
 1.300567687E-01 5.120690167E-02 -4.288152417E-01
 1.189437956E-01 4.921936244E-02 -4.183184893E-01
 1.083345041E-01 4.718234017E-02 -4.037647208E-01
 9.823435545E-02 4.511256516E-02 -3.869646499E-01
 8.759819716E-02 4.278152436E-02 -3.692927775E-01
 7.640883327E-02 4.012780264E-02 -3.488632243E-01
 6.649543345E-02 3.757328540E-02 -3.214142461E-01
 5.677431822E-02 3.486322239E-02 -2.932606764E-01
 4.796897992E-02 3.217537329E-02 -2.634885397E-01
 4.039042443E-02 2.965421416E-02 -2.319764120E-01
 3.356353566E-02 2.718566544E-02 -1.922432674E-01
 2.771058120E-02 2.486101910E-02 -1.587302770E-01
 2.336001955E-02 2.298764139E-02 -1.193911121E-01
 1.915756986E-02 2.101522498E-02 -7.918675119E-02
 1.567879878E-02 1.923491247E-02 -2.684767384E-02
 1.256894134E-02 1.748405024E-02 1.858706332E-02
 1.030119322E-02 1.609293185E-02 6.353934954E-02
 8.294262923E-03 1.474475861E-02 1.062655174E-01
 6.460031494E-03 1.338647678E-02 1.978827795E-01
 4.171774257E-03 1.145359594E-02 3.091091337E-01
 2.265124582E-03 9.505412541E-03 4.056309387E-01
 7.548978319E-04 7.544599473E-03 6.536943127E-01
 -7.111294544E-04 4.703957587E-03 9.046416387E-01
 -1.245576772E-03 2.592690522E-03 1.058105253E+00
 -1.342413831E-03 8.649499505E-04 1.129181523E+00
 -1.111399964E-03 -9.956914000E-04 1.114262052E+00
 -5.720353802E-04 -2.813830506E-03 1.030976990E+00
 5.184785114E-04 -5.057056434E-03 9.006845100E-01
 2.091168193E-03 -7.352373097E-03 7.309566227E-01
 4.156168085E-03 -9.678903967E-03 5.789839035E-01
 6.036483217E-03 -1.145080011E-02 4.500711251E-01
 8.165745996E-03 -1.320464257E-02 3.636822824E-01
 9.943562560E-03 -1.452039648E-02 2.805884087E-01
 1.214130875E-02 -1.601413451E-02 2.232986277E-01
 1.456977800E-02 -1.752044074E-02 1.540939558E-01
 1.786114462E-02 -1.937457360E-02 9.386599574E-02
 2.086145803E-02 -2.092568204E-02 2.931182646E-02
 2.466377430E-02 -2.272818051E-02 -1.339701557E-02
 2.984812297E-02 -2.495414019E-02 -6.242556229E-02
 3.546738625E-02 -2.714856155E-02 -1.113000568E-01
 4.205873609E-02 -2.946241572E-02 -1.482490152E-01
 4.948615283E-02 -3.183265775E-02 -1.786954112E-01
 5.826373771E-02 -3.437350318E-02 -2.078229120E-01
 6.688166410E-02 -3.663951159E-02 -2.350076050E-01
 7.685653865E-02 -3.904533386E-02 -2.521796181E-01
 8.665566146E-02 -4.121426120E-02 -2.679431264E-01
 9.704647958E-02 -4.334077612E-02 -2.855291682E-01
 1.082178727E-01 -4.545570910E-02 -2.982136388E-01
 1.194164455E-01 -4.742079973E-02 -3.112827404E-01
 1.311685145E-01 -4.933788255E-02 -3.235668650E-01
 1.416386962E-01 -5.093150586E-02 -3.346533863E-01
 1.528968215E-01 -5.254309252E-02 -3.478949323E-01
 1.648443490E-01 -5.412473157E-02 -3.560281069E-01
 1.764233857E-01 -5.556190759E-02 -3.693694314E-01
 1.881915778E-01 -5.691706017E-02 -3.803705047E-01
 1.989990473E-01 -5.806654319E-02 -3.888058652E-01
 2.103793323E-01 -5.919427052E-02 -3.992868514E-01
 2.224442512E-01 -6.029658765E-02 -4.114801906E-01
 2.345660478E-01 -6.129328161E-02 -4.194544895E-01
 2.463193238E-01 -6.217413396E-02 -4.327693235E-01
 2.580847740E-01 -6.294367462E-02 -4.380239053E-01
 2.690611184E-01 -6.357613206E-02 -4.443640700E-01
 2.813187540E-01 -6.420219690E-02 -4.579220447E-01
 2.930510044E-01 -6.467877328E-02 -4.605166193E-01
 3.058747053E-01 -6.509859860E-02 -4.697018779E-01
 3.177686632E-01 -6.537602842E-02 -4.784356819E-01
 3.305043578E-01 -6.552561373E-02 -4.747177100E-01
 3.413577974E-01 -6.555413455E-02 -4.756513187E-01
 3.529867828E-01 -6.549067050E-02 -4.760857408E-01
 3.638502061E-01 -6.532301009E-02 -4.716554909E-01
 3.749998808E-01 -6.506513059E-02 -4.732669579E-01
 3.870298266E-01 -6.463875622E-02 -4.562712386E-01
 4.006425142E-01 -6.404782087E-02 -4.523844547E-01
 4.131991863E-01 -6.334409118E-02 -4.368296982E-01
 4.257002473E-01 -6.250952184E-02 -4.178629082E-01
 4.380939305E-01 -6.156260148E-02 -3.977490738E-01
 4.502578378E-01 -6.052986905E-02 -3.800965660E-01
 4.620812535E-01 -5.941544101E-02 -3.563847455E-01
 4.743832052E-01 -5.816429108E-02 -3.346923262E-01
 4.864596128E-01 -5.681968853E-02 -3.009635091E-01
 4.993060231E-01 -5.534081534E-02 -2.807676549E-01
 5.130212307E-01 -5.366201699E-02 -2.524372967E-01
 5.259744525E-01 -5.199108645E-02 -2.234762392E-01
 5.385130644E-01 -5.031930655E-02 -1.981774989E-01
 5.509815216E-01 -4.859896377E-02 -1.698793973E-01
 5.647168159E-01 -4.668077454E-02 -1.478344517E-01
 5.775442719E-01 -4.482953623E-02 -1.195191475E-01
 5.904839635E-01 -4.295279831E-02 -9.994876361E-02
 6.036430001E-01 -4.099495709E-02 -7.186209396E-02
 6.180603504E-01 -3.885218129E-02 -5.030845549E-02
 6.321141720E-01 -3.673692048E-02 -2.508817424E-02
 6.468192339E-01 -3.453079611E-02 -5.121358887E-03
 6.594648361E-01 -3.261407837E-02 1.818615720E-02
 6.727598906E-01 -3.061513975E-02 3.662487533E-02
 6.850396991E-01 -2.877888456E-02 5.327434727E-02
 6.971954107E-01 -2.695808187E-02 7.314671207E-02
 7.117876410E-01 -2.480196394E-02 9.174049883E-02
 7.249354124E-01 -2.288676240E-02 1.070168986E-01
 7.368149757E-01 -2.117237635E-02 1.207274164E-01
 7.505136728E-01 -1.915780082E-02 1.500394679E-01
 7.632513642E-01 -1.739655249E-02 1.559441041E-01
 7.768612504E-01 -1.548422221E-02 1.808223217E-01
 7.889997363E-01 -1.383568253E-02 1.959912803E-01
 8.021493554E-01 -1.209148299E-02 2.144240451E-01
 8.132600784E-01 -1.069227885E-02 2.218733733E-01
 8.244035840E-01 -9.263527580E-03 2.479812042E-01
 8.374767900E-01 -7.707808167E-03 2.601070824E-01
 8.500796556E-01 -6.280138623E-03 2.777474074E-01
 8.624756932E-01 -4.966810811E-03 2.929616111E-01
 8.736432791E-01 -3.893220099E-03 3.015591057E-01
 8.844950795E-01 -2.890473465E-03 3.208373857E-01
 8.974955082E-01 -1.869139844E-03 3.262296108E-01
 9.075964689E-01 -1.150713884E-03 3.402601018E-01
 9.186902642E-01 -5.012426409E-04 3.446377212E-01
 9.288106561E-01 -1.387304837E-05 3.493583367E-01
 9.381594658E-01 3.488110960E-04 3.550222969E-01
 9.500176311E-01 6.623142399E-04 3.568578390E-01
 9.628775120E-01 8.567779441E-04 3.619122723E-01
 9.766692519E-01 8.851352613E-04 3.710827757E-01
 9.889536500E-01 7.525519468E-04 3.933939687E-01
 -5.000000000E-01 -1.000000000E+00 1.452804862E-02
 3.500000000E+00 -1.000000000E+00 8.714120516E-03
 3.500000000E+00 1.000000000E+00 -2.616365573E-02
 -5.000000000E-01 1.000000000E+00 -3.438041423E-04
 9.933782518E-01 1.920120500E-03 2.816927202E-01
 9.797064364E-01 4.742442863E-03 1.508609570E-01
 9.639213979E-01 8.009136422E-03 9.115009525E-02
 9.472623467E-01 1.144052204E-02 4.587715246E-02
 9.326429069E-01 1.446201932E-02 3.296599555E-03
 9.198774993E-01 1.709318813E-02 -2.547998142E-02
 9.086121917E-01 1.941384841E-02 -6.687743241E-02
 8.973019719E-01 2.169909049E-02 -8.455985906E-02
 8.857664764E-01 2.399166021E-02 -1.183358347E-01
 8.741737902E-01 2.626544517E-02 -1.482849522E-01
 8.619529605E-01 2.856239863E-02 -1.642542465E-01
 8.497371078E-01 3.079715371E-02 -1.767554365E-01
 8.385258615E-01 3.283443674E-02 -2.022632397E-01
 8.274883032E-01 3.481264412E-02 -2.305321727E-01
 8.154805601E-01 3.686730750E-02 -2.324349404E-01
 8.029622436E-01 3.896352649E-02 -2.509652295E-01
 7.904288769E-01 4.104298167E-02 -2.676136545E-01
 7.780427039E-01 4.305494949E-02 -2.855886059E-01
 7.663114965E-01 4.493814521E-02 -3.176958677E-01
 7.540139556E-01 4.682166129E-02 -3.190813444E-01
 7.407187819E-01 4.880293645E-02 -3.350745400E-01
 7.286952734E-01 5.058751069E-02 -3.636261546E-01
 7.175654471E-01 5.217370763E-02 -3.753080670E-01
 7.058175802E-01 5.378532968E-02 -3.864297580E-01
 6.932388842E-01 5.546905845E-02 -4.043795907E-01
 6.802881658E-01 5.714746937E-02 -4.224598396E-01
 6.684553027E-01 5.862264894E-02 -4.384626519E-01
 6.570847034E-01 5.998523347E-02 -4.546522207E-01
 6.452803314E-01 6.134051830E-02 -4.666515273E-01
 6.335707009E-01 6.263091788E-02 -4.915966935E-01
 6.216971576E-01 6.385499239E-02 -4.936617801E-01
 6.104902923E-01 6.494678184E-02 -5.097186716E-01
 5.994434953E-01 6.597356126E-02 -5.219242350E-01
 5.878359973E-01 6.697618216E-02 -5.341061244E-01
 5.754190981E-01 6.796184182E-02 -5.385731322E-01
 5.625680387E-01 6.890444830E-02 -5.504115720E-01
 5.503418148E-01 6.971967965E-02 -5.564911787E-01
 5.387430489E-01 7.041891292E-02 -5.644360783E-01
 5.274326503E-01 7.103040069E-02 -5.724760862E-01
 5.156190097E-01 7.158267498E-02 -5.695287877E-01
 5.041134804E-01 7.205170393E-02 -5.749176017E-01
 4.921704531E-01 7.246421278E-02 -5.767049974E-01
 4.790323973E-01 7.282245904E-02 -5.681773992E-01
 4.658493847E-01 7.310977206E-02 -5.752482214E-01
 4.528427273E-01 7.330952585E-02 -5.705228099E-01
 4.401297718E-01 7.341778278E-02 -5.666210487E-01
 4.277553111E-01 7.346474752E-02 -5.715318290E-01
 4.154052883E-01 7.342885062E-02 -5.630991164E-01
 4.029510170E-01 7.332149521E-02 -5.629686788E-01
 3.906938285E-01 7.315210998E-02 -5.578407370E-01
 3.788450658E-01 7.292256504E-02 -5.592099792E-01
 3.665140271E-01 7.261264324E-02 -5.509316682E-01
 3.536628485E-01 7.221894711E-02 -5.493147173E-01
 3.407551050E-01 7.175501809E-02 -5.473356961E-01
 3.287999481E-01 7.125192881E-02 -5.439237407E-01
 3.171525300E-01 7.069126517E-02 -5.405918696E-01
 3.045659810E-01 7.001353055E-02 -5.351419666E-01
 2.914206088E-01 6.922069937E-02 -5.294108287E-01
 2.788164169E-01 6.838480011E-02 -5.264579993E-01
 2.671434581E-01 6.752996892E-02 -5.180960285E-01
 2.551973760E-01 6.658839434E-02 -5.166090888E-01
 2.429976538E-01 6.554678828E-02 -5.100715973E-01
 2.307879776E-01 6.441555172E-02 -5.044059549E-01
 2.186675966E-01 6.320856512E-02 -4.999750085E-01
 2.065696418E-01 6.190620176E-02 -4.909660058E-01
 1.943492293E-01 6.049389765E-02 -4.845981808E-01
 1.822876260E-01 5.899912491E-02 -4.750679147E-01
 1.704618633E-01 5.742861889E-02 -4.671161098E-01
 1.586617157E-01 5.575399660E-02 -4.551475072E-01
 1.472790763E-01 5.403253436E-02 -4.496782722E-01
 1.359207928E-01 5.219178088E-02 -4.355651532E-01
 1.245002821E-01 5.021313205E-02 -4.240468368E-01
 1.136391498E-01 4.820085131E-02 -4.106551222E-01
 1.032844298E-01 4.614745267E-02 -3.966352279E-01
 9.291627631E-02 4.394704476E-02 -3.811042963E-01
 8.200351521E-02 4.145466350E-02 -3.579398120E-01
 7.145213336E-02 3.885054402E-02 -3.408627071E-01
 7.186910138E-02 -3.784242272E-02 -2.454444500E-01
 9.185107052E-02 -4.227751866E-02 -2.811954599E-01
 1.026321761E-01 -4.439824261E-02 -2.915478100E-01
 1.138171591E-01 -4.643825442E-02 -3.061017914E-01
 1.252924800E-01 -4.837934114E-02 -3.174109785E-01
 1.364036053E-01 -5.013469420E-02 -3.309330913E-01
 1.472677588E-01 -5.173729919E-02 -3.398903724E-01
 1.588705853E-01 -5.333391204E-02 -3.525509722E-01
 1.706338674E-01 -5.484331958E-02 -3.622538180E-01
 1.823074818E-01 -5.623948388E-02 -3.750820485E-01
 1.935953125E-01 -5.749180168E-02 -3.862687637E-01
 2.046891898E-01 -5.863040686E-02 -3.929695275E-01
 2.164117917E-01 -5.974542908E-02 -4.044628567E-01
 2.285051495E-01 -6.079493463E-02 -4.161717305E-01
 2.404426858E-01 -6.173370779E-02 -4.257603678E-01
 2.522020489E-01 -6.255890429E-02 -4.365965042E-01
 2.635729462E-01 -6.325990334E-02 -4.416747885E-01
 2.751899362E-01 -6.388916448E-02 -4.485386240E-01
 2.871848792E-01 -6.444048509E-02 -4.615496966E-01
 2.994628549E-01 -6.488868594E-02 -4.631596619E-01
 3.118216842E-01 -6.523731351E-02 -4.744496642E-01
 3.241365105E-01 -6.545082107E-02 -4.771559261E-01
 3.359310776E-01 -6.553987414E-02 -4.773429305E-01
 3.471722901E-01 -6.552240252E-02 -4.742340946E-01
 3.584184945E-01 -6.540684029E-02 -4.753193549E-01
 3.694250435E-01 -6.519407034E-02 -4.706726500E-01
 3.810148537E-01 -6.485194340E-02 -4.661314251E-01
 3.938361704E-01 -6.434328854E-02 -4.511907292E-01
 4.069208503E-01 -6.369595602E-02 -4.473653073E-01
 4.194497168E-01 -6.292680651E-02 -4.281063305E-01
 4.318970889E-01 -6.203606166E-02 -4.084066074E-01
 4.441758841E-01 -6.104623526E-02 -3.888707642E-01
 4.561695457E-01 -5.997265503E-02 -3.695991692E-01
 4.682322294E-01 -5.878986605E-02 -3.449454242E-01
 4.804214090E-01 -5.749198981E-02 -3.202128805E-01
 4.928828180E-01 -5.608025193E-02 -2.889888932E-01
 5.061636269E-01 -5.450141616E-02 -2.671055801E-01
 5.194978416E-01 -5.282655172E-02 -2.396445185E-01
 5.322437584E-01 -5.115519650E-02 -2.108522003E-01
 5.447472930E-01 -4.945913516E-02 -1.852423445E-01
 5.578491688E-01 -4.763986915E-02 -1.576473984E-01
 5.711305439E-01 -4.575515538E-02 -1.352344866E-01
 5.840141177E-01 -4.389116727E-02 -1.089074942E-01
 5.970634818E-01 -4.197387770E-02 -8.741745663E-02
 6.108516753E-01 -3.992356919E-02 -6.053818536E-02
 6.250872612E-01 -3.779455088E-02 -3.829570010E-02
 6.394667029E-01 -3.563385829E-02 -1.420250225E-02
 6.531420350E-01 -3.357243724E-02 6.047181546E-03
 6.661123633E-01 -3.161460906E-02 2.763922257E-02
 6.788997948E-01 -2.969701216E-02 4.549973015E-02
 6.911175549E-01 -2.786848322E-02 6.244669345E-02
 7.044915259E-01 -2.588002291E-02 8.224642860E-02
 7.183615267E-01 -2.384436317E-02 1.005112444E-01
 7.308751941E-01 -2.202956937E-02 1.144144553E-01
 7.436643243E-01 -2.016508859E-02 1.324281147E-01
 7.568825185E-01 -1.827717666E-02 1.567229359E-01
 7.700563073E-01 -1.644038735E-02 1.661191586E-01
 7.829304934E-01 -1.465995237E-02 1.891861468E-01
 7.955745459E-01 -1.296358276E-02 2.043788271E-01
 8.077047169E-01 -1.139188092E-02 2.208469744E-01
 8.188318312E-01 -9.977903217E-03 2.313448382E-01
 8.309401870E-01 -8.485667873E-03 2.538349703E-01
 8.437782228E-01 -6.993973395E-03 2.688242446E-01
 8.562776744E-01 -5.623474717E-03 2.852794953E-01
 8.680594862E-01 -4.430015455E-03 2.992536527E-01
 8.790691793E-01 -3.391846782E-03 3.087375602E-01
 8.909952939E-01 -2.379806654E-03 3.234442636E-01
 9.025459886E-01 -1.509926864E-03 3.338065808E-01
 9.131433666E-01 -8.259782626E-04 3.424618352E-01
 9.237504601E-01 -2.575578446E-04 3.488740393E-01
 9.440885484E-01 5.055626680E-04 3.568114790E-01
 9.564475715E-01 7.595460920E-04 3.581322797E-01
 9.697733819E-01 8.709566027E-04 3.647359372E-01
 9.828114510E-01 8.188436041E-04 3.805575043E-01
 9.946036637E-01 6.321663386E-04 4.574436376E-01
 -5.000000000E-01 9.500000000E-01 -3.060683228E-04
 -5.000000000E-01 9.000000000E-01 1.671846175E-04
 -5.000000000E-01 8.500000000E-01 1.311475023E-03
 -5.000000000E-01 8.000000000E-01 3.202884104E-03
 -5.000000000E-01 7.500000000E-01 5.877358885E-03
 -5.000000000E-01 7.000000000E-01 9.425066443E-03
 -5.000000000E-01 6.500000000E-01 1.389336559E-02
 -5.000000000E-01 6.000000000E-01 1.931806094E-02
 -5.000000000E-01 5.500000000E-01 2.566793053E-02
 -5.000000000E-01 5.000000000E-01 3.299788084E-02
 -5.000000000E-01 4.500000000E-01 4.123660874E-02
 -5.000000000E-01 4.000000000E-01 5.014659966E-02
 -5.000000000E-01 3.500000000E-01 5.976853053E-02
 -5.000000000E-01 3.000000000E-01 6.979308934E-02
 -5.000000000E-01 2.500000000E-01 7.941382135E-02
 -5.000000000E-01 2.000000000E-01 8.903776201E-02
 -5.000000000E-01 1.500000000E-01 9.768312392E-02
 -5.000000000E-01 1.000000000E-01 1.049354254E-01
 -5.000000000E-01 5.000000000E-02 1.105609286E-01
 -5.000000000E-01 2.752242878E-12 1.139373473E-01
 -5.000000000E-01 -5.000000000E-02 1.152372859E-01
 -5.000000000E-01 -1.000000000E-01 1.143968202E-01
 -5.000000000E-01 -1.500000000E-01 1.115748170E-01
 -5.000000000E-01 -2.000000000E-01 1.070587457E-01
 -5.000000000E-01 -2.500000000E-01 1.014606520E-01
 -5.000000000E-01 -3.000000000E-01 9.487650452E-02
 -5.000000000E-01 -3.500000000E-01 8.797100558E-02
 -5.000000000E-01 -4.000000000E-01 8.091519632E-02
 -5.000000000E-01 -4.500000000E-01 7.400581807E-02
 -5.000000000E-01 -5.000000000E-01 6.724836980E-02
 -5.000000000E-01 -5.500000000E-01 6.105553954E-02
 -5.000000000E-01 -6.000000000E-01 5.521607064E-02
 -5.000000000E-01 -6.500000000E-01 4.985021229E-02
 -5.000000000E-01 -7.000000000E-01 4.488514888E-02
 -5.000000000E-01 -7.500000000E-01 4.031330948E-02
 -5.000000000E-01 -8.000000000E-01 3.594728818E-02
 -5.000000000E-01 -8.500000000E-01 3.166116715E-02
 -5.000000000E-01 -9.000000000E-01 2.682510424E-02
 -5.000000000E-01 -9.500000000E-01 2.000761236E-02
 -4.500000000E-01 -1.000000000E+00 1.819761044E-02
 -4.000000000E-01 -1.000000000E+00 2.359569546E-02
 -3.500000000E-01 -1.000000000E+00 2.603403720E-02
 -3.000000000E-01 -1.000000000E+00 2.710356360E-02
 -2.500000000E-01 -1.000000000E+00 2.739310107E-02
 -2.000000000E-01 -1.000000000E+00 2.661980583E-02
 -1.500000000E-01 -1.000000000E+00 2.534839715E-02
 -1.000000000E-01 -1.000000000E+00 2.306689284E-02
 -5.000000000E-02 -1.000000000E+00 2.033517593E-02
 -9.424683256E-13 -1.000000000E+00 1.699141200E-02
 5.000000000E-02 -1.000000000E+00 1.334488778E-02
 1.000000000E-01 -1.000000000E+00 9.470847584E-03
 1.500000000E-01 -1.000000000E+00 5.480908094E-03
 2.000000000E-01 -1.000000000E+00 1.632989356E-03
 2.500000000E-01 -1.000000000E+00 -1.905798470E-03
 3.000000000E-01 -1.000000000E+00 -4.874582471E-03
 3.500000000E-01 -1.000000000E+00 -7.346344507E-03
 4.000000000E-01 -1.000000000E+00 -9.062695936E-03
 4.500000000E-01 -1.000000000E+00 -1.000997063E-02
 5.000000000E-01 -1.000000000E+00 -1.006830253E-02
 5.500000000E-01 -1.000000000E+00 -9.273340105E-03
 6.000000000E-01 -1.000000000E+00 -7.767688839E-03
 6.500000000E-01 -1.000000000E+00 -5.415976170E-03
 7.000000000E-01 -1.000000000E+00 -2.624072757E-03
 7.500000000E-01 -1.000000000E+00 6.087164882E-04
 8.000000000E-01 -1.000000000E+00 4.282442422E-03
 8.500000000E-01 -1.000000000E+00 8.006453026E-03
 9.000000000E-01 -1.000000000E+00 1.192216588E-02
 9.500000000E-01 -1.000000000E+00 1.568075771E-02
 1.000000000E+00 -1.000000000E+00 1.917548882E-02
 1.050000000E+00 -1.000000000E+00 2.242234624E-02
 1.100000000E+00 -1.000000000E+00 2.535270159E-02
 1.150000000E+00 -1.000000000E+00 2.792580724E-02
 1.200000000E+00 -1.000000000E+00 3.007811570E-02
 1.250000000E+00 -1.000000000E+00 3.188200060E-02
 1.300000000E+00 -1.000000000E+00 3.330021851E-02
 1.350000000E+00 -1.000000000E+00 3.429998331E-02
 1.400000000E+00 -1.000000000E+00 3.505140705E-02
 1.450000000E+00 -1.000000000E+00 3.546377818E-02
 1.500000000E+00 -1.000000000E+00 3.566410707E-02
 1.550000000E+00 -1.000000000E+00 3.561852050E-02
 1.600000000E+00 -1.000000000E+00 3.541626528E-02
 1.650000000E+00 -1.000000000E+00 3.503645951E-02
 1.700000000E+00 -1.000000000E+00 3.464591183E-02
 1.750000000E+00 -1.000000000E+00 3.396060846E-02
 1.800000000E+00 -1.000000000E+00 3.339445041E-02
 1.850000000E+00 -1.000000000E+00 3.258480756E-02
 1.900000000E+00 -1.000000000E+00 3.184337702E-02
 1.950000000E+00 -1.000000000E+00 3.111892656E-02
 2.000000000E+00 -1.000000000E+00 3.035569281E-02
 2.050000000E+00 -1.000000000E+00 2.958052139E-02
 2.100000000E+00 -1.000000000E+00 2.884921658E-02
 2.150000000E+00 -1.000000000E+00 2.810457075E-02
 2.200000000E+00 -1.000000000E+00 2.741850549E-02
 2.250000000E+00 -1.000000000E+00 2.674045750E-02
 2.300000000E+00 -1.000000000E+00 2.609188180E-02
 2.350000000E+00 -1.000000000E+00 2.548969786E-02
 2.400000000E+00 -1.000000000E+00 2.492174960E-02
 2.450000000E+00 -1.000000000E+00 2.442161919E-02
 2.500000000E+00 -1.000000000E+00 2.390190359E-02
 2.550000000E+00 -1.000000000E+00 2.350721087E-02
 2.600000000E+00 -1.000000000E+00 2.304461095E-02
 2.650000000E+00 -1.000000000E+00 2.271657192E-02
 2.700000000E+00 -1.000000000E+00 2.236412403E-02
 2.750000000E+00 -1.000000000E+00 2.203134116E-02
 2.800000000E+00 -1.000000000E+00 2.177069213E-02
 2.850000000E+00 -1.000000000E+00 2.144783653E-02
 2.900000000E+00 -1.000000000E+00 2.123371979E-02
 2.950000000E+00 -1.000000000E+00 2.093166506E-02
 3.000000000E+00 -1.000000000E+00 2.070003393E-02
 3.050000000E+00 -1.000000000E+00 2.042237614E-02
 3.100000000E+00 -1.000000000E+00 2.011670114E-02
 3.150000000E+00 -1.000000000E+00 1.973849809E-02
 3.200000000E+00 -1.000000000E+00 1.924523883E-02
 3.250000000E+00 -1.000000000E+00 1.865605318E-02
 3.300000000E+00 -1.000000000E+00 1.779377150E-02
 3.350000000E+00 -1.000000000E+00 1.665958804E-02
 3.400000000E+00 -1.000000000E+00 1.485614413E-02
 3.450000000E+00 -1.000000000E+00 1.194971310E-02
 3.500000000E+00 -9.500000000E-01 7.868422907E-03
 3.500000000E+00 -9.000000000E-01 9.543670546E-03
 3.500000000E+00 -8.500000000E-01 1.092184359E-02
 3.500000000E+00 -8.000000000E-01 1.261573063E-02
 3.500000000E+00 -7.500000000E-01 1.414797066E-02
 3.500000000E+00 -7.000000000E-01 1.583232227E-02
 3.500000000E+00 -6.500000000E-01 1.753112103E-02
 3.500000000E+00 -6.000000000E-01 1.944002453E-02
 3.500000000E+00 -5.500000000E-01 2.147355494E-02
 3.500000000E+00 -5.000000000E-01 2.365608285E-02
 3.500000000E+00 -4.500000000E-01 2.594177312E-02
 3.500000000E+00 -4.000000000E-01 2.842133039E-02
 3.500000000E+00 -3.500000000E-01 3.094965107E-02
 3.500000000E+00 -3.000000000E-01 3.328608783E-02
 3.500000000E+00 -2.500000000E-01 3.520788214E-02
 3.500000000E+00 -2.000000000E-01 3.610976553E-02
 3.500000000E+00 -1.500000000E-01 3.603153714E-02
 3.500000000E+00 -1.000000000E-01 3.533395241E-02
 3.500000000E+00 -5.000000000E-02 3.444235052E-02
 3.500000000E+00 -2.752242878E-12 3.368651647E-02
 3.500000000E+00 5.000000000E-02 3.306022021E-02
 3.500000000E+00 1.000000000E-01 3.211554849E-02
 3.500000000E+00 1.500000000E-01 3.016917905E-02
 3.500000000E+00 2.000000000E-01 2.737284205E-02
 3.500000000E+00 2.500000000E-01 2.400543837E-02
 3.500000000E+00 3.000000000E-01 2.051601879E-02
 3.500000000E+00 3.500000000E-01 1.724319950E-02
 3.500000000E+00 4.000000000E-01 1.410191208E-02
 3.500000000E+00 4.500000000E-01 1.126372338E-02
 3.500000000E+00 5.000000000E-01 8.590238781E-03
 3.500000000E+00 5.500000000E-01 6.518523771E-03
 3.500000000E+00 6.000000000E-01 5.127734411E-03
 3.500000000E+00 6.500000000E-01 4.539898288E-03
 3.500000000E+00 7.000000000E-01 4.323385769E-03
 3.500000000E+00 7.500000000E-01 3.679054426E-03
 3.500000000E+00 8.000000000E-01 5.020668729E-04
 3.500000000E+00 8.500000000E-01 -5.856432708E-03
 3.500000000E+00 9.000000000E-01 -1.420860568E-02
 3.500000000E+00 9.500000000E-01 -2.579050781E-02
 3.450000000E+00 1.000000000E+00 -1.569790404E-02
 3.400000000E+00 1.000000000E+00 -6.951637489E-03
 3.350000000E+00 1.000000000E+00 -2.563431270E-03
 3.300000000E+00 1.000000000E+00 -5.102147503E-04
 3.250000000E+00 1.000000000E+00 6.348843965E-04
 3.200000000E+00 1.000000000E+00 1.516528615E-03
 3.150000000E+00 1.000000000E+00 1.574796148E-03
 3.100000000E+00 1.000000000E+00 1.559817930E-03
 3.050000000E+00 1.000000000E+00 1.289050477E-03
 3.000000000E+00 1.000000000E+00 1.109180407E-03
 2.950000000E+00 1.000000000E+00 5.370627622E-04
 2.900000000E+00 1.000000000E+00 2.392911864E-04
 2.850000000E+00 1.000000000E+00 -7.417001506E-04
 2.800000000E+00 1.000000000E+00 -1.334757908E-03
 2.750000000E+00 1.000000000E+00 -2.224968227E-03
 2.700000000E+00 1.000000000E+00 -2.942914564E-03
 2.650000000E+00 1.000000000E+00 -4.090682598E-03
 2.600000000E+00 1.000000000E+00 -4.821251487E-03
 2.550000000E+00 1.000000000E+00 -6.257134706E-03
 2.500000000E+00 1.000000000E+00 -7.422920505E-03
 2.450000000E+00 1.000000000E+00 -8.729588381E-03
 2.400000000E+00 1.000000000E+00 -1.016359397E-02
 2.350000000E+00 1.000000000E+00 -1.137643416E-02
 2.300000000E+00 1.000000000E+00 -1.304346201E-02
 2.250000000E+00 1.000000000E+00 -1.471004732E-02
 2.200000000E+00 1.000000000E+00 -1.640830087E-02
 2.150000000E+00 1.000000000E+00 -1.835038049E-02
 2.100000000E+00 1.000000000E+00 -2.041924652E-02
 2.050000000E+00 1.000000000E+00 -2.253280346E-02
 2.000000000E+00 1.000000000E+00 -2.490029876E-02
 1.950000000E+00 1.000000000E+00 -2.736449297E-02
 1.900000000E+00 1.000000000E+00 -2.998095842E-02
 1.850000000E+00 1.000000000E+00 -3.284047293E-02
 1.800000000E+00 1.000000000E+00 -3.601602093E-02
 1.750000000E+00 1.000000000E+00 -3.920541843E-02
 1.700000000E+00 1.000000000E+00 -4.302019161E-02
 1.650000000E+00 1.000000000E+00 -4.676236140E-02
 1.600000000E+00 1.000000000E+00 -5.081234527E-02
 1.550000000E+00 1.000000000E+00 -5.515597628E-02
 1.500000000E+00 1.000000000E+00 -5.981789006E-02
 1.450000000E+00 1.000000000E+00 -6.483410840E-02
 1.400000000E+00 1.000000000E+00 -7.022807194E-02
 1.350000000E+00 1.000000000E+00 -7.567804319E-02
 1.300000000E+00 1.000000000E+00 -8.173504664E-02
 1.250000000E+00 1.000000000E+00 -8.782500830E-02
 1.200000000E+00 1.000000000E+00 -9.361607997E-02
 1.150000000E+00 1.000000000E+00 -9.941781378E-02
 1.100000000E+00 1.000000000E+00 -1.058492466E-01
 1.050000000E+00 1.000000000E+00 -1.114344020E-01
 1.000000000E+00 1.000000000E+00 -1.175952121E-01
 9.500000000E-01 1.000000000E+00 -1.215051809E-01
 9.000000000E-01 1.000000000E+00 -1.267414992E-01
 8.500000000E-01 1.000000000E+00 -1.301406968E-01
 8.000000000E-01 1.000000000E+00 -1.322531951E-01
 7.500000000E-01 1.000000000E+00 -1.341248318E-01
 7.000000000E-01 1.000000000E+00 -1.341019613E-01
 6.500000000E-01 1.000000000E+00 -1.326382315E-01
 6.000000000E-01 1.000000000E+00 -1.309066504E-01
 5.500000000E-01 1.000000000E+00 -1.268912562E-01
 5.000000000E-01 1.000000000E+00 -1.221459251E-01
 4.500000000E-01 1.000000000E+00 -1.160137613E-01
 4.000000000E-01 1.000000000E+00 -1.093282114E-01
 3.500000000E-01 1.000000000E+00 -1.006578185E-01
 3.000000000E-01 1.000000000E+00 -9.267330044E-02
 2.500000000E-01 1.000000000E+00 -8.271550420E-02
 2.000000000E-01 1.000000000E+00 -7.421164570E-02
 1.500000000E-01 1.000000000E+00 -6.451203062E-02
 1.000000000E-01 1.000000000E+00 -5.553819263E-02
 5.000000000E-02 1.000000000E+00 -4.694672077E-02
 1.733724275E-12 1.000000000E+00 -3.850757720E-02
 -5.000000000E-02 1.000000000E+00 -3.087833097E-02
 -1.000000000E-01 1.000000000E+00 -2.396747000E-02
 -1.500000000E-01 1.000000000E+00 -1.795550984E-02
 -2.000000000E-01 1.000000000E+00 -1.284166021E-02
 -2.500000000E-01 1.000000000E+00 -8.684807488E-03
 -3.000000000E-01 1.000000000E+00 -5.452046195E-03
 -3.500000000E-01 1.000000000E+00 -3.080608845E-03
 -4.000000000E-01 1.000000000E+00 -1.516417231E-03
 -4.500000000E-01 1.000000000E+00 -6.205438866E-04
 9.108473000E-01 -5.516772689E-03 3.340243997E-01
 8.348698040E-01 -1.365398287E-02 2.523290594E-01
 7.608295843E-01 -2.335244674E-02 1.535088423E-01
 6.877994022E-01 -3.323040843E-02 5.627886427E-02
 9.857629059E-01 -4.254703805E-03 3.835243926E-01
 6.224897406E-01 -4.440884933E-02 -4.291708443E-02
 5.552075553E-01 -5.379207809E-02 -1.612697154E-01
 4.891680210E-01 -6.143396657E-02 -2.929265267E-01
 4.282281520E-01 -6.698414517E-02 -4.047369981E-01
 3.731556598E-01 -6.966626864E-02 -4.604718640E-01