TITLE     = "Visualization of the solution"
VARIABLES = "x"
"y"
"Pressure_Coefficient"
ZONE T="Zone"
 STRANDID=0, SOLUTIONTIME=0
 Nodes=12200, Elements=23817, ZONETYPE=FEQuadrilateral
 DATAPACKING=POINT
 DT=(DOUBLE DOUBLE DOUBLE )
 1.000059247E+00 5.180489388E-04 3.040921586E-01
 9.891852140E-01 2.881885739E-03 2.664320218E-01
 9.769437909E-01 5.528221838E-03 1.838584386E-01
 9.603733420E-01 9.176323190E-03 1.040613770E-01
 9.456702471E-01 1.234903280E-02 5.846361164E-02
 9.311435223E-01 1.551454049E-02 7.178140923E-03
 9.197586775E-01 1.794871874E-02 -2.407833935E-02
 9.091041088E-01 2.022707462E-02 -5.611171252E-02
 8.979388475E-01 2.260368690E-02 -1.041775132E-01
 8.867443800E-01 2.484792098E-02 -1.221235566E-01
 8.750415444E-01 2.714413218E-02 -1.401937018E-01
 8.627659678E-01 2.953063138E-02 -1.770311413E-01
 8.505042791E-01 3.177970275E-02 -1.877628987E-01
 8.399424553E-01 3.370149806E-02 -2.093964539E-01
 8.281246424E-01 3.577425331E-02 -2.227827823E-01
 8.156954050E-01 3.790845722E-02 -2.386332551E-01
 8.030544519E-01 4.003622383E-02 -2.581564991E-01
 7.898949981E-01 4.218869284E-02 -2.733548201E-01
 7.774112821E-01 4.420296848E-02 -2.982050109E-01
 7.654678822E-01 4.604626819E-02 -3.081717448E-01
 7.517385483E-01 4.812162369E-02 -3.223242848E-01
 7.380325198E-01 5.016522482E-02 -3.503853598E-01
 7.269508243E-01 5.174348131E-02 -3.618137600E-01
 7.154164314E-01 5.334744602E-02 -3.773542638E-01
 7.032209039E-01 5.498546362E-02 -3.921706553E-01
 6.895897388E-01 5.674796924E-02 -4.071477318E-01
 6.765880585E-01 5.837507173E-02 -4.270644710E-01
 6.657512188E-01 5.967325717E-02 -4.387195263E-01
 6.537557244E-01 6.106408313E-02 -4.581103188E-01
 6.413883567E-01 6.241041422E-02 -4.696119956E-01
 6.293033957E-01 6.365991384E-02 -4.800104677E-01
 6.172630191E-01 6.485249102E-02 -4.965649474E-01
 6.065405011E-01 6.585416943E-02 -5.120360647E-01
 5.941430926E-01 6.690704077E-02 -5.123421689E-01
 5.827234387E-01 6.784001738E-02 -5.270684523E-01
 5.694233775E-01 6.882986426E-02 -5.392049117E-01
 5.572510958E-01 6.963856518E-02 -5.418023645E-01
 5.453918576E-01 7.036427408E-02 -5.502935102E-01
 5.345152617E-01 7.096151263E-02 -5.556552986E-01
 5.230257511E-01 7.151857764E-02 -5.575584595E-01
 5.111972094E-01 7.202330232E-02 -5.625537890E-01
 5.000485778E-01 7.242331654E-02 -5.621581591E-01
 4.870989025E-01 7.280329615E-02 -5.593186843E-01
 4.737573862E-01 7.311438769E-02 -5.579420664E-01
 4.607743025E-01 7.335038483E-02 -5.636579636E-01
 4.481345713E-01 7.347773015E-02 -5.595763261E-01
 4.359201491E-01 7.352333516E-02 -5.495641715E-01
 4.238823950E-01 7.353641093E-02 -5.574416516E-01
 4.117961228E-01 7.345303148E-02 -5.506588246E-01
 3.996350765E-01 7.330465317E-02 -5.432496638E-01
 3.876338601E-01 7.311658561E-02 -5.475687816E-01
 3.756149411E-01 7.284369320E-02 -5.421513501E-01
 3.629328609E-01 7.248187810E-02 -5.338464481E-01
 3.502248824E-01 7.207082957E-02 -5.346792518E-01
 3.371761739E-01 7.156718522E-02 -5.368632032E-01
 3.259760141E-01 7.104257494E-02 -5.205474156E-01
 3.134314418E-01 7.043401152E-02 -5.280892469E-01
 3.004351556E-01 6.968086958E-02 -5.155270181E-01
 2.868323922E-01 6.882770360E-02 -5.118718566E-01
 2.750462294E-01 6.802007556E-02 -5.112454931E-01
 2.634239197E-01 6.713957340E-02 -5.020625900E-01
 2.510557771E-01 6.613814831E-02 -5.005983237E-01
 2.389117628E-01 6.506057829E-02 -4.926195326E-01
 2.265208662E-01 6.387691945E-02 -4.865889945E-01
 2.143967599E-01 6.262864172E-02 -4.788690873E-01
 2.018839717E-01 6.124723330E-02 -4.728802607E-01
 1.893167943E-01 5.974996462E-02 -4.649432888E-01
 1.773324311E-01 5.821229517E-02 -4.529869771E-01
 1.655918956E-01 5.661144108E-02 -4.445579792E-01
 1.535189152E-01 5.484647304E-02 -4.340831358E-01
 1.424018890E-01 5.311237648E-02 -4.213320906E-01
 1.302973628E-01 5.110502616E-02 -4.134396481E-01
 1.189966127E-01 4.907938465E-02 -3.978623862E-01
 1.081801802E-01 4.700497538E-02 -3.817615947E-01
 9.777226299E-02 4.487119615E-02 -3.626879697E-01
 8.677556366E-02 4.245916009E-02 -3.457190281E-01
 7.536526024E-02 3.973076493E-02 -3.193006382E-01
 6.536580622E-02 3.714439273E-02 -2.934747856E-01
 5.549579859E-02 3.436632454E-02 -2.603657920E-01
 4.700014368E-02 3.175354749E-02 -2.252140854E-01
 3.967582434E-02 2.930610999E-02 -1.898663095E-01
 3.304399550E-02 2.688940242E-02 -1.495999077E-01
 2.740175463E-02 2.465449646E-02 -1.141287751E-01
 2.327935398E-02 2.287646383E-02 -7.330594717E-02
 1.930564828E-02 2.103675343E-02 -3.285793677E-02
 1.588805951E-02 1.930949464E-02 2.318038267E-02
 1.274304464E-02 1.757285744E-02 7.302321308E-02
 1.043713372E-02 1.618424803E-02 1.238610196E-01
 8.463584818E-03 1.488850173E-02 1.643295753E-01
 6.653747987E-03 1.359452028E-02 2.441962135E-01
 4.302185960E-03 1.168045867E-02 3.672980247E-01
 2.313083736E-03 9.737938643E-03 4.543732367E-01
 7.378328010E-04 7.802030072E-03 7.090998114E-01
 -8.328041877E-04 4.905111156E-03 9.708041168E-01
 -1.372809522E-03 2.808920108E-03 1.090393640E+00
 -1.439352753E-03 1.123844646E-03 1.119659225E+00
 -1.178257866E-03 -5.711290869E-04 1.065369851E+00
 -6.556995213E-04 -2.115906682E-03 9.547347479E-01
 3.775930381E-04 -4.048774485E-03 7.921245485E-01
 1.839375705E-03 -5.992278922E-03 6.134714682E-01
 3.769213334E-03 -7.980165072E-03 4.659851440E-01
 5.546478555E-03 -9.499275126E-03 3.375001320E-01
 7.573622279E-03 -1.100339182E-02 2.558930330E-01
 9.303975850E-03 -1.215413865E-02 1.787231582E-01
 1.146506052E-02 -1.345853135E-02 1.335778562E-01
 1.382238604E-02 -1.475875173E-02 7.610988907E-02
 1.717943326E-02 -1.643164270E-02 3.059501755E-02
 2.009875700E-02 -1.775722578E-02 -2.309159720E-02
 2.382749505E-02 -1.930728741E-02 -5.152830912E-02
 2.906795219E-02 -2.128382400E-02 -8.569196007E-02
 3.472997621E-02 -2.321391180E-02 -1.240463976E-01
 4.144674540E-02 -2.527192980E-02 -1.466985008E-01
 4.919662699E-02 -2.743775025E-02 -1.675291221E-01
 5.832176283E-02 -2.973698266E-02 -1.870186501E-01
 6.724692881E-02 -3.179119527E-02 -2.073293688E-01
 7.743436098E-02 -3.395476937E-02 -2.199006418E-01
 8.772118390E-02 -3.596141934E-02 -2.311988977E-01
 9.815396369E-02 -3.785869479E-02 -2.443094963E-01
 1.096802205E-01 -3.980020061E-02 -2.525519223E-01
 1.210406125E-01 -4.159273952E-02 -2.648198575E-01
 1.330543309E-01 -4.336438328E-02 -2.750330820E-01
 1.441252679E-01 -4.489714652E-02 -2.862594451E-01
 1.557349563E-01 -4.640763998E-02 -2.959464078E-01
 1.682740152E-01 -4.794358090E-02 -3.093008695E-01
 1.801052094E-01 -4.928889498E-02 -3.180357967E-01
 1.922251135E-01 -5.058395118E-02 -3.304678124E-01
 2.033862770E-01 -5.169160292E-02 -3.399537865E-01
 2.150825858E-01 -5.277918652E-02 -3.526217235E-01
 2.275770903E-01 -5.383685976E-02 -3.588537124E-01
 2.401291430E-01 -5.482347682E-02 -3.737566598E-01
 2.523822188E-01 -5.568846688E-02 -3.843348051E-01
 2.642913759E-01 -5.643659085E-02 -3.941295891E-01
 2.754957378E-01 -5.705744028E-02 -4.038212809E-01
 2.876473665E-01 -5.763115734E-02 -4.097083014E-01
 2.997660339E-01 -5.810872093E-02 -4.167976910E-01
 3.124360144E-01 -5.851622298E-02 -4.294126863E-01
 3.242250681E-01 -5.876794830E-02 -4.300075361E-01
 3.369224072E-01 -5.894398317E-02 -4.383633509E-01
 3.479123414E-01 -5.898170918E-02 -4.386404296E-01
 3.594030440E-01 -5.891870707E-02 -4.363644618E-01
 3.702362180E-01 -5.877566710E-02 -4.391678478E-01
 3.811964393E-01 -5.852020904E-02 -4.333822308E-01
 3.929590881E-01 -5.814150721E-02 -4.280574824E-01
 4.063130915E-01 -5.756217241E-02 -4.139919175E-01
 4.190505147E-01 -5.688373744E-02 -4.042812422E-01
 4.314499795E-01 -5.608211830E-02 -3.852679069E-01
 4.435980618E-01 -5.517360196E-02 -3.610413578E-01
 4.551850855E-01 -5.425832793E-02 -3.582551208E-01
 4.664556682E-01 -5.321453139E-02 -3.242468263E-01
 4.784986079E-01 -5.204492807E-02 -3.078354853E-01
 4.901461601E-01 -5.081781745E-02 -2.828964272E-01
 5.029745102E-01 -4.937906191E-02 -2.552810525E-01
 5.165359974E-01 -4.777019843E-02 -2.254801546E-01
 5.293392539E-01 -4.618712142E-02 -1.982313584E-01
 5.422979593E-01 -4.454286769E-02 -1.750767141E-01
 5.546597838E-01 -4.293669015E-02 -1.554991935E-01
 5.682929158E-01 -4.108000547E-02 -1.221577719E-01
 5.811345577E-01 -3.931520879E-02 -9.754915017E-02
 5.935997963E-01 -3.761236742E-02 -8.301941139E-02
 6.064412594E-01 -3.580435738E-02 -5.596433999E-02
 6.214503050E-01 -3.370093554E-02 -3.609404916E-02
 6.358236670E-01 -3.164722025E-02 -8.608281437E-03
 6.513359547E-01 -2.944746614E-02 1.285951321E-02
 6.639361978E-01 -2.767196298E-02 2.921369627E-02
 6.770449281E-01 -2.580659091E-02 5.218012730E-02
 6.894673109E-01 -2.407677285E-02 6.680988425E-02
 7.019247413E-01 -2.235036530E-02 8.380872353E-02
 7.161691189E-01 -2.040216699E-02 1.004790692E-01
 7.294000387E-01 -1.861438714E-02 1.154259755E-01
 7.412788272E-01 -1.698897593E-02 1.402572345E-01
 7.554699183E-01 -1.513446309E-02 1.538618343E-01
 7.676694393E-01 -1.359181851E-02 1.656428362E-01
 7.813872695E-01 -1.188133564E-02 1.818029030E-01
 7.932759523E-01 -1.043134928E-02 1.966763029E-01
 8.060238361E-01 -8.903881535E-03 2.162859919E-01
 8.169628382E-01 -7.667669561E-03 2.263364041E-01
 8.283226490E-01 -6.403695326E-03 2.465339329E-01
 8.417527676E-01 -5.034808535E-03 2.558091639E-01
 8.543613553E-01 -3.824229818E-03 2.700345035E-01
 8.666312099E-01 -2.725201426E-03 2.847804852E-01
 8.776541948E-01 -1.835489646E-03 2.954123643E-01
 8.885194659E-01 -1.034638961E-03 3.090375937E-01
 9.016810060E-01 -2.483238641E-04 3.106548146E-01
 9.116525054E-01 2.726619132E-04 3.205904266E-01
 9.228298664E-01 7.149551529E-04 3.219988287E-01
 9.326323867E-01 1.011186978E-03 3.248082364E-01
 9.414634705E-01 1.195209450E-03 3.279989105E-01
 9.526885152E-01 1.318549155E-03 3.261873711E-01
 9.643296599E-01 1.320718904E-03 3.254944982E-01
 9.772769809E-01 1.179291983E-03 3.271684200E-01
 9.883778095E-01 9.218637133E-04 3.412136905E-01
 -5.000000000E-01 -1.000000000E+00 1.426171812E-02
 3.500000000E+00 -1.000000000E+00 8.560212745E-03
 3.500000000E+00 1.000000000E+00 -2.505498190E-02
 -5.000000000E-01 1.000000000E+00 -5.767371516E-04
 9.946222305E-01 1.699967339E-03 3.897799502E-01
 9.830645025E-01 4.205053789E-03 2.240076707E-01
 9.686585665E-01 7.352272514E-03 1.390099577E-01
 9.530217946E-01 1.076267799E-02 8.165044651E-02
 9.384068847E-01 1.393178664E-02 3.028968830E-02
 9.254510999E-01 1.673162961E-02 -7.811956885E-03
 9.144313931E-01 1.908789668E-02 -3.997468845E-02
 9.035214782E-01 2.141538076E-02 -8.488849156E-02
 8.923416138E-01 2.372580394E-02 -1.118433242E-01
 8.808929622E-01 2.599602658E-02 -1.297007322E-01
 8.689037561E-01 2.833738178E-02 -1.628991652E-01
 8.566351235E-01 3.065516707E-02 -1.798684021E-01
 8.452233672E-01 3.274060041E-02 -2.004069288E-01
 8.340335488E-01 3.473787569E-02 -2.156998242E-01
 8.219100237E-01 3.684135526E-02 -2.303313239E-01
 8.093749285E-01 3.897234052E-02 -2.489978078E-01
 7.964747250E-01 4.111245833E-02 -2.644924218E-01
 7.836531401E-01 4.319583066E-02 -2.875936712E-01
 7.714395821E-01 4.512461834E-02 -3.023546455E-01
 7.586032152E-01 4.708394594E-02 -3.138355469E-01
 7.448855340E-01 4.914342426E-02 -3.374081251E-01
 7.324916720E-01 5.095435306E-02 -3.555974389E-01
 7.211836278E-01 5.254546367E-02 -3.699134664E-01
 7.093186677E-01 5.416645482E-02 -3.854746433E-01
 6.964053214E-01 5.586671643E-02 -3.990415655E-01
 6.830888987E-01 5.756152049E-02 -4.168326458E-01
 6.711696386E-01 5.902416445E-02 -4.325307422E-01
 6.597534716E-01 6.036867015E-02 -4.500313499E-01
 6.475720406E-01 6.173724867E-02 -4.635939066E-01
 6.353458762E-01 6.303516403E-02 -4.738344977E-01
 6.232832074E-01 6.425620243E-02 -4.876359465E-01
 6.119017601E-01 6.535333022E-02 -5.082220273E-01
 6.003417969E-01 6.638060510E-02 -5.091562825E-01
 5.884332657E-01 6.737352908E-02 -5.224607659E-01
 5.760734081E-01 6.833494082E-02 -5.338022868E-01
 5.633372366E-01 6.923421472E-02 -5.395721333E-01
 5.513214767E-01 7.000141963E-02 -5.455778008E-01
 5.399535596E-01 7.066289335E-02 -5.537048394E-01
 5.287705064E-01 7.124004513E-02 -5.564337692E-01
 5.171114802E-01 7.177093998E-02 -5.603703245E-01
 5.056228936E-01 7.222330943E-02 -5.637880506E-01
 4.935737401E-01 7.261330634E-02 -5.608333320E-01
 4.804281443E-01 7.295884192E-02 -5.575393733E-01
 4.672658443E-01 7.323238626E-02 -5.623201354E-01
 4.544544369E-01 7.341405749E-02 -5.614877654E-01
 4.420273602E-01 7.350053266E-02 -5.517454484E-01
 4.299012721E-01 7.352987304E-02 -5.559215022E-01
 4.178392589E-01 7.349472120E-02 -5.537353631E-01
 4.057155997E-01 7.337884232E-02 -5.450918640E-01
 3.936344683E-01 7.321061939E-02 -5.470402807E-01
 3.816244006E-01 7.298013940E-02 -5.454548600E-01
 3.692739010E-01 7.266278565E-02 -5.364291773E-01
 3.565788716E-01 7.227635384E-02 -5.353263064E-01
 3.437005281E-01 7.181900740E-02 -5.364598941E-01
 3.315760940E-01 7.130488008E-02 -5.254998656E-01
 3.197037280E-01 7.073829323E-02 -5.281037487E-01
 3.069332987E-01 7.005744055E-02 -5.208117593E-01
 2.936337739E-01 6.925428659E-02 -5.123316594E-01
 2.809393108E-01 6.842388958E-02 -5.126666250E-01
 2.692350745E-01 6.757982448E-02 -5.059013170E-01
 2.572398484E-01 6.663886085E-02 -5.022731826E-01
 2.449837700E-01 6.559936330E-02 -4.965831911E-01
 2.327163145E-01 6.446874887E-02 -4.895576570E-01
 2.204588130E-01 6.325278059E-02 -4.831988982E-01
 2.081403658E-01 6.193793751E-02 -4.768262950E-01
 1.956003830E-01 6.049859896E-02 -4.687970376E-01
 1.833246127E-01 5.898112990E-02 -4.583229625E-01
 1.714621633E-01 5.741186813E-02 -4.499072036E-01
 1.595554054E-01 5.572895706E-02 -4.385750049E-01
 1.479604021E-01 5.397942476E-02 -4.286818322E-01
 1.363496259E-01 5.210870132E-02 -4.181364896E-01
 1.246469878E-01 5.009220541E-02 -4.055326951E-01
 1.135883965E-01 4.804218002E-02 -3.896511514E-01
 1.029762216E-01 4.593808576E-02 -3.735326240E-01
 9.227391332E-02 4.366517812E-02 -3.583731324E-01
 8.107041195E-02 4.109496251E-02 -3.303879367E-01
 7.036553323E-02 3.843757883E-02 -3.080154382E-01
 6.043080240E-02 3.575535864E-02 -2.835625884E-01
 7.234064490E-02 -3.287298232E-02 -2.148166287E-01
 8.257777244E-02 -3.495809436E-02 -2.274982373E-01
 9.293757379E-02 -3.691005707E-02 -2.378272341E-01
 1.039170921E-01 -3.882944770E-02 -2.481489771E-01
 1.153604165E-01 -4.069647007E-02 -2.593457433E-01
 1.270474717E-01 -4.247856140E-02 -2.699648402E-01
 1.385897994E-01 -4.413076490E-02 -2.818999542E-01
 1.499301121E-01 -4.565239325E-02 -2.908308112E-01
 1.620044857E-01 -4.717561044E-02 -3.015541690E-01
 1.741896123E-01 -4.861623794E-02 -3.149752144E-01
 1.861651614E-01 -4.993642308E-02 -3.239801133E-01
 1.978056952E-01 -5.113777705E-02 -3.362461048E-01
 2.092344314E-01 -5.223539472E-02 -3.451088449E-01
 2.213298380E-01 -5.330802314E-02 -3.560119498E-01
 2.338531166E-01 -5.433016829E-02 -3.653058486E-01
 2.462556809E-01 -5.525597185E-02 -3.795328810E-01
 2.583367974E-01 -5.606252886E-02 -3.898639563E-01
 2.698935568E-01 -5.674701557E-02 -3.996118802E-01
 2.815715522E-01 -5.734429881E-02 -4.063818130E-01
 2.937067002E-01 -5.786993913E-02 -4.131591142E-01
 3.061010242E-01 -5.831247196E-02 -4.212922285E-01
 3.183305413E-01 -5.864208564E-02 -4.323824622E-01
 3.305737376E-01 -5.885596573E-02 -4.317950059E-01
 3.424173743E-01 -5.896284617E-02 -4.415207430E-01
 3.536576927E-01 -5.895020813E-02 -4.371031173E-01
 3.648196310E-01 -5.884718709E-02 -4.374303359E-01
 3.757163286E-01 -5.864793807E-02 -4.371518911E-01
 3.870777637E-01 -5.833085813E-02 -4.297412019E-01
 3.996360898E-01 -5.785183981E-02 -4.204712731E-01
 4.126818031E-01 -5.722295493E-02 -4.098018120E-01
 4.252502471E-01 -5.648292787E-02 -3.967394760E-01
 4.375240207E-01 -5.562786013E-02 -3.751466854E-01
 4.493915737E-01 -5.471596494E-02 -3.564393002E-01
 4.608203769E-01 -5.373642966E-02 -3.460373866E-01
 4.724771380E-01 -5.262972973E-02 -3.139518756E-01
 4.843223840E-01 -5.143137276E-02 -2.969449872E-01
 4.965603352E-01 -5.009843968E-02 -2.691005999E-01
 5.097552538E-01 -4.857463017E-02 -2.407319491E-01
 5.229376256E-01 -4.697865993E-02 -2.126705523E-01
 5.358186066E-01 -4.536499456E-02 -1.861555026E-01
 5.484788716E-01 -4.373977892E-02 -1.646031438E-01
 5.614763498E-01 -4.200834781E-02 -1.402320549E-01
 5.747137368E-01 -4.019760713E-02 -1.096576616E-01
 5.873671770E-01 -3.846378811E-02 -8.834644746E-02
 6.000205278E-01 -3.670836240E-02 -7.106092076E-02
 6.139457822E-01 -3.475264646E-02 -4.535351586E-02
 6.286369860E-01 -3.267407790E-02 -2.383267024E-02
 6.435798109E-01 -3.054734319E-02 2.272921946E-03
 6.576360762E-01 -2.855971456E-02 2.203055083E-02
 6.704905629E-01 -2.673927695E-02 3.940855258E-02
 6.832561195E-01 -2.494168188E-02 6.065022106E-02
 6.956960261E-01 -2.321356907E-02 7.515467872E-02
 7.090469301E-01 -2.137626614E-02 9.216041742E-02
 7.227845788E-01 -1.950827707E-02 1.084812945E-01
 7.353394330E-01 -1.780168153E-02 1.254004916E-01
 7.483743727E-01 -1.606171951E-02 1.471701664E-01
 7.615696788E-01 -1.436314080E-02 1.611783985E-01
 7.745283544E-01 -1.273657707E-02 1.729089038E-01
 7.873316109E-01 -1.115634246E-02 1.894533536E-01
 7.996498942E-01 -9.667615406E-03 2.050329793E-01
 8.114933372E-01 -8.285775548E-03 2.232677049E-01
 8.226427436E-01 -7.035682444E-03 2.343630789E-01
 8.350377083E-01 -5.719251931E-03 2.509785695E-01
 8.480570614E-01 -4.429519176E-03 2.631020708E-01
 8.604962826E-01 -3.274715622E-03 2.769794243E-01
 8.721427023E-01 -2.280345536E-03 2.909613937E-01
 8.830868304E-01 -1.435064303E-03 3.012908167E-01
 8.951002359E-01 -6.414814125E-04 3.108512144E-01
 9.172411859E-01 4.938085331E-04 3.250777293E-01
 9.470759928E-01 1.256879303E-03 3.262212184E-01
 9.585090876E-01 1.319634030E-03 3.251649326E-01
 9.708033204E-01 1.250005444E-03 3.241434289E-01
 9.828273952E-01 1.050577848E-03 3.289398225E-01
 9.942185283E-01 7.199563261E-04 3.833351825E-01
 -5.000000000E-01 9.500000000E-01 -6.232199390E-04
 -5.000000000E-01 9.000000000E-01 -3.286224747E-04
 -5.000000000E-01 8.500000000E-01 7.190812459E-04
 -5.000000000E-01 8.000000000E-01 2.456933158E-03
 -5.000000000E-01 7.500000000E-01 5.029249521E-03
 -5.000000000E-01 7.000000000E-01 8.381820180E-03
 -5.000000000E-01 6.500000000E-01 1.264475200E-02
 -5.000000000E-01 6.000000000E-01 1.773543693E-02
 -5.000000000E-01 5.500000000E-01 2.387417646E-02
 -5.000000000E-01 5.000000000E-01 3.082216014E-02
 -5.000000000E-01 4.500000000E-01 3.855785509E-02
 -5.000000000E-01 4.000000000E-01 4.727833684E-02
 -5.000000000E-01 3.500000000E-01 5.621339561E-02
 -5.000000000E-01 3.000000000E-01 6.558599489E-02
 -5.000000000E-01 2.500000000E-01 7.501844924E-02
 -5.000000000E-01 2.000000000E-01 8.381057107E-02
 -5.000000000E-01 1.500000000E-01 9.217429685E-02
 -5.000000000E-01 1.000000000E-01 9.886773582E-02
 -5.000000000E-01 5.000000000E-02 1.040903124E-01
 -5.000000000E-01 2.752242878E-12 1.072632121E-01
 -5.000000000E-01 -5.000000000E-02 1.084493025E-01
 -5.000000000E-01 -1.000000000E-01 1.076255607E-01
 -5.000000000E-01 -1.500000000E-01 1.050129291E-01
 -5.000000000E-01 -2.000000000E-01 1.008618484E-01
 -5.000000000E-01 -2.500000000E-01 9.575390307E-02
 -5.000000000E-01 -3.000000000E-01 8.973955645E-02
 -5.000000000E-01 -3.500000000E-01 8.325893825E-02
 -5.000000000E-01 -4.000000000E-01 7.685932912E-02
 -5.000000000E-01 -4.500000000E-01 7.046596199E-02
 -5.000000000E-01 -5.000000000E-01 6.428411393E-02
 -5.000000000E-01 -5.500000000E-01 5.857470804E-02
 -5.000000000E-01 -6.000000000E-01 5.313532522E-02
 -5.000000000E-01 -6.500000000E-01 4.816536285E-02
 -5.000000000E-01 -7.000000000E-01 4.350186443E-02
 -5.000000000E-01 -7.500000000E-01 3.923163915E-02
 -5.000000000E-01 -8.000000000E-01 3.505494908E-02
 -5.000000000E-01 -8.500000000E-01 3.097505623E-02
 -5.000000000E-01 -9.000000000E-01 2.629314612E-02
 -5.000000000E-01 -9.500000000E-01 1.961382579E-02
 -4.500000000E-01 -1.000000000E+00 1.789749797E-02
 -4.000000000E-01 -1.000000000E+00 2.324422563E-02
 -3.500000000E-01 -1.000000000E+00 2.568253299E-02
 -3.000000000E-01 -1.000000000E+00 2.685175618E-02
 -2.500000000E-01 -1.000000000E+00 2.726661215E-02
 -2.000000000E-01 -1.000000000E+00 2.684564491E-02
 -1.500000000E-01 -1.000000000E+00 2.562578139E-02
 -1.000000000E-01 -1.000000000E+00 2.381615803E-02
 -5.000000000E-02 -1.000000000E+00 2.141655813E-02
 -9.424683256E-13 -1.000000000E+00 1.859394528E-02
 5.000000000E-02 -1.000000000E+00 1.535371631E-02
 1.000000000E-01 -1.000000000E+00 1.197694605E-02
 1.500000000E-01 -1.000000000E+00 8.488364078E-03
 2.000000000E-01 -1.000000000E+00 5.139234616E-03
 2.500000000E-01 -1.000000000E+00 2.027821990E-03
 3.000000000E-01 -1.000000000E+00 -6.390693267E-04
 3.500000000E-01 -1.000000000E+00 -2.853381554E-03
 4.000000000E-01 -1.000000000E+00 -4.349022435E-03
 4.500000000E-01 -1.000000000E+00 -5.094213298E-03
 5.000000000E-01 -1.000000000E+00 -5.185600641E-03
 5.500000000E-01 -1.000000000E+00 -4.456547143E-03
 6.000000000E-01 -1.000000000E+00 -3.035146710E-03
 6.500000000E-01 -1.000000000E+00 -1.014283419E-03
 7.000000000E-01 -1.000000000E+00 1.555802902E-03
 7.500000000E-01 -1.000000000E+00 4.548147278E-03
 8.000000000E-01 -1.000000000E+00 7.796618411E-03
 8.500000000E-01 -1.000000000E+00 1.115160514E-02
 9.000000000E-01 -1.000000000E+00 1.455849270E-02
 9.500000000E-01 -1.000000000E+00 1.792532392E-02
 1.000000000E+00 -1.000000000E+00 2.108813217E-02
 1.050000000E+00 -1.000000000E+00 2.396766044E-02
 1.100000000E+00 -1.000000000E+00 2.652220051E-02
 1.150000000E+00 -1.000000000E+00 2.874263518E-02
 1.200000000E+00 -1.000000000E+00 3.065723912E-02
 1.250000000E+00 -1.000000000E+00 3.220242092E-02
 1.300000000E+00 -1.000000000E+00 3.335736315E-02
 1.350000000E+00 -1.000000000E+00 3.426831651E-02
 1.400000000E+00 -1.000000000E+00 3.478478242E-02
 1.450000000E+00 -1.000000000E+00 3.510160045E-02
 1.500000000E+00 -1.000000000E+00 3.516781466E-02
 1.550000000E+00 -1.000000000E+00 3.505100592E-02
 1.600000000E+00 -1.000000000E+00 3.477236412E-02
 1.650000000E+00 -1.000000000E+00 3.433900472E-02
 1.700000000E+00 -1.000000000E+00 3.380629253E-02
 1.750000000E+00 -1.000000000E+00 3.318036023E-02
 1.800000000E+00 -1.000000000E+00 3.249199530E-02
 1.850000000E+00 -1.000000000E+00 3.178228433E-02
 1.900000000E+00 -1.000000000E+00 3.099099039E-02
 1.950000000E+00 -1.000000000E+00 3.023570944E-02
 2.000000000E+00 -1.000000000E+00 2.947180209E-02
 2.050000000E+00 -1.000000000E+00 2.871164261E-02
 2.100000000E+00 -1.000000000E+00 2.797821072E-02
 2.150000000E+00 -1.000000000E+00 2.722719544E-02
 2.200000000E+00 -1.000000000E+00 2.652237724E-02
 2.250000000E+00 -1.000000000E+00 2.584328358E-02
 2.300000000E+00 -1.000000000E+00 2.519762781E-02
 2.350000000E+00 -1.000000000E+00 2.460713782E-02
 2.400000000E+00 -1.000000000E+00 2.404958890E-02
 2.450000000E+00 -1.000000000E+00 2.352240900E-02
 2.500000000E+00 -1.000000000E+00 2.304284960E-02
 2.550000000E+00 -1.000000000E+00 2.258085431E-02
 2.600000000E+00 -1.000000000E+00 2.222608730E-02
 2.650000000E+00 -1.000000000E+00 2.175925774E-02
 2.700000000E+00 -1.000000000E+00 2.147667838E-02
 2.750000000E+00 -1.000000000E+00 2.108242238E-02
 2.800000000E+00 -1.000000000E+00 2.082529304E-02
 2.850000000E+00 -1.000000000E+00 2.055205191E-02
 2.900000000E+00 -1.000000000E+00 2.030756196E-02
 2.950000000E+00 -1.000000000E+00 2.007953106E-02
 3.000000000E+00 -1.000000000E+00 1.983089690E-02
 3.050000000E+00 -1.000000000E+00 1.957887057E-02
 3.100000000E+00 -1.000000000E+00 1.923149297E-02
 3.150000000E+00 -1.000000000E+00 1.893626171E-02
 3.200000000E+00 -1.000000000E+00 1.842022760E-02
 3.250000000E+00 -1.000000000E+00 1.788725863E-02
 3.300000000E+00 -1.000000000E+00 1.707066023E-02
 3.350000000E+00 -1.000000000E+00 1.599520956E-02
 3.400000000E+00 -1.000000000E+00 1.435161357E-02
 3.450000000E+00 -1.000000000E+00 1.161002163E-02
 3.500000000E+00 -9.500000000E-01 7.731711744E-03
 3.500000000E+00 -9.000000000E-01 9.159696207E-03
 3.500000000E+00 -8.500000000E-01 1.070152193E-02
 3.500000000E+00 -8.000000000E-01 1.224081946E-02
 3.500000000E+00 -7.500000000E-01 1.381208016E-02
 3.500000000E+00 -7.000000000E-01 1.533678447E-02
 3.500000000E+00 -6.500000000E-01 1.695057231E-02
 3.500000000E+00 -6.000000000E-01 1.870862000E-02
 3.500000000E+00 -5.500000000E-01 2.056594858E-02
 3.500000000E+00 -5.000000000E-01 2.254282119E-02
 3.500000000E+00 -4.500000000E-01 2.470333572E-02
 3.500000000E+00 -4.000000000E-01 2.694694625E-02
 3.500000000E+00 -3.500000000E-01 2.932963800E-02
 3.500000000E+00 -3.000000000E-01 3.151912777E-02
 3.500000000E+00 -2.500000000E-01 3.325596724E-02
 3.500000000E+00 -2.000000000E-01 3.391617127E-02
 3.500000000E+00 -1.500000000E-01 3.353672515E-02
 3.500000000E+00 -1.000000000E-01 3.256161710E-02
 3.500000000E+00 -5.000000000E-02 3.148409962E-02
 3.500000000E+00 -2.752242878E-12 3.085964655E-02
 3.500000000E+00 5.000000000E-02 3.055271912E-02
 3.500000000E+00 1.000000000E-01 2.999755364E-02
 3.500000000E+00 1.500000000E-01 2.836429768E-02
 3.500000000E+00 2.000000000E-01 2.579658776E-02
 3.500000000E+00 2.500000000E-01 2.272474355E-02
 3.500000000E+00 3.000000000E-01 1.934232782E-02
 3.500000000E+00 3.500000000E-01 1.622485703E-02
 3.500000000E+00 4.000000000E-01 1.326443409E-02
 3.500000000E+00 4.500000000E-01 1.051278854E-02
 3.500000000E+00 5.000000000E-01 8.076123946E-03
 3.500000000E+00 5.500000000E-01 5.992254068E-03
 3.500000000E+00 6.000000000E-01 4.693034470E-03
 3.500000000E+00 6.500000000E-01 4.206611905E-03
 3.500000000E+00 7.000000000E-01 4.068226967E-03
 3.500000000E+00 7.500000000E-01 3.218880844E-03
 3.500000000E+00 8.000000000E-01 2.072867876E-04
 3.500000000E+00 8.500000000E-01 -5.953221951E-03
 3.500000000E+00 9.000000000E-01 -1.446628877E-02
 3.500000000E+00 9.500000000E-01 -2.495248898E-02
 3.450000000E+00 1.000000000E+00 -1.515216691E-02
 3.400000000E+00 1.000000000E+00 -6.791189257E-03
 3.350000000E+00 1.000000000E+00 -2.521229672E-03
 3.300000000E+00 1.000000000E+00 -7.484938776E-04
 3.250000000E+00 1.000000000E+00 4.020363465E-04
 3.200000000E+00 1.000000000E+00 9.370340172E-04
 3.150000000E+00 1.000000000E+00 1.159560442E-03
 3.100000000E+00 1.000000000E+00 1.176499456E-03
 3.050000000E+00 1.000000000E+00 8.712965116E-04
 3.000000000E+00 1.000000000E+00 5.951383571E-04
 2.950000000E+00 1.000000000E+00 1.746114692E-04
 2.900000000E+00 1.000000000E+00 -2.176946374E-04
 2.850000000E+00 1.000000000E+00 -8.879267068E-04
 2.800000000E+00 1.000000000E+00 -1.498443181E-03
 2.750000000E+00 1.000000000E+00 -2.664408145E-03
 2.700000000E+00 1.000000000E+00 -3.183479645E-03
 2.650000000E+00 1.000000000E+00 -4.278875902E-03
 2.600000000E+00 1.000000000E+00 -5.259649835E-03
 2.550000000E+00 1.000000000E+00 -6.184342602E-03
 2.500000000E+00 1.000000000E+00 -7.659637343E-03
 2.450000000E+00 1.000000000E+00 -8.672832536E-03
 2.400000000E+00 1.000000000E+00 -1.014873791E-02
 2.350000000E+00 1.000000000E+00 -1.139140724E-02
 2.300000000E+00 1.000000000E+00 -1.296255704E-02
 2.250000000E+00 1.000000000E+00 -1.449242922E-02
 2.200000000E+00 1.000000000E+00 -1.635944938E-02
 2.150000000E+00 1.000000000E+00 -1.806710558E-02
 2.100000000E+00 1.000000000E+00 -2.018257498E-02
 2.050000000E+00 1.000000000E+00 -2.217140622E-02
 2.000000000E+00 1.000000000E+00 -2.441623125E-02
 1.950000000E+00 1.000000000E+00 -2.683392431E-02
 1.900000000E+00 1.000000000E+00 -2.940710844E-02
 1.850000000E+00 1.000000000E+00 -3.222207211E-02
 1.800000000E+00 1.000000000E+00 -3.514802235E-02
 1.750000000E+00 1.000000000E+00 -3.848595490E-02
 1.700000000E+00 1.000000000E+00 -4.216899245E-02
 1.650000000E+00 1.000000000E+00 -4.542018849E-02
 1.600000000E+00 1.000000000E+00 -5.011294504E-02
 1.550000000E+00 1.000000000E+00 -5.361101247E-02
 1.500000000E+00 1.000000000E+00 -5.852874028E-02
 1.450000000E+00 1.000000000E+00 -6.348323650E-02
 1.400000000E+00 1.000000000E+00 -6.849307112E-02
 1.350000000E+00 1.000000000E+00 -7.390524310E-02
 1.300000000E+00 1.000000000E+00 -7.958327457E-02
 1.250000000E+00 1.000000000E+00 -8.549781593E-02
 1.200000000E+00 1.000000000E+00 -9.141784389E-02
 1.150000000E+00 1.000000000E+00 -9.745135874E-02
 1.100000000E+00 1.000000000E+00 -1.033129273E-01
 1.050000000E+00 1.000000000E+00 -1.091211661E-01
 1.000000000E+00 1.000000000E+00 -1.147116292E-01
 9.500000000E-01 1.000000000E+00 -1.191996364E-01
 9.000000000E-01 1.000000000E+00 -1.238542773E-01
 8.500000000E-01 1.000000000E+00 -1.269176475E-01
 8.000000000E-01 1.000000000E+00 -1.294555180E-01
 7.500000000E-01 1.000000000E+00 -1.311932569E-01
 7.000000000E-01 1.000000000E+00 -1.311749929E-01
 6.500000000E-01 1.000000000E+00 -1.303961404E-01
 6.000000000E-01 1.000000000E+00 -1.278735688E-01
 5.500000000E-01 1.000000000E+00 -1.240554717E-01
 5.000000000E-01 1.000000000E+00 -1.188297858E-01
 4.500000000E-01 1.000000000E+00 -1.134293891E-01
 4.000000000E-01 1.000000000E+00 -1.063483502E-01
 3.500000000E-01 1.000000000E+00 -9.878301353E-02
 3.000000000E-01 1.000000000E+00 -9.030766449E-02
 2.500000000E-01 1.000000000E+00 -8.150511960E-02
 2.000000000E-01 1.000000000E+00 -7.243247784E-02
 1.500000000E-01 1.000000000E+00 -6.347176131E-02
 1.000000000E-01 1.000000000E+00 -5.447946870E-02
 5.000000000E-02 1.000000000E+00 -4.597558790E-02
 1.733724275E-12 1.000000000E+00 -3.784625138E-02
 -5.000000000E-02 1.000000000E+00 -3.045272357E-02
 -1.000000000E-01 1.000000000E+00 -2.373941677E-02
 -1.500000000E-01 1.000000000E+00 -1.790326611E-02
 -2.000000000E-01 1.000000000E+00 -1.297518893E-02
 -2.500000000E-01 1.000000000E+00 -8.858612962E-03
 -3.000000000E-01 1.000000000E+00 -5.748163194E-03
 -3.500000000E-01 1.000000000E+00 -3.382932655E-03
 -4.000000000E-01 1.000000000E+00 -1.864290410E-03
 -4.500000000E-01 1.000000000E+00 -9.068659455E-04
 9.743857657E-01 -3.688346308E-03 3.186772623E-01
 8.747709269E-01 -7.063855053E-03 2.866481727E-01
 8.043362684E-01 -1.417401946E-02 2.095578050E-01
 7.329372283E-01 -2.355565858E-02 1.202815127E-01
 6.616557867E-01 -3.381282034E-02 2.544649392E-02
 5.967581724E-01 -4.210455773E-02 -7.584334438E-02
 5.334308775E-01 -5.121916666E-02 -1.882852765E-01
 4.692096358E-01 -5.794180598E-02 -3.149146768E-01
 4.161561283E-01 -6.249743853E-02 -3.952424996E-01
 3.575233905E-01 -6.349958796E-02 -4.266300082E-01