TITLE     = "Visualization of the solution"
VARIABLES = "x"
"y"
"Pressure_Coefficient"
ZONE T="Zone"
 STRANDID=0, SOLUTIONTIME=0
 Nodes=12101, Elements=23621, ZONETYPE=FEQuadrilateral
 DATAPACKING=POINT
 DT=(DOUBLE DOUBLE DOUBLE )
 9.999148250E-01 5.171730299E-04 1.756623609E-01
 9.900773168E-01 2.445716877E-03 1.483818972E-01
 9.779704809E-01 4.702499136E-03 7.741190172E-02
 9.627034664E-01 7.675883826E-03 2.142336887E-02
 9.479768872E-01 1.050360594E-02 -2.525295232E-02
 9.317102432E-01 1.351837255E-02 -3.990609920E-02
 9.206464887E-01 1.568858698E-02 -9.719761178E-02
 9.083103538E-01 1.794336922E-02 -1.145099276E-01
 8.969218135E-01 2.001946978E-02 -1.430919045E-01
 8.849596381E-01 2.213962935E-02 -1.696551433E-01
 8.724295497E-01 2.426767908E-02 -1.891983971E-01
 8.598200083E-01 2.632623166E-02 -1.977940375E-01
 8.469256759E-01 2.841955982E-02 -2.263399900E-01
 8.362971544E-01 3.005343303E-02 -2.317082328E-01
 8.243300319E-01 3.185627982E-02 -2.402606676E-01
 8.111621737E-01 3.380665928E-02 -2.513384638E-01
 7.986026406E-01 3.566024452E-02 -2.751861938E-01
 7.858746648E-01 3.745466471E-02 -2.858991789E-01
 7.735422254E-01 3.914657980E-02 -2.938060908E-01
 7.613916993E-01 4.079886898E-02 -3.107909661E-01
 7.480297685E-01 4.255754501E-02 -3.253484322E-01
 7.338014245E-01 4.436403140E-02 -3.349248719E-01
 7.232280374E-01 4.569632187E-02 -3.532010219E-01
 7.122892737E-01 4.702075198E-02 -3.640950169E-01
 7.006141543E-01 4.838851094E-02 -3.711933340E-01
 6.867517233E-01 4.998753592E-02 -3.946358027E-01
 6.735277772E-01 5.140986294E-02 -4.020466724E-01
 6.643815041E-01 5.238823593E-02 -4.127123481E-01
 6.529406905E-01 5.355637148E-02 -4.265745078E-01
 6.408849359E-01 5.472563952E-02 -4.344729227E-01
 6.290817857E-01 5.583347008E-02 -4.523388130E-01
 6.177359819E-01 5.681973323E-02 -4.555971954E-01
 6.066917777E-01 5.775205791E-02 -4.683638548E-01
 5.935042500E-01 5.878988653E-02 -4.836542215E-01
 5.819689035E-01 5.961114541E-02 -4.844975020E-01
 5.684946179E-01 6.051654369E-02 -4.960406123E-01
 5.564031005E-01 6.125446782E-02 -5.051942987E-01
 5.447738767E-01 6.188701093E-02 -5.084411543E-01
 5.343850255E-01 6.239860132E-02 -5.080160745E-01
 5.233873129E-01 6.291078031E-02 -5.216760861E-01
 5.110144019E-01 6.337917596E-02 -5.197980964E-01
 4.996483326E-01 6.374995410E-02 -5.189546683E-01
 4.865901768E-01 6.410755962E-02 -5.216576623E-01
 4.729095101E-01 6.438793242E-02 -5.188316819E-01
 4.587174058E-01 6.459838897E-02 -5.209424388E-01
 4.453407824E-01 6.470187008E-02 -5.167619045E-01
 4.324018657E-01 6.473492831E-02 -5.154104263E-01
 4.197647870E-01 6.469845772E-02 -5.139249758E-01
 4.074387252E-01 6.459319592E-02 -5.122616310E-01
 3.957994580E-01 6.442500651E-02 -5.050638280E-01
 3.832895756E-01 6.419005990E-02 -5.031586675E-01
 3.723709285E-01 6.393107772E-02 -4.992085767E-01
 3.595202565E-01 6.356027722E-02 -4.945381646E-01
 3.471180201E-01 6.313978136E-02 -4.911985306E-01
 3.338591456E-01 6.261321902E-02 -4.854661672E-01
 3.222247958E-01 6.209483370E-02 -4.817995969E-01
 3.094654083E-01 6.145264208E-02 -4.737077398E-01
 2.959104776E-01 6.070719287E-02 -4.705138937E-01
 2.816548645E-01 5.982797593E-02 -4.665992866E-01
 2.687253356E-01 5.893307552E-02 -4.541479990E-01
 2.565154135E-01 5.803501979E-02 -4.476326123E-01
 2.438875586E-01 5.704539269E-02 -4.468741381E-01
 2.311148345E-01 5.594201013E-02 -4.351806594E-01
 2.185453326E-01 5.479202047E-02 -4.300384212E-01
 2.069866359E-01 5.365950614E-02 -4.241820652E-01
 1.954112351E-01 5.244204774E-02 -4.124815189E-01
 1.828763187E-01 5.104810745E-02 -4.042669128E-01
 1.708605587E-01 4.963041097E-02 -3.973789091E-01
 1.598196328E-01 4.824929684E-02 -3.901856125E-01
 1.475090384E-01 4.660163447E-02 -3.801981414E-01
 1.369340420E-01 4.509968311E-02 -3.691016343E-01
 1.251449883E-01 4.332162067E-02 -3.584677679E-01
 1.135903820E-01 4.145961627E-02 -3.454503333E-01
 1.030874327E-01 3.966277093E-02 -3.352397724E-01
 9.299777448E-02 3.782248124E-02 -3.206337106E-01
 8.174891770E-02 3.562662378E-02 -3.046056463E-01
 6.969042867E-02 3.306730464E-02 -2.836994013E-01
 5.996183306E-02 3.082441166E-02 -2.659463257E-01
 4.991296679E-02 2.828495391E-02 -2.381365414E-01
 4.170350358E-02 2.601770498E-02 -2.156705176E-01
 3.486530110E-02 2.394854091E-02 -1.879375358E-01
 2.880431339E-02 2.193897776E-02 -1.524012160E-01
 2.340969257E-02 1.997565478E-02 -1.236065763E-01
 1.958863251E-02 1.844800264E-02 -7.745999739E-02
 1.594943926E-02 1.686170325E-02 -3.803029858E-02
 1.313502993E-02 1.552313846E-02 9.125133377E-03
 1.053445973E-02 1.417131815E-02 5.514652424E-02
 8.619675413E-03 1.308089867E-02 1.057851665E-01
 6.990036927E-03 1.206878293E-02 1.522081904E-01
 5.516966339E-03 1.107236929E-02 2.253710882E-01
 3.576567164E-03 9.592505172E-03 3.393153708E-01
 1.825423678E-03 7.995036431E-03 4.465524304E-01
 3.708537552E-04 6.321548950E-03 7.101324012E-01
 -1.003136043E-03 3.966636490E-03 9.705213514E-01
 -1.486527617E-03 2.222885378E-03 1.090315985E+00
 -1.544033061E-03 8.939987165E-04 1.084784946E+00
 -1.316255308E-03 -4.145369458E-04 9.983983822E-01
 -8.431808092E-04 -1.640617033E-03 8.171415403E-01
 5.816871999E-05 -3.078763140E-03 6.355484005E-01
 1.353987609E-03 -4.514578264E-03 4.149751875E-01
 3.133269958E-03 -5.995615385E-03 2.580285365E-01
 4.778424278E-03 -7.098142058E-03 1.317254877E-01
 6.585600320E-03 -8.132374845E-03 7.975033588E-02
 8.076123893E-03 -8.890767582E-03 2.265812124E-02
 1.006244961E-02 -9.797198698E-03 6.398621572E-03
 1.234812103E-02 -1.073325053E-02 -2.826409562E-02
 1.553209778E-02 -1.189404540E-02 -5.072890109E-02
 1.831154153E-02 -1.280376036E-02 -7.710104152E-02
 2.193583548E-02 -1.388160512E-02 -8.308496668E-02
 2.722843923E-02 -1.528364420E-02 -8.862924823E-02
 3.301327303E-02 -1.665889099E-02 -1.006229008E-01
 4.043906182E-02 -1.823327877E-02 -1.041953848E-01
 4.795093089E-02 -1.967405342E-02 -1.104708054E-01
 5.727852881E-02 -2.130400017E-02 -1.128516108E-01
 6.602077931E-02 -2.270606346E-02 -1.219855294E-01
 7.603189349E-02 -2.419717237E-02 -1.238390037E-01
 8.623456955E-02 -2.561380155E-02 -1.289433807E-01
 9.629194438E-02 -2.692680992E-02 -1.345908909E-01
 1.071529537E-01 -2.826451510E-02 -1.401208471E-01
 1.186200827E-01 -2.959959209E-02 -1.468125165E-01
 1.303653270E-01 -3.089592792E-02 -1.546386336E-01
 1.412879676E-01 -3.203476965E-02 -1.609158981E-01
 1.524091810E-01 -3.314418718E-02 -1.692201282E-01
 1.646997929E-01 -3.430540860E-02 -1.769215755E-01
 1.764686704E-01 -3.535968438E-02 -1.856300440E-01
 1.885675788E-01 -3.638245538E-02 -1.931554427E-01
 1.995086223E-01 -3.726410121E-02 -2.035060840E-01
 2.107424438E-01 -3.811158985E-02 -2.107451036E-01
 2.230143547E-01 -3.898229823E-02 -2.199183128E-01
 2.363229245E-01 -3.985134885E-02 -2.277500903E-01
 2.491466105E-01 -4.063436761E-02 -2.413248130E-01
 2.617385089E-01 -4.131747782E-02 -2.484849834E-01
 2.730987072E-01 -4.187231511E-02 -2.567870295E-01
 2.861647010E-01 -4.244574904E-02 -2.679718056E-01
 2.989166677E-01 -4.291323200E-02 -2.760557310E-01
 3.116589785E-01 -4.329431802E-02 -2.843236999E-01
 3.237162828E-01 -4.356643185E-02 -2.907523889E-01
 3.360028863E-01 -4.376082867E-02 -2.982774297E-01
 3.471071422E-01 -4.384402931E-02 -3.006177796E-01
 3.581372499E-01 -4.385231808E-02 -3.042051702E-01
 3.685769439E-01 -4.378322139E-02 -3.073625301E-01
 3.790282607E-01 -4.363332689E-02 -3.079267342E-01
 3.903304935E-01 -4.337457195E-02 -3.038553018E-01
 4.032027423E-01 -4.296239465E-02 -2.979283395E-01
 4.155595899E-01 -4.244598746E-02 -2.898089612E-01
 4.279355705E-01 -4.181223735E-02 -2.787951210E-01
 4.401499927E-01 -4.107287899E-02 -2.657241937E-01
 4.515133500E-01 -4.027814791E-02 -2.478342137E-01
 4.629661441E-01 -3.939556330E-02 -2.306239484E-01
 4.750267565E-01 -3.838414699E-02 -2.134753557E-01
 4.857559204E-01 -3.740424663E-02 -1.943687952E-01
 4.982607961E-01 -3.617740422E-02 -1.683439723E-01
 5.119392872E-01 -3.476949781E-02 -1.449218206E-01
 5.255173445E-01 -3.328984231E-02 -1.167028501E-01
 5.395725965E-01 -3.171686083E-02 -9.472394516E-02
 5.517546535E-01 -3.028669581E-02 -6.624177143E-02
 5.647708774E-01 -2.877431549E-02 -5.136244849E-02
 5.773523450E-01 -2.726601623E-02 -2.808880803E-02
 5.883758664E-01 -2.592723630E-02 -7.514571995E-03
 6.006243825E-01 -2.446213178E-02 5.985088525E-03
 6.151741743E-01 -2.268711478E-02 3.059561055E-02
 6.299486756E-01 -2.090570331E-02 4.962495931E-02
 6.454253197E-01 -1.904201508E-02 7.076346335E-02
 6.586022973E-01 -1.747988537E-02 8.591050237E-02
 6.718350649E-01 -1.590669155E-02 1.063825093E-01
 6.842664480E-01 -1.448334754E-02 1.162773318E-01
 6.968768239E-01 -1.304266602E-02 1.324290607E-01
 7.109711170E-01 -1.146202907E-02 1.483515524E-01
 7.240048647E-01 -1.002878044E-02 1.642106499E-01
 7.366542816E-01 -8.694690652E-03 1.738185532E-01
 7.493293285E-01 -7.364414167E-03 1.908945081E-01
 7.609446049E-01 -6.189727224E-03 2.037205269E-01
 7.733947635E-01 -4.968134686E-03 2.194913111E-01
 7.849733829E-01 -3.912228160E-03 2.277550881E-01
 7.977121472E-01 -2.788660815E-03 2.410718326E-01
 8.087940216E-01 -1.866763574E-03 2.521521840E-01
 8.207131028E-01 -9.354851209E-04 2.637167507E-01
 8.336607218E-01 3.197241995E-06 2.771141114E-01
 8.462190032E-01 7.981482777E-04 2.858084100E-01
 8.580036759E-01 1.465670532E-03 2.975784708E-01
 8.706577420E-01 2.062623156E-03 3.056850026E-01
 8.838443756E-01 2.540000947E-03 3.108055943E-01
 8.973330259E-01 2.885634080E-03 3.156472932E-01
 9.076413512E-01 3.038170515E-03 3.182659414E-01
 9.180666208E-01 3.097523237E-03 3.182013249E-01
 9.270139337E-01 3.072093241E-03 3.182274197E-01
 9.347975254E-01 2.994558075E-03 3.183334151E-01
 9.465275407E-01 2.792980988E-03 3.162300679E-01
 9.583771825E-01 2.469936153E-03 3.132470361E-01
 9.742074013E-01 1.888015890E-03 3.150518755E-01
 9.873265028E-01 1.249805908E-03 3.217955543E-01
 -5.000000000E-01 -1.000000000E+00 1.569994128E-02
 3.500000000E+00 -1.000000000E+00 9.497807179E-03
 3.500000000E+00 1.000000000E+00 -2.796064528E-02
 -5.000000000E-01 1.000000000E+00 -4.402842771E-03
 9.840238988E-01 3.574108006E-03 9.426814486E-02
 9.703369737E-01 6.189191481E-03 4.593895156E-02
 9.553401768E-01 9.089744883E-03 -4.032254259E-03
 9.398435652E-01 1.201098925E-02 -3.019488894E-02
 9.261783659E-01 1.460347977E-02 -7.723785451E-02
 9.144784212E-01 1.681597810E-02 -1.037753835E-01
 9.026160836E-01 1.898141950E-02 -1.299681999E-01
 8.909407258E-01 2.107954957E-02 -1.584306392E-01
 8.786945939E-01 2.320365421E-02 -1.800544013E-01
 8.661247790E-01 2.529695537E-02 -1.912924674E-01
 8.533728421E-01 2.737289574E-02 -2.141917918E-01
 8.416114151E-01 2.923649643E-02 -2.284663593E-01
 8.303135931E-01 3.095485643E-02 -2.351293451E-01
 8.177461028E-01 3.283146955E-02 -2.442745838E-01
 8.048824072E-01 3.473345190E-02 -2.657358030E-01
 7.922386527E-01 3.655745462E-02 -2.803275079E-01
 7.797084451E-01 3.830062225E-02 -2.883392219E-01
 7.674669623E-01 3.997272439E-02 -3.034790994E-01
 7.547107339E-01 4.167820700E-02 -3.188707994E-01
 7.409155965E-01 4.346078821E-02 -3.279887464E-01
 7.285147309E-01 4.503017664E-02 -3.456658037E-01
 7.177586555E-01 4.635853693E-02 -3.588960823E-01
 7.064517140E-01 4.770463146E-02 -3.664161973E-01
 6.936829388E-01 4.918802343E-02 -3.855957289E-01
 6.801397502E-01 5.069869943E-02 -3.928646996E-01
 6.586610973E-01 5.297230370E-02 -4.208057048E-01
 6.469128132E-01 5.414100550E-02 -4.293904938E-01
 6.349833608E-01 5.527955480E-02 -4.452244506E-01
 6.234088838E-01 5.632660165E-02 -4.518180607E-01
 6.122138798E-01 5.728589557E-02 -4.638069625E-01
 6.000980139E-01 5.827097222E-02 -4.766179669E-01
 5.877365768E-01 5.920051597E-02 -4.832008930E-01
 5.752317607E-01 6.006384455E-02 -4.899604099E-01
 5.624488592E-01 6.088550575E-02 -5.013651659E-01
 5.505884886E-01 6.157073937E-02 -5.059845121E-01
 5.395794511E-01 6.214280613E-02 -5.063441010E-01
 5.288861692E-01 6.265469082E-02 -5.190167059E-01
 5.172008574E-01 6.314497814E-02 -5.194396687E-01
 5.053313673E-01 6.356456503E-02 -5.198266396E-01
 4.931192547E-01 6.392875686E-02 -5.215399147E-01
 4.797498435E-01 6.424774602E-02 -5.201972836E-01
 4.658134580E-01 6.449316069E-02 -5.203148428E-01
 4.520290941E-01 6.465012953E-02 -5.184250042E-01
 4.388713241E-01 6.471839920E-02 -5.157397700E-01
 4.260833263E-01 6.471669301E-02 -5.147856725E-01
 4.136017561E-01 6.464582682E-02 -5.130179761E-01
 4.016190916E-01 6.450910121E-02 -5.083768318E-01
 3.895445168E-01 6.430753320E-02 -5.031657013E-01
 3.778302521E-01 6.406056881E-02 -5.026645996E-01
 3.659455925E-01 6.374567747E-02 -4.964595551E-01
 3.533191383E-01 6.335002929E-02 -4.937773619E-01
 3.404885828E-01 6.287650019E-02 -4.870030151E-01
 3.280419707E-01 6.235402636E-02 -4.846524274E-01
 3.158451021E-01 6.177373789E-02 -4.774157766E-01
 3.026879430E-01 6.107991748E-02 -4.733237803E-01
 2.887826711E-01 6.026758440E-02 -4.689064694E-01
 2.751901001E-01 5.938052572E-02 -4.586196083E-01
 2.626203746E-01 5.848404765E-02 -4.507153889E-01
 2.502014861E-01 5.754020624E-02 -4.491553433E-01
 2.375011966E-01 5.649370141E-02 -4.398579727E-01
 2.248300835E-01 5.536701530E-02 -4.320125882E-01
 2.127659842E-01 5.422576331E-02 -4.278799374E-01
 2.011989355E-01 5.305077694E-02 -4.183612370E-01
 1.891437769E-01 5.174507760E-02 -4.081711463E-01
 1.768684387E-01 5.033925921E-02 -4.001672604E-01
 1.653400958E-01 4.893985391E-02 -3.957227059E-01
 1.536643356E-01 4.742546566E-02 -3.836552890E-01
 1.422215402E-01 4.585065879E-02 -3.762862773E-01
 1.310395151E-01 4.421065189E-02 -3.646724319E-01
 1.193676852E-01 4.239061847E-02 -3.512094953E-01
 1.083389074E-01 4.056119360E-02 -3.403586448E-01
 9.804260358E-02 3.874262609E-02 -3.303376933E-01
 8.737334609E-02 3.672455251E-02 -3.161238406E-01
 7.571967319E-02 3.434696421E-02 -2.969701964E-01
 5.493739992E-02 2.955468278E-02 -2.560184560E-01
 7.102633640E-02 -2.345161792E-02 -1.232903732E-01
 8.113323152E-02 -2.490548696E-02 -1.270017371E-01
 9.126325697E-02 -2.627030574E-02 -1.328732695E-01
 1.017224491E-01 -2.759566251E-02 -1.370121419E-01
 1.128865182E-01 -2.893205360E-02 -1.434994890E-01
 1.244927049E-01 -3.024776001E-02 -1.506853718E-01
 1.358266473E-01 -3.146534879E-02 -1.587055638E-01
 1.468485743E-01 -3.258947842E-02 -1.645627391E-01
 1.585544869E-01 -3.372479789E-02 -1.728497498E-01
 1.705842316E-01 -3.483254649E-02 -1.814750143E-01
 1.825181246E-01 -3.587106988E-02 -1.897208514E-01
 1.940381005E-01 -3.682327829E-02 -1.983756146E-01
 2.051255330E-01 -3.768784553E-02 -2.071483474E-01
 2.168783993E-01 -3.854694404E-02 -2.145191037E-01
 2.296686396E-01 -3.941682354E-02 -2.235941513E-01
 2.427347675E-01 -4.024285823E-02 -2.337738764E-01
 2.554425597E-01 -4.097592272E-02 -2.458034401E-01
 2.674186081E-01 -4.159489647E-02 -2.531552148E-01
 2.796317041E-01 -4.215903208E-02 -2.606394561E-01
 2.925406843E-01 -4.267949052E-02 -2.725425379E-01
 3.052878231E-01 -4.310377501E-02 -2.801203971E-01
 3.176876307E-01 -4.343037494E-02 -2.877556870E-01
 3.298595846E-01 -4.366363026E-02 -2.940764590E-01
 3.415550143E-01 -4.380242899E-02 -3.014834798E-01
 3.526221961E-01 -4.384817369E-02 -3.020113834E-01
 3.633570969E-01 -4.381776974E-02 -3.062807964E-01
 3.738026023E-01 -4.370827414E-02 -3.074713875E-01
 3.846793771E-01 -4.350394942E-02 -3.057849933E-01
 3.967666179E-01 -4.316848330E-02 -2.999795029E-01
 4.093811661E-01 -4.270419106E-02 -2.946523891E-01
 4.217475802E-01 -4.212911241E-02 -2.847224991E-01
 4.340427816E-01 -4.144255817E-02 -2.729592897E-01
 4.458316714E-01 -4.067551345E-02 -2.584700729E-01
 4.572397470E-01 -3.983685561E-02 -2.396597391E-01
 4.689964503E-01 -3.888985515E-02 -2.220120975E-01
 4.803913385E-01 -3.789419681E-02 -2.054506732E-01
 4.920083582E-01 -3.679082543E-02 -1.815980463E-01
 5.051000416E-01 -3.547345102E-02 -1.558656456E-01
 5.187283158E-01 -3.402967006E-02 -1.318770704E-01
 5.325449705E-01 -3.250335157E-02 -1.055464305E-01
 5.456636250E-01 -3.100177832E-02 -8.292903885E-02
 5.582627654E-01 -2.953050565E-02 -5.692613601E-02
 5.710616112E-01 -2.802016586E-02 -4.085710937E-02
 5.828641057E-01 -2.659662627E-02 -1.854818580E-02
 5.945001245E-01 -2.519468404E-02 3.504906286E-04
 6.078992784E-01 -2.357462328E-02 1.700158206E-02
 6.225614250E-01 -2.179640904E-02 4.015430891E-02
 6.376869977E-01 -1.997385919E-02 5.976976795E-02
 6.520138085E-01 -1.826095022E-02 7.906130528E-02
 6.652186811E-01 -1.669328846E-02 9.518939408E-02
 6.780507565E-01 -1.519501954E-02 1.129807400E-01
 6.905716360E-01 -1.376300678E-02 1.236511826E-01
 7.039239705E-01 -1.225234754E-02 1.398762134E-01
 7.174879909E-01 -1.074540475E-02 1.562664462E-01
 7.303295732E-01 -9.361735545E-03 1.701016660E-01
 7.429918051E-01 -8.029552409E-03 1.812951911E-01
 7.551369667E-01 -6.777070696E-03 1.975442337E-01
 7.671696842E-01 -5.578930955E-03 2.102013323E-01
 7.791840732E-01 -4.440181423E-03 2.254081511E-01
 7.913427651E-01 -3.350444487E-03 2.331120121E-01
 8.032530844E-01 -2.327712195E-03 2.469974704E-01
 8.147535622E-01 -1.401124347E-03 2.573797191E-01
 8.271869123E-01 -4.661439394E-04 2.694144583E-01
 8.399398625E-01 4.006727598E-04 2.825348124E-01
 8.521113396E-01 1.131909405E-03 2.915142126E-01
 8.643307090E-01 1.764146844E-03 3.010238656E-01
 8.772510588E-01 2.301312052E-03 3.082724689E-01
 8.905887008E-01 2.712817513E-03 3.133794081E-01
 9.024871886E-01 2.961902297E-03 3.197727765E-01
 9.128539860E-01 3.067846876E-03 3.189411014E-01
 9.406625330E-01 2.893769532E-03 3.149476386E-01
 9.524523616E-01 2.631458570E-03 3.147532244E-01
 9.662922919E-01 2.178976021E-03 3.110957579E-01
 9.807669520E-01 1.568910899E-03 3.193117035E-01
 9.936206639E-01 8.834894688E-04 3.586772394E-01
 -5.000000000E-01 9.500000000E-01 -5.891739134E-03
 -5.000000000E-01 9.000000000E-01 -7.381248007E-03
 -5.000000000E-01 8.500000000E-01 -7.513859144E-03
 -5.000000000E-01 8.000000000E-01 -6.820107228E-03
 -5.000000000E-01 7.500000000E-01 -5.249970273E-03
 -5.000000000E-01 7.000000000E-01 -2.959746957E-03
 -5.000000000E-01 6.500000000E-01 3.345534124E-04
 -5.000000000E-01 6.000000000E-01 4.330732909E-03
 -5.000000000E-01 5.500000000E-01 9.327696242E-03
 -5.000000000E-01 5.000000000E-01 1.510283024E-02
 -5.000000000E-01 4.500000000E-01 2.168451543E-02
 -5.000000000E-01 4.000000000E-01 2.892362758E-02
 -5.000000000E-01 3.500000000E-01 3.691456890E-02
 -5.000000000E-01 3.000000000E-01 4.509194224E-02
 -5.000000000E-01 2.500000000E-01 5.347645340E-02
 -5.000000000E-01 2.000000000E-01 6.161772801E-02
 -5.000000000E-01 1.500000000E-01 6.905257494E-02
 -5.000000000E-01 1.000000000E-01 7.575929755E-02
 -5.000000000E-01 5.000000000E-02 8.111324296E-02
 -5.000000000E-01 2.752242878E-12 8.495333853E-02
 -5.000000000E-01 -5.000000000E-02 8.719441574E-02
 -5.000000000E-01 -1.000000000E-01 8.785969270E-02
 -5.000000000E-01 -1.500000000E-01 8.703388944E-02
 -5.000000000E-01 -2.000000000E-01 8.494083187E-02
 -5.000000000E-01 -2.500000000E-01 8.188942880E-02
 -5.000000000E-01 -3.000000000E-01 7.821044653E-02
 -5.000000000E-01 -3.500000000E-01 7.404666554E-02
 -5.000000000E-01 -4.000000000E-01 6.967090205E-02
 -5.000000000E-01 -4.500000000E-01 6.520916502E-02
 -5.000000000E-01 -5.000000000E-01 6.084952278E-02
 -5.000000000E-01 -5.500000000E-01 5.660477777E-02
 -5.000000000E-01 -6.000000000E-01 5.252519388E-02
 -5.000000000E-01 -6.500000000E-01 4.857068685E-02
 -5.000000000E-01 -7.000000000E-01 4.480667984E-02
 -5.000000000E-01 -7.500000000E-01 4.108993666E-02
 -5.000000000E-01 -8.000000000E-01 3.729850710E-02
 -5.000000000E-01 -8.500000000E-01 3.331915625E-02
 -5.000000000E-01 -9.000000000E-01 2.860865567E-02
 -5.000000000E-01 -9.500000000E-01 2.140822423E-02
 -4.500000000E-01 -1.000000000E+00 1.968789470E-02
 -4.000000000E-01 -1.000000000E+00 2.571037856E-02
 -3.500000000E-01 -1.000000000E+00 2.874598079E-02
 -3.000000000E-01 -1.000000000E+00 3.079188460E-02
 -2.500000000E-01 -1.000000000E+00 3.215713734E-02
 -2.000000000E-01 -1.000000000E+00 3.280962614E-02
 -1.500000000E-01 -1.000000000E+00 3.289747676E-02
 -1.000000000E-01 -1.000000000E+00 3.251758637E-02
 -5.000000000E-02 -1.000000000E+00 3.174294398E-02
 -9.424683256E-13 -1.000000000E+00 3.062529182E-02
 5.000000000E-02 -1.000000000E+00 2.927893058E-02
 1.000000000E-01 -1.000000000E+00 2.776221979E-02
 1.500000000E-01 -1.000000000E+00 2.624237057E-02
 2.000000000E-01 -1.000000000E+00 2.479164294E-02
 2.500000000E-01 -1.000000000E+00 2.352496683E-02
 3.000000000E-01 -1.000000000E+00 2.254892820E-02
 3.500000000E-01 -1.000000000E+00 2.196405842E-02
 4.000000000E-01 -1.000000000E+00 2.178223278E-02
 4.500000000E-01 -1.000000000E+00 2.208097507E-02
 5.000000000E-01 -1.000000000E+00 2.290814648E-02
 5.500000000E-01 -1.000000000E+00 2.413012438E-02
 6.000000000E-01 -1.000000000E+00 2.580052806E-02
 6.500000000E-01 -1.000000000E+00 2.782416381E-02
 7.000000000E-01 -1.000000000E+00 3.009057349E-02
 7.500000000E-01 -1.000000000E+00 3.254554205E-02
 8.000000000E-01 -1.000000000E+00 3.506117522E-02
 8.500000000E-01 -1.000000000E+00 3.756895370E-02
 9.000000000E-01 -1.000000000E+00 3.993547821E-02
 9.500000000E-01 -1.000000000E+00 4.213227889E-02
 1.000000000E+00 -1.000000000E+00 4.406794213E-02
 1.050000000E+00 -1.000000000E+00 4.569610884E-02
 1.100000000E+00 -1.000000000E+00 4.700778775E-02
 1.150000000E+00 -1.000000000E+00 4.801518521E-02
 1.200000000E+00 -1.000000000E+00 4.863012568E-02
 1.250000000E+00 -1.000000000E+00 4.896566007E-02
 1.300000000E+00 -1.000000000E+00 4.894096300E-02
 1.350000000E+00 -1.000000000E+00 4.872181402E-02
 1.400000000E+00 -1.000000000E+00 4.817745543E-02
 1.450000000E+00 -1.000000000E+00 4.749843325E-02
 1.500000000E+00 -1.000000000E+00 4.661946341E-02
 1.550000000E+00 -1.000000000E+00 4.562591944E-02
 1.600000000E+00 -1.000000000E+00 4.447198480E-02
 1.650000000E+00 -1.000000000E+00 4.328115501E-02
 1.700000000E+00 -1.000000000E+00 4.202119058E-02
 1.750000000E+00 -1.000000000E+00 4.074010707E-02
 1.800000000E+00 -1.000000000E+00 3.943766885E-02
 1.850000000E+00 -1.000000000E+00 3.812001604E-02
 1.900000000E+00 -1.000000000E+00 3.683475360E-02
 1.950000000E+00 -1.000000000E+00 3.556957982E-02
 2.000000000E+00 -1.000000000E+00 3.428430126E-02
 2.050000000E+00 -1.000000000E+00 3.313745191E-02
 2.100000000E+00 -1.000000000E+00 3.190947931E-02
 2.150000000E+00 -1.000000000E+00 3.081968214E-02
 2.200000000E+00 -1.000000000E+00 2.973076620E-02
 2.250000000E+00 -1.000000000E+00 2.874736485E-02
 2.300000000E+00 -1.000000000E+00 2.777269205E-02
 2.350000000E+00 -1.000000000E+00 2.690035452E-02
 2.400000000E+00 -1.000000000E+00 2.602453660E-02
 2.450000000E+00 -1.000000000E+00 2.524433910E-02
 2.500000000E+00 -1.000000000E+00 2.452275812E-02
 2.550000000E+00 -1.000000000E+00 2.380268019E-02
 2.600000000E+00 -1.000000000E+00 2.321965103E-02
 2.650000000E+00 -1.000000000E+00 2.260173524E-02
 2.700000000E+00 -1.000000000E+00 2.209308146E-02
 2.750000000E+00 -1.000000000E+00 2.158475512E-02
 2.800000000E+00 -1.000000000E+00 2.114529713E-02
 2.850000000E+00 -1.000000000E+00 2.072697106E-02
 2.900000000E+00 -1.000000000E+00 2.035625552E-02
 2.950000000E+00 -1.000000000E+00 1.999951169E-02
 3.000000000E+00 -1.000000000E+00 1.965570482E-02
 3.050000000E+00 -1.000000000E+00 1.931205161E-02
 3.100000000E+00 -1.000000000E+00 1.894236587E-02
 3.150000000E+00 -1.000000000E+00 1.857872884E-02
 3.200000000E+00 -1.000000000E+00 1.812102782E-02
 3.250000000E+00 -1.000000000E+00 1.761926228E-02
 3.300000000E+00 -1.000000000E+00 1.693567436E-02
 3.350000000E+00 -1.000000000E+00 1.605245090E-02
 3.400000000E+00 -1.000000000E+00 1.458140416E-02
 3.450000000E+00 -1.000000000E+00 1.222850767E-02
 3.500000000E+00 -9.500000000E-01 8.770784044E-03
 3.500000000E+00 -9.000000000E-01 1.016242645E-02
 3.500000000E+00 -8.500000000E-01 1.168376014E-02
 3.500000000E+00 -8.000000000E-01 1.319119574E-02
 3.500000000E+00 -7.500000000E-01 1.457943775E-02
 3.500000000E+00 -7.000000000E-01 1.587837303E-02
 3.500000000E+00 -6.500000000E-01 1.719970844E-02
 3.500000000E+00 -6.000000000E-01 1.852874123E-02
 3.500000000E+00 -5.500000000E-01 1.996118471E-02
 3.500000000E+00 -5.000000000E-01 2.140309946E-02
 3.500000000E+00 -4.500000000E-01 2.292698755E-02
 3.500000000E+00 -4.000000000E-01 2.443481273E-02
 3.500000000E+00 -3.500000000E-01 2.595844082E-02
 3.500000000E+00 -3.000000000E-01 2.735503807E-02
 3.500000000E+00 -2.500000000E-01 2.837318663E-02
 3.500000000E+00 -2.000000000E-01 2.866437725E-02
 3.500000000E+00 -1.500000000E-01 2.820210956E-02
 3.500000000E+00 -1.000000000E-01 2.743324084E-02
 3.500000000E+00 -5.000000000E-02 2.640786801E-02
 3.500000000E+00 -2.752242878E-12 2.538404054E-02
 3.500000000E+00 5.000000000E-02 2.426389391E-02
 3.500000000E+00 1.000000000E-01 2.268413331E-02
 3.500000000E+00 1.500000000E-01 2.059971309E-02
 3.500000000E+00 2.000000000E-01 1.803228042E-02
 3.500000000E+00 2.500000000E-01 1.521353912E-02
 3.500000000E+00 3.000000000E-01 1.241205118E-02
 3.500000000E+00 3.500000000E-01 9.747605866E-03
 3.500000000E+00 4.000000000E-01 7.281821621E-03
 3.500000000E+00 4.500000000E-01 5.001637998E-03
 3.500000000E+00 5.000000000E-01 2.941801858E-03
 3.500000000E+00 5.500000000E-01 1.366162513E-03
 3.500000000E+00 6.000000000E-01 4.597226907E-04
 3.500000000E+00 6.500000000E-01 3.323791628E-04
 3.500000000E+00 7.000000000E-01 5.726502209E-04
 3.500000000E+00 7.500000000E-01 2.267543744E-04
 3.500000000E+00 8.000000000E-01 -2.550161004E-03
 3.500000000E+00 8.500000000E-01 -8.796330704E-03
 3.500000000E+00 9.000000000E-01 -1.688018583E-02
 3.500000000E+00 9.500000000E-01 -2.761834688E-02
 3.450000000E+00 1.000000000E+00 -1.836594927E-02
 3.400000000E+00 1.000000000E+00 -1.031071576E-02
 3.350000000E+00 1.000000000E+00 -6.356670435E-03
 3.300000000E+00 1.000000000E+00 -4.660547248E-03
 3.250000000E+00 1.000000000E+00 -3.607168435E-03
 3.200000000E+00 1.000000000E+00 -3.074743834E-03
 3.150000000E+00 1.000000000E+00 -2.803738919E-03
 3.100000000E+00 1.000000000E+00 -2.929734079E-03
 3.050000000E+00 1.000000000E+00 -3.312687038E-03
 3.000000000E+00 1.000000000E+00 -3.609730853E-03
 2.950000000E+00 1.000000000E+00 -4.092484787E-03
 2.900000000E+00 1.000000000E+00 -4.542604583E-03
 2.850000000E+00 1.000000000E+00 -5.319989352E-03
 2.800000000E+00 1.000000000E+00 -6.005696385E-03
 2.750000000E+00 1.000000000E+00 -6.833209404E-03
 2.700000000E+00 1.000000000E+00 -7.569946764E-03
 2.650000000E+00 1.000000000E+00 -8.719048847E-03
 2.600000000E+00 1.000000000E+00 -9.720243160E-03
 2.550000000E+00 1.000000000E+00 -1.087167569E-02
 2.500000000E+00 1.000000000E+00 -1.219292440E-02
 2.450000000E+00 1.000000000E+00 -1.347042218E-02
 2.400000000E+00 1.000000000E+00 -1.510926982E-02
 2.350000000E+00 1.000000000E+00 -1.648095773E-02
 2.300000000E+00 1.000000000E+00 -1.813797808E-02
 2.250000000E+00 1.000000000E+00 -1.992918945E-02
 2.200000000E+00 1.000000000E+00 -2.178228754E-02
 2.150000000E+00 1.000000000E+00 -2.377836660E-02
 2.100000000E+00 1.000000000E+00 -2.579384445E-02
 2.050000000E+00 1.000000000E+00 -2.809931349E-02
 2.000000000E+00 1.000000000E+00 -3.066382747E-02
 1.950000000E+00 1.000000000E+00 -3.288624542E-02
 1.900000000E+00 1.000000000E+00 -3.601280651E-02
 1.850000000E+00 1.000000000E+00 -3.870931643E-02
 1.800000000E+00 1.000000000E+00 -4.191260727E-02
 1.750000000E+00 1.000000000E+00 -4.544074494E-02
 1.700000000E+00 1.000000000E+00 -4.892434927E-02
 1.650000000E+00 1.000000000E+00 -5.277130437E-02
 1.600000000E+00 1.000000000E+00 -5.679076942E-02
 1.550000000E+00 1.000000000E+00 -6.117087064E-02
 1.500000000E+00 1.000000000E+00 -6.564205628E-02
 1.450000000E+00 1.000000000E+00 -7.059679387E-02
 1.400000000E+00 1.000000000E+00 -7.529733023E-02
 1.350000000E+00 1.000000000E+00 -8.069576329E-02
 1.300000000E+00 1.000000000E+00 -8.581061944E-02
 1.250000000E+00 1.000000000E+00 -9.183542008E-02
 1.200000000E+00 1.000000000E+00 -9.758389220E-02
 1.150000000E+00 1.000000000E+00 -1.031358272E-01
 1.100000000E+00 1.000000000E+00 -1.085184796E-01
 1.050000000E+00 1.000000000E+00 -1.134144543E-01
 1.000000000E+00 1.000000000E+00 -1.185060785E-01
 9.500000000E-01 1.000000000E+00 -1.225146419E-01
 9.000000000E-01 1.000000000E+00 -1.262364443E-01
 8.500000000E-01 1.000000000E+00 -1.293237447E-01
 8.000000000E-01 1.000000000E+00 -1.311428900E-01
 7.500000000E-01 1.000000000E+00 -1.324659019E-01
 7.000000000E-01 1.000000000E+00 -1.321052365E-01
 6.500000000E-01 1.000000000E+00 -1.309209734E-01
 6.000000000E-01 1.000000000E+00 -1.283949808E-01
 5.500000000E-01 1.000000000E+00 -1.248523215E-01
 5.000000000E-01 1.000000000E+00 -1.200456854E-01
 4.500000000E-01 1.000000000E+00 -1.145295226E-01
 4.000000000E-01 1.000000000E+00 -1.079463844E-01
 3.500000000E-01 1.000000000E+00 -1.008693850E-01
 3.000000000E-01 1.000000000E+00 -9.293233894E-02
 2.500000000E-01 1.000000000E+00 -8.489721189E-02
 2.000000000E-01 1.000000000E+00 -7.644365568E-02
 1.500000000E-01 1.000000000E+00 -6.814151147E-02
 1.000000000E-01 1.000000000E+00 -5.989582401E-02
 5.000000000E-02 1.000000000E+00 -5.194696018E-02
 1.733724275E-12 1.000000000E+00 -4.428003560E-02
 -5.000000000E-02 1.000000000E+00 -3.742453065E-02
 -1.000000000E-01 1.000000000E+00 -3.126752670E-02
 -1.500000000E-01 1.000000000E+00 -2.561574746E-02
 -2.000000000E-01 1.000000000E+00 -2.076289030E-02
 -2.500000000E-01 1.000000000E+00 -1.661306400E-02
 -3.000000000E-01 1.000000000E+00 -1.327723518E-02
 -3.500000000E-01 1.000000000E+00 -1.049347427E-02
 -4.000000000E-01 1.000000000E+00 -8.165282623E-03
 -4.500000000E-01 1.000000000E+00 -5.712261421E-03
 1.981283332E+00 -9.578329614E-01 3.419176962E-02
 1.978781617E+00 9.532581395E-01 -2.943899031E-02
 9.051303201E-01 -1.463599380E-03 3.127241109E-01
 8.243498250E-01 -7.321109036E-03 2.613850768E-01
 9.900733804E-01 -4.479512353E-03 3.025074631E-01
 7.467124096E-01 -1.295501340E-02 1.849099450E-01
 6.752365573E-01 -2.108282222E-02 1.066467113E-01
 6.049695602E-01 -2.981962963E-02 1.267384909E-02
 5.359064737E-01 -3.783891003E-02 -9.841233361E-02
 4.717078228E-01 -4.422745224E-02 -2.108389337E-01
 4.189277349E-01 -4.764119563E-02 -2.774024325E-01
 3.606139266E-01 -4.741691621E-02 -2.990740243E-01