TITLE     = "Visualization of the solution"
VARIABLES = "x"
"y"
"Pressure_Coefficient"
ZONE T="Zone"
 STRANDID=0, SOLUTIONTIME=0
 Nodes=12248, Elements=23914, ZONETYPE=FEQuadrilateral
 DATAPACKING=POINT
 DT=(DOUBLE DOUBLE DOUBLE )
 9.999896884E-01 5.155281979E-04 2.601220491E-01
 9.892145991E-01 2.785413992E-03 2.726974874E-01
 9.774517417E-01 5.354913417E-03 1.712926513E-01
 9.599856734E-01 9.042027406E-03 1.071194234E-01
 9.449083209E-01 1.227281615E-02 5.084498577E-02
 9.296928644E-01 1.549339667E-02 7.073408544E-03
 9.181419015E-01 1.792439632E-02 -2.659399169E-02
 9.072616696E-01 2.020107396E-02 -6.043175482E-02
 8.961018920E-01 2.249541320E-02 -9.020876590E-02
 8.850901723E-01 2.471789718E-02 -1.240959012E-01
 8.729460239E-01 2.705573291E-02 -1.365093691E-01
 8.605898619E-01 2.943941951E-02 -1.693020427E-01
 8.485836983E-01 3.168424964E-02 -2.072610310E-01
 8.379048109E-01 3.352249786E-02 -1.929344109E-01
 8.265004158E-01 3.555253893E-02 -2.234333126E-01
 8.138893247E-01 3.769961745E-02 -2.407179283E-01
 8.009348512E-01 3.982993215E-02 -2.459365773E-01
 7.878073454E-01 4.200386256E-02 -2.768063342E-01
 7.752567530E-01 4.398915544E-02 -2.866066868E-01
 7.636812925E-01 4.581685737E-02 -3.136431575E-01
 7.500638962E-01 4.785447568E-02 -3.234690267E-01
 7.360964417E-01 4.990465939E-02 -3.454782601E-01
 7.251832485E-01 5.144109204E-02 -3.530187715E-01
 7.139970064E-01 5.300151557E-02 -3.667381896E-01
 7.022637129E-01 5.462319776E-02 -3.996011135E-01
 6.884231567E-01 5.638285726E-02 -3.993412758E-01
 6.754985452E-01 5.802221224E-02 -4.261646126E-01
 6.652402878E-01 5.926064402E-02 -4.413602565E-01
 6.534466147E-01 6.061320379E-02 -4.499386878E-01
 6.411973834E-01 6.197142601E-02 -4.707463660E-01
 6.291738153E-01 6.320948899E-02 -4.735836186E-01
 6.171993017E-01 6.442544609E-02 -5.032920505E-01
 6.064750552E-01 6.540164351E-02 -5.019336030E-01
 5.941455960E-01 6.647882611E-02 -5.160066547E-01
 5.827144384E-01 6.739882380E-02 -5.200467428E-01
 5.694580674E-01 6.841012090E-02 -5.396248530E-01
 5.570836067E-01 6.924080104E-02 -5.468741521E-01
 5.449953675E-01 6.995268166E-02 -5.424914126E-01
 5.342714787E-01 7.054731250E-02 -5.524592041E-01
 5.228706598E-01 7.109460980E-02 -5.485673103E-01
 5.111107826E-01 7.162223011E-02 -5.635928367E-01
 4.997475445E-01 7.202757895E-02 -5.573623894E-01
 4.865305424E-01 7.243401557E-02 -5.603092935E-01
 4.726381898E-01 7.275859267E-02 -5.605570461E-01
 4.590167701E-01 7.297629118E-02 -5.566461843E-01
 4.461009800E-01 7.310672104E-02 -5.548557419E-01
 4.336974025E-01 7.316112518E-02 -5.522253293E-01
 4.216935337E-01 7.315544039E-02 -5.546657954E-01
 4.096105993E-01 7.306390256E-02 -5.487804267E-01
 3.976323605E-01 7.290814072E-02 -5.433022520E-01
 3.855991662E-01 7.269224524E-02 -5.380312544E-01
 3.742022216E-01 7.244778425E-02 -5.417594090E-01
 3.615154922E-01 7.208503783E-02 -5.358433060E-01
 3.485904038E-01 7.164198160E-02 -5.322023123E-01
 3.351269364E-01 7.109083980E-02 -5.236145310E-01
 3.239742517E-01 7.058905810E-02 -5.228283229E-01
 3.112114966E-01 6.993612647E-02 -5.186134731E-01
 2.979696095E-01 6.917154789E-02 -5.112234060E-01
 2.840246558E-01 6.828337908E-02 -5.078832891E-01
 2.723424733E-01 6.746612489E-02 -5.035142930E-01
 2.606750727E-01 6.658215821E-02 -5.006715930E-01
 2.483541369E-01 6.555571407E-02 -4.915443313E-01
 2.362851650E-01 6.447742879E-02 -4.865794701E-01
 2.239144593E-01 6.328034401E-02 -4.766485282E-01
 2.116459459E-01 6.202134490E-02 -4.756600226E-01
 1.993955523E-01 6.064772978E-02 -4.636717885E-01
 1.869485825E-01 5.916098133E-02 -4.563786995E-01
 1.751333028E-01 5.764665455E-02 -4.471318898E-01
 1.636052132E-01 5.607135594E-02 -4.371099190E-01
 1.515287608E-01 5.431156605E-02 -4.304237503E-01
 1.408664137E-01 5.263941363E-02 -4.144431193E-01
 1.289108843E-01 5.065149814E-02 -4.041885807E-01
 1.177668720E-01 4.866028205E-02 -3.902069019E-01
 1.072879806E-01 4.665671289E-02 -3.721024383E-01
 9.751268476E-02 4.467728734E-02 -3.589850693E-01
 8.675256371E-02 4.233593121E-02 -3.383628517E-01
 7.531877607E-02 3.964031488E-02 -3.153719870E-01
 6.538573653E-02 3.709997609E-02 -2.896363760E-01
 5.549862608E-02 3.434577584E-02 -2.496641542E-01
 4.698472098E-02 3.177088499E-02 -2.220122780E-01
 3.964860365E-02 2.934894525E-02 -1.851268877E-01
 3.302475810E-02 2.697264589E-02 -1.444690163E-01
 2.734255418E-02 2.474435605E-02 -1.078477592E-01
 2.310887352E-02 2.295091003E-02 -6.465669461E-02
 1.906105876E-02 2.108623646E-02 -2.182704512E-02
 1.563329622E-02 1.937449910E-02 3.196515789E-02
 1.245850977E-02 1.764135435E-02 8.175770247E-02
 1.007409953E-02 1.621647924E-02 1.334959619E-01
 8.092538454E-03 1.492744219E-02 1.800641666E-01
 6.330102682E-03 1.366512664E-02 2.601363705E-01
 4.090147559E-03 1.186032593E-02 3.807040816E-01
 2.096165903E-03 9.938392788E-03 4.804249798E-01
 4.789739905E-04 7.971450686E-03 7.283681345E-01
 -1.097629895E-03 5.046252161E-03 9.828370087E-01
 -1.598363277E-03 2.988688648E-03 1.082402286E+00
 -1.633188571E-03 1.361509436E-03 1.110278559E+00
 -1.350608654E-03 -2.610400552E-04 1.050265620E+00
 -8.333874866E-04 -1.695519313E-03 9.169155398E-01
 1.692628866E-04 -3.493831959E-03 7.799372895E-01
 1.542213140E-03 -5.262528080E-03 5.609604990E-01
 3.403094597E-03 -7.114258595E-03 4.227633916E-01
 5.134680308E-03 -8.540878072E-03 2.913931571E-01
 6.998924538E-03 -9.879995137E-03 2.153485074E-01
 8.668971248E-03 -1.095092669E-02 1.398034022E-01
 1.074288972E-02 -1.215735264E-02 9.450162577E-02
 1.305027772E-02 -1.337632723E-02 4.179191830E-02
 1.632077247E-02 -1.493078284E-02 2.239764411E-03
 1.907798834E-02 -1.611782424E-02 -4.650169065E-02
 2.265086770E-02 -1.753905602E-02 -7.304622868E-02
 2.781233937E-02 -1.937692240E-02 -9.835368122E-02
 3.345488012E-02 -2.119058557E-02 -1.288328867E-01
 4.009171575E-02 -2.310501039E-02 -1.471364321E-01
 4.757658765E-02 -2.506331168E-02 -1.635206600E-01
 5.643703789E-02 -2.716573887E-02 -1.772076350E-01
 6.499187648E-02 -2.901214734E-02 -1.924950576E-01
 7.493533939E-02 -3.099053912E-02 -1.990088754E-01
 8.494716883E-02 -3.283597901E-02 -2.100138264E-01
 9.502860159E-02 -3.455952182E-02 -2.166232331E-01
 1.063052937E-01 -3.637297079E-02 -2.279539181E-01
 1.175887063E-01 -3.806107864E-02 -2.359213251E-01
 1.295123398E-01 -3.973142803E-02 -2.436673579E-01
 1.402766705E-01 -4.115865380E-02 -2.543117680E-01
 1.514632702E-01 -4.255657643E-02 -2.629112144E-01
 1.639408916E-01 -4.402299970E-02 -2.713908438E-01
 1.757443696E-01 -4.533100501E-02 -2.826264963E-01
 1.877510101E-01 -4.657693207E-02 -2.912651837E-01
 1.988248527E-01 -4.765737429E-02 -3.003765818E-01
 2.101004571E-01 -4.869773239E-02 -3.121387816E-01
 2.225228697E-01 -4.975990206E-02 -3.221131292E-01
 2.351998538E-01 -5.075330287E-02 -3.303757122E-01
 2.475546747E-01 -5.164162442E-02 -3.402328425E-01
 2.598845065E-01 -5.246079713E-02 -3.553346476E-01
 2.713220417E-01 -5.312444270E-02 -3.611192798E-01
 2.838694453E-01 -5.378135666E-02 -3.744632479E-01
 2.960416973E-01 -5.431449786E-02 -3.811153697E-01
 3.090136945E-01 -5.478769541E-02 -3.919454372E-01
 3.212075233E-01 -5.511662364E-02 -3.952035268E-01
 3.343374431E-01 -5.536623299E-02 -4.004620756E-01
 3.456639051E-01 -5.549310893E-02 -4.080843664E-01
 3.573262691E-01 -5.552354828E-02 -4.123682725E-01
 3.680524230E-01 -5.545230955E-02 -4.131862674E-01
 3.790037334E-01 -5.528063700E-02 -4.100253918E-01
 3.910480440E-01 -5.499258637E-02 -4.091683961E-01
 4.048396051E-01 -5.450331420E-02 -3.984270559E-01
 4.175586104E-01 -5.391142145E-02 -3.875642928E-01
 4.301787913E-01 -5.320397019E-02 -3.775465951E-01
 4.425254762E-01 -5.236724764E-02 -3.558290344E-01
 4.539721310E-01 -5.150034651E-02 -3.396623069E-01
 4.655908048E-01 -5.053336173E-02 -3.237184617E-01
 4.775364101E-01 -4.941728339E-02 -2.942872413E-01
 4.892582595E-01 -4.828278348E-02 -2.850527727E-01
 5.020774603E-01 -4.689945281E-02 -2.507994316E-01
 5.156200528E-01 -4.535767436E-02 -2.232110559E-01
 5.286017656E-01 -4.380475730E-02 -1.951272425E-01
 5.417699814E-01 -4.217295721E-02 -1.686606692E-01
 5.536235571E-01 -4.067447409E-02 -1.494604713E-01
 5.671886802E-01 -3.889643773E-02 -1.216985985E-01
 5.796614885E-01 -3.723233193E-02 -9.945687506E-02
 5.915149450E-01 -3.560779244E-02 -7.174843813E-02
 6.043219566E-01 -3.388125449E-02 -5.753702006E-02
 6.192876101E-01 -3.180529177E-02 -2.759638839E-02
 6.340119243E-01 -2.978909388E-02 -1.013830256E-02
 6.495956779E-01 -2.761217579E-02 1.885650710E-02
 6.621249318E-01 -2.588983625E-02 3.485630629E-02
 6.753404737E-01 -2.409129590E-02 4.947295475E-02
 6.874862313E-01 -2.239973098E-02 7.674364881E-02
 6.999834180E-01 -2.074838988E-02 8.211275747E-02
 7.144054174E-01 -1.881120168E-02 1.050883779E-01
 7.274065018E-01 -1.709059067E-02 1.220886842E-01
 7.396717072E-01 -1.549680997E-02 1.384439637E-01
 7.535592914E-01 -1.372445934E-02 1.571371826E-01
 7.659164071E-01 -1.221217960E-02 1.677702655E-01
 7.794234753E-01 -1.059014257E-02 1.821269231E-01
 7.910455465E-01 -9.202538058E-03 2.014757644E-01
 8.043161631E-01 -7.698809728E-03 2.132015421E-01
 8.148339391E-01 -6.518436130E-03 2.339176896E-01
 8.264710307E-01 -5.313181318E-03 2.425310044E-01
 8.395518661E-01 -4.013258964E-03 2.597304978E-01
 8.520626426E-01 -2.880475484E-03 2.702111215E-01
 8.642063737E-01 -1.859603450E-03 2.837657281E-01
 8.754160404E-01 -1.013694447E-03 2.935690462E-01
 8.866940141E-01 -2.440299868E-04 3.075840410E-01
 8.996062279E-01 4.656332894E-04 3.101636702E-01
 9.095469713E-01 9.215496830E-04 3.180910644E-01
 9.203155041E-01 1.293153036E-03 3.187241977E-01
 9.294121861E-01 1.526345848E-03 3.214123396E-01
 9.380384088E-01 1.664527343E-03 3.234834022E-01
 9.487771988E-01 1.739360159E-03 3.210617466E-01
 9.607700706E-01 1.693216269E-03 3.195859931E-01
 9.752930403E-01 1.458848477E-03 3.172439424E-01
 9.878277779E-01 1.089416095E-03 3.174783802E-01
 -5.000000000E-01 -1.000000000E+00 1.451153095E-02
 3.500000000E+00 -1.000000000E+00 8.657018187E-03
 3.500000000E+00 1.000000000E+00 -2.534812965E-02
 -5.000000000E-01 1.000000000E+00 -1.164747471E-03
 9.946021438E-01 1.650471095E-03 3.667454246E-01
 9.833331704E-01 4.070163704E-03 2.116910925E-01
 9.687187076E-01 7.198470412E-03 1.360424890E-01
 9.524469972E-01 1.065742178E-02 7.626735246E-02
 9.373005927E-01 1.388310641E-02 2.772022004E-02
 9.239173830E-01 1.670889650E-02 -1.071731806E-02
 9.127017856E-01 1.906273514E-02 -4.459362366E-02
 9.016817808E-01 2.134824358E-02 -7.529564260E-02
 8.905960321E-01 2.360665519E-02 -1.099368977E-01
 8.790180981E-01 2.588681504E-02 -1.269095699E-01
 8.667679429E-01 2.824757621E-02 -1.546865770E-01
 8.545867801E-01 3.056183457E-02 -1.929522880E-01
 8.432442546E-01 3.260337375E-02 -1.916514621E-01
 8.322026134E-01 3.453751840E-02 -2.118934688E-01
 8.201948702E-01 3.662607819E-02 -2.329304495E-01
 8.074120879E-01 3.876477480E-02 -2.401145450E-01
 7.943710983E-01 4.091689736E-02 -2.641255093E-01
 7.815320492E-01 4.299650900E-02 -2.792072936E-01
 7.694690228E-01 4.490300640E-02 -3.040453668E-01
 7.568725944E-01 4.683566652E-02 -3.172166769E-01
 7.430801690E-01 4.887956753E-02 -3.346296962E-01
 7.306398451E-01 5.067287572E-02 -3.476564926E-01
 7.195901275E-01 5.222130381E-02 -3.583961674E-01
 7.081303596E-01 5.381235667E-02 -3.896459653E-01
 6.953434348E-01 5.550302751E-02 -3.954315360E-01
 6.819608510E-01 5.720253475E-02 -4.131301157E-01
 6.703694165E-01 5.864142813E-02 -4.356525579E-01
 6.593434513E-01 5.993692391E-02 -4.444841893E-01
 6.473219991E-01 6.129231490E-02 -4.622270747E-01
 6.351855993E-01 6.259045750E-02 -4.686590525E-01
 6.231865585E-01 6.381746754E-02 -4.916889874E-01
 6.118371785E-01 6.491354480E-02 -5.013557146E-01
 6.003103256E-01 6.594023481E-02 -5.092178082E-01
 5.884300172E-01 6.693882495E-02 -5.175097690E-01
 5.760862529E-01 6.790447235E-02 -5.316030202E-01
 5.632708371E-01 6.882546097E-02 -5.442909342E-01
 5.510394871E-01 6.959674135E-02 -5.414045752E-01
 5.396334231E-01 7.024999708E-02 -5.498088753E-01
 5.285710692E-01 7.082096115E-02 -5.483378777E-01
 5.169907212E-01 7.135841995E-02 -5.590293718E-01
 5.054291636E-01 7.182490453E-02 -5.601861004E-01
 4.931390435E-01 7.223079726E-02 -5.598180830E-01
 4.795843661E-01 7.259630412E-02 -5.608878251E-01
 4.658274800E-01 7.286744192E-02 -5.576214527E-01
 4.525588751E-01 7.304150611E-02 -5.553538176E-01
 4.398991913E-01 7.313392311E-02 -5.526131766E-01
 4.276954681E-01 7.315828279E-02 -5.547485453E-01
 4.156520665E-01 7.310967147E-02 -5.515294504E-01
 4.036214799E-01 7.298602164E-02 -5.457341430E-01
 3.916157633E-01 7.280019298E-02 -5.389528512E-01
 3.799006939E-01 7.257001474E-02 -5.425274288E-01
 3.678588569E-01 7.226641104E-02 -5.387266636E-01
 3.550529480E-01 7.186350971E-02 -5.347875721E-01
 3.418586701E-01 7.136641070E-02 -5.252160021E-01
 3.295505941E-01 7.083994895E-02 -5.249964585E-01
 3.175928742E-01 7.026259229E-02 -5.214879490E-01
 3.045905530E-01 6.955383718E-02 -5.153449189E-01
 2.909971327E-01 6.872746348E-02 -5.082077053E-01
 2.781835645E-01 6.787475199E-02 -5.054469801E-01
 2.665087730E-01 6.702414155E-02 -5.037308745E-01
 2.545146048E-01 6.606893614E-02 -4.952894617E-01
 2.423196509E-01 6.501657143E-02 -4.898652416E-01
 2.300998122E-01 6.387888640E-02 -4.806338357E-01
 2.177802026E-01 6.265084445E-02 -4.780269946E-01
 2.055207491E-01 6.133453734E-02 -4.694328604E-01
 1.931720674E-01 5.990435556E-02 -4.599088595E-01
 1.810409427E-01 5.840381794E-02 -4.519785699E-01
 1.693692580E-01 5.685900524E-02 -4.430942175E-01
 1.575669870E-01 5.519146100E-02 -4.332596375E-01
 1.461975873E-01 5.347548984E-02 -4.233805363E-01
 1.348886490E-01 5.164545588E-02 -4.098436586E-01
 1.233388782E-01 4.965589009E-02 -3.967644041E-01
 1.125274263E-01 4.765849747E-02 -3.822761704E-01
 9.213262424E-02 4.350660928E-02 -3.526406645E-01
 8.103566989E-02 4.098812304E-02 -3.253498491E-01
 7.035225630E-02 3.837014548E-02 -3.037021801E-01
 6.044218130E-02 3.572287597E-02 -2.765295625E-01
 6.996360794E-02 -3.000134323E-02 -1.973162989E-01
 7.994125411E-02 -3.191325907E-02 -2.052396382E-01
 8.998788521E-02 -3.369775042E-02 -2.145949092E-01
 1.006669477E-01 -3.546624631E-02 -2.207315926E-01
 1.119470000E-01 -3.721702471E-02 -2.329491657E-01
 1.235505231E-01 -3.889625333E-02 -2.399174612E-01
 1.348945051E-01 -4.044504091E-02 -2.494675817E-01
 1.458699703E-01 -4.185761511E-02 -2.585514187E-01
 1.577020809E-01 -4.328978807E-02 -2.665500230E-01
 1.698426306E-01 -4.467700236E-02 -2.774331990E-01
 1.817476898E-01 -4.595396854E-02 -2.871769844E-01
 1.932879314E-01 -4.711715318E-02 -2.965540912E-01
 2.044626549E-01 -4.817755334E-02 -3.053953068E-01
 2.163116634E-01 -4.922881722E-02 -3.165404513E-01
 2.288613617E-01 -5.025660247E-02 -3.267093846E-01
 2.413772643E-01 -5.119746365E-02 -3.354559781E-01
 2.537195906E-01 -5.205121078E-02 -3.466146861E-01
 2.656032741E-01 -5.279261991E-02 -3.601720805E-01
 2.775957435E-01 -5.345289968E-02 -3.656351659E-01
 2.899555713E-01 -5.404792726E-02 -3.788167315E-01
 3.025276959E-01 -5.455109663E-02 -3.852448320E-01
 3.151106089E-01 -5.495215952E-02 -3.953562184E-01
 3.277724832E-01 -5.524142832E-02 -3.970777313E-01
 3.400006741E-01 -5.542967096E-02 -4.054841144E-01
 3.514950871E-01 -5.550832860E-02 -4.097842648E-01
 3.626893461E-01 -5.548792891E-02 -4.142198470E-01
 3.735280782E-01 -5.536647327E-02 -4.114326639E-01
 3.850258887E-01 -5.513661169E-02 -4.077771532E-01
 3.979438245E-01 -5.474795029E-02 -4.033550794E-01
 4.111991078E-01 -5.420736782E-02 -3.945945045E-01
 4.238687009E-01 -5.355769582E-02 -3.822776111E-01
 4.363521338E-01 -5.278560892E-02 -3.688449478E-01
 4.482488036E-01 -5.193379708E-02 -3.480577079E-01
 4.597814679E-01 -5.101685412E-02 -3.311712678E-01
 4.715636075E-01 -4.997532256E-02 -3.108519794E-01
 4.833973348E-01 -4.885003343E-02 -2.868592950E-01
 4.956678599E-01 -4.759111814E-02 -2.700594523E-01
 5.088487566E-01 -4.612856358E-02 -2.370209783E-01
 5.221109092E-01 -4.458121583E-02 -2.099726120E-01
 5.351858735E-01 -4.298885725E-02 -1.819628493E-01
 5.476967692E-01 -4.142371565E-02 -1.583480380E-01
 5.604061186E-01 -3.978545591E-02 -1.359742653E-01
 5.734250844E-01 -3.806438483E-02 -1.105551878E-01
 5.855882168E-01 -3.642006218E-02 -8.709179556E-02
 5.979184508E-01 -3.474452347E-02 -6.300717515E-02
 6.118047833E-01 -3.284327313E-02 -4.426837811E-02
 6.266497672E-01 -3.079719283E-02 -1.750252109E-02
 6.418038011E-01 -2.870063484E-02 2.937850912E-03
 6.558603048E-01 -2.675100602E-02 2.842010085E-02
 6.687327027E-01 -2.499056607E-02 4.289464330E-02
 6.814133525E-01 -2.324551344E-02 6.035075507E-02
 6.937348247E-01 -2.157406043E-02 8.213427314E-02
 7.071944177E-01 -1.977979578E-02 9.191425634E-02
 7.209059596E-01 -1.795089617E-02 1.138582124E-01
 7.335391045E-01 -1.629370032E-02 1.305795452E-01
 7.466154993E-01 -1.461063465E-02 1.469890167E-01
 7.597378492E-01 -1.296831947E-02 1.640146460E-01
 7.726699412E-01 -1.140116109E-02 1.747374190E-01
 7.852345109E-01 -9.896340314E-03 1.905877254E-01
 7.976808548E-01 -8.450673893E-03 2.074807047E-01
 8.095750511E-01 -7.108622929E-03 2.223629851E-01
 8.206524849E-01 -5.915808724E-03 2.386470424E-01
 8.330114484E-01 -4.663220141E-03 2.495438014E-01
 8.458072543E-01 -3.446867224E-03 2.658295670E-01
 8.581345081E-01 -2.370039467E-03 2.768997367E-01
 8.698112071E-01 -1.436648949E-03 2.889231526E-01
 8.810550272E-01 -6.288622171E-04 2.990252243E-01
 8.931501210E-01 1.108016513E-04 3.092813923E-01
 9.149312377E-01 1.107351360E-03 3.213635737E-01
 9.434078038E-01 1.701943751E-03 3.207243678E-01
 9.547736347E-01 1.716288214E-03 3.188626101E-01
 9.680315554E-01 1.576032373E-03 3.157627784E-01
 9.815604091E-01 1.274132286E-03 3.204674998E-01
 9.939087331E-01 8.024721465E-04 3.800573984E-01
 -5.000000000E-01 9.500000000E-01 -1.419813058E-03
 -5.000000000E-01 9.000000000E-01 -1.338569093E-03
 -5.000000000E-01 8.500000000E-01 -5.212754723E-04
 -5.000000000E-01 8.000000000E-01 1.042809863E-03
 -5.000000000E-01 7.500000000E-01 3.497445899E-03
 -5.000000000E-01 7.000000000E-01 6.672722904E-03
 -5.000000000E-01 6.500000000E-01 1.080069164E-02
 -5.000000000E-01 6.000000000E-01 1.578606404E-02
 -5.000000000E-01 5.500000000E-01 2.167720799E-02
 -5.000000000E-01 5.000000000E-01 2.846936301E-02
 -5.000000000E-01 4.500000000E-01 3.610621999E-02
 -5.000000000E-01 4.000000000E-01 4.442294957E-02
 -5.000000000E-01 3.500000000E-01 5.330846179E-02
 -5.000000000E-01 3.000000000E-01 6.248682836E-02
 -5.000000000E-01 2.500000000E-01 7.169126568E-02
 -5.000000000E-01 2.000000000E-01 8.040787916E-02
 -5.000000000E-01 1.500000000E-01 8.853844036E-02
 -5.000000000E-01 1.000000000E-01 9.518680347E-02
 -5.000000000E-01 5.000000000E-02 1.003650556E-01
 -5.000000000E-01 2.752242878E-12 1.035853850E-01
 -5.000000000E-01 -5.000000000E-02 1.048816652E-01
 -5.000000000E-01 -1.000000000E-01 1.042460337E-01
 -5.000000000E-01 -1.500000000E-01 1.018866060E-01
 -5.000000000E-01 -2.000000000E-01 9.807823053E-02
 -5.000000000E-01 -2.500000000E-01 9.322762865E-02
 -5.000000000E-01 -3.000000000E-01 8.759005442E-02
 -5.000000000E-01 -3.500000000E-01 8.156232206E-02
 -5.000000000E-01 -4.000000000E-01 7.545970319E-02
 -5.000000000E-01 -4.500000000E-01 6.938476024E-02
 -5.000000000E-01 -5.000000000E-01 6.358474699E-02
 -5.000000000E-01 -5.500000000E-01 5.805910495E-02
 -5.000000000E-01 -6.000000000E-01 5.291073916E-02
 -5.000000000E-01 -6.500000000E-01 4.811103396E-02
 -5.000000000E-01 -7.000000000E-01 4.362709851E-02
 -5.000000000E-01 -7.500000000E-01 3.943208116E-02
 -5.000000000E-01 -8.000000000E-01 3.534659461E-02
 -5.000000000E-01 -8.500000000E-01 3.127299626E-02
 -5.000000000E-01 -9.000000000E-01 2.663147513E-02
 -5.000000000E-01 -9.500000000E-01 1.983482101E-02
 -4.500000000E-01 -1.000000000E+00 1.816883690E-02
 -4.000000000E-01 -1.000000000E+00 2.360107826E-02
 -3.500000000E-01 -1.000000000E+00 2.616535418E-02
 -3.000000000E-01 -1.000000000E+00 2.749462193E-02
 -2.500000000E-01 -1.000000000E+00 2.803648957E-02
 -2.000000000E-01 -1.000000000E+00 2.781386432E-02
 -1.500000000E-01 -1.000000000E+00 2.683904886E-02
 -1.000000000E-01 -1.000000000E+00 2.534659262E-02
 -5.000000000E-02 -1.000000000E+00 2.321076983E-02
 -9.424683256E-13 -1.000000000E+00 2.074091946E-02
 5.000000000E-02 -1.000000000E+00 1.776655329E-02
 1.000000000E-01 -1.000000000E+00 1.457302676E-02
 1.500000000E-01 -1.000000000E+00 1.143391047E-02
 2.000000000E-01 -1.000000000E+00 8.391594929E-03
 2.500000000E-01 -1.000000000E+00 5.579181872E-03
 3.000000000E-01 -1.000000000E+00 3.142836579E-03
 3.500000000E-01 -1.000000000E+00 1.209314723E-03
 4.000000000E-01 -1.000000000E+00 -1.096907798E-04
 4.500000000E-01 -1.000000000E+00 -7.473140814E-04
 5.000000000E-01 -1.000000000E+00 -7.389096178E-04
 5.500000000E-01 -1.000000000E+00 9.077793352E-06
 6.000000000E-01 -1.000000000E+00 1.379128797E-03
 6.500000000E-01 -1.000000000E+00 3.376677106E-03
 7.000000000E-01 -1.000000000E+00 5.796327279E-03
 7.500000000E-01 -1.000000000E+00 8.614584080E-03
 8.000000000E-01 -1.000000000E+00 1.159086922E-02
 8.500000000E-01 -1.000000000E+00 1.477078016E-02
 9.000000000E-01 -1.000000000E+00 1.790911884E-02
 9.500000000E-01 -1.000000000E+00 2.103895401E-02
 1.000000000E+00 -1.000000000E+00 2.392032326E-02
 1.050000000E+00 -1.000000000E+00 2.667018681E-02
 1.100000000E+00 -1.000000000E+00 2.904530486E-02
 1.150000000E+00 -1.000000000E+00 3.104604474E-02
 1.200000000E+00 -1.000000000E+00 3.273004603E-02
 1.250000000E+00 -1.000000000E+00 3.407430814E-02
 1.300000000E+00 -1.000000000E+00 3.506782558E-02
 1.350000000E+00 -1.000000000E+00 3.578217921E-02
 1.400000000E+00 -1.000000000E+00 3.618563484E-02
 1.450000000E+00 -1.000000000E+00 3.633308725E-02
 1.500000000E+00 -1.000000000E+00 3.629630441E-02
 1.550000000E+00 -1.000000000E+00 3.605399107E-02
 1.600000000E+00 -1.000000000E+00 3.565669833E-02
 1.650000000E+00 -1.000000000E+00 3.515395317E-02
 1.700000000E+00 -1.000000000E+00 3.451538995E-02
 1.750000000E+00 -1.000000000E+00 3.381841429E-02
 1.800000000E+00 -1.000000000E+00 3.309788151E-02
 1.850000000E+00 -1.000000000E+00 3.226006727E-02
 1.900000000E+00 -1.000000000E+00 3.151101026E-02
 1.950000000E+00 -1.000000000E+00 3.061158095E-02
 2.000000000E+00 -1.000000000E+00 2.978653095E-02
 2.050000000E+00 -1.000000000E+00 2.898977305E-02
 2.100000000E+00 -1.000000000E+00 2.818294113E-02
 2.150000000E+00 -1.000000000E+00 2.749196377E-02
 2.200000000E+00 -1.000000000E+00 2.666237076E-02
 2.250000000E+00 -1.000000000E+00 2.602499929E-02
 2.300000000E+00 -1.000000000E+00 2.525248297E-02
 2.350000000E+00 -1.000000000E+00 2.467160069E-02
 2.400000000E+00 -1.000000000E+00 2.408862139E-02
 2.450000000E+00 -1.000000000E+00 2.353207000E-02
 2.500000000E+00 -1.000000000E+00 2.306099939E-02
 2.550000000E+00 -1.000000000E+00 2.254346802E-02
 2.600000000E+00 -1.000000000E+00 2.211514473E-02
 2.650000000E+00 -1.000000000E+00 2.171440596E-02
 2.700000000E+00 -1.000000000E+00 2.137542251E-02
 2.750000000E+00 -1.000000000E+00 2.102197376E-02
 2.800000000E+00 -1.000000000E+00 2.074469908E-02
 2.850000000E+00 -1.000000000E+00 2.044445225E-02
 2.900000000E+00 -1.000000000E+00 2.017338853E-02
 2.950000000E+00 -1.000000000E+00 1.990525475E-02
 3.000000000E+00 -1.000000000E+00 1.966980741E-02
 3.050000000E+00 -1.000000000E+00 1.938113593E-02
 3.100000000E+00 -1.000000000E+00 1.911884133E-02
 3.150000000E+00 -1.000000000E+00 1.871938135E-02
 3.200000000E+00 -1.000000000E+00 1.829637868E-02
 3.250000000E+00 -1.000000000E+00 1.772809919E-02
 3.300000000E+00 -1.000000000E+00 1.698395184E-02
 3.350000000E+00 -1.000000000E+00 1.596148599E-02
 3.400000000E+00 -1.000000000E+00 1.434615016E-02
 3.450000000E+00 -1.000000000E+00 1.168208731E-02
 3.500000000E+00 -9.500000000E-01 7.913648226E-03
 3.500000000E+00 -9.000000000E-01 9.328044171E-03
 3.500000000E+00 -8.500000000E-01 1.092887452E-02
 3.500000000E+00 -8.000000000E-01 1.230681444E-02
 3.500000000E+00 -7.500000000E-01 1.385211137E-02
 3.500000000E+00 -7.000000000E-01 1.539689105E-02
 3.500000000E+00 -6.500000000E-01 1.694001175E-02
 3.500000000E+00 -6.000000000E-01 1.861300089E-02
 3.500000000E+00 -5.500000000E-01 2.045459965E-02
 3.500000000E+00 -5.000000000E-01 2.230874900E-02
 3.500000000E+00 -4.500000000E-01 2.439602810E-02
 3.500000000E+00 -4.000000000E-01 2.649687590E-02
 3.500000000E+00 -3.500000000E-01 2.879608352E-02
 3.500000000E+00 -3.000000000E-01 3.079898665E-02
 3.500000000E+00 -2.500000000E-01 3.234259025E-02
 3.500000000E+00 -2.000000000E-01 3.301449921E-02
 3.500000000E+00 -1.500000000E-01 3.273756036E-02
 3.500000000E+00 -1.000000000E-01 3.185883471E-02
 3.500000000E+00 -5.000000000E-02 3.080058608E-02
 3.500000000E+00 -2.752242878E-12 3.011831735E-02
 3.500000000E+00 5.000000000E-02 2.959982490E-02
 3.500000000E+00 1.000000000E-01 2.878572691E-02
 3.500000000E+00 1.500000000E-01 2.715346561E-02
 3.500000000E+00 2.000000000E-01 2.464053485E-02
 3.500000000E+00 2.500000000E-01 2.156936861E-02
 3.500000000E+00 3.000000000E-01 1.830422747E-02
 3.500000000E+00 3.500000000E-01 1.520197430E-02
 3.500000000E+00 4.000000000E-01 1.235517344E-02
 3.500000000E+00 4.500000000E-01 9.715432432E-03
 3.500000000E+00 5.000000000E-01 7.287692237E-03
 3.500000000E+00 5.500000000E-01 5.331126694E-03
 3.500000000E+00 6.000000000E-01 4.112442669E-03
 3.500000000E+00 6.500000000E-01 3.691394412E-03
 3.500000000E+00 7.000000000E-01 3.617914883E-03
 3.500000000E+00 7.500000000E-01 2.790869214E-03
 3.500000000E+00 8.000000000E-01 -1.998796116E-04
 3.500000000E+00 8.500000000E-01 -6.236415641E-03
 3.500000000E+00 9.000000000E-01 -1.492311320E-02
 3.500000000E+00 9.500000000E-01 -2.530689275E-02
 3.450000000E+00 1.000000000E+00 -1.545275583E-02
 3.400000000E+00 1.000000000E+00 -7.065513353E-03
 3.350000000E+00 1.000000000E+00 -3.111223816E-03
 3.300000000E+00 1.000000000E+00 -1.264548865E-03
 3.250000000E+00 1.000000000E+00 -2.637778264E-04
 3.200000000E+00 1.000000000E+00 2.877167504E-04
 3.150000000E+00 1.000000000E+00 6.846393995E-04
 3.100000000E+00 1.000000000E+00 6.750053167E-04
 3.050000000E+00 1.000000000E+00 4.566940974E-04
 3.000000000E+00 1.000000000E+00 2.889935194E-04
 2.950000000E+00 1.000000000E+00 -3.598721652E-04
 2.900000000E+00 1.000000000E+00 -8.639129027E-04
 2.850000000E+00 1.000000000E+00 -1.483539532E-03
 2.800000000E+00 1.000000000E+00 -2.220330729E-03
 2.750000000E+00 1.000000000E+00 -3.130214175E-03
 2.700000000E+00 1.000000000E+00 -3.465861438E-03
 2.650000000E+00 1.000000000E+00 -5.216716707E-03
 2.600000000E+00 1.000000000E+00 -5.706416007E-03
 2.550000000E+00 1.000000000E+00 -6.729019633E-03
 2.500000000E+00 1.000000000E+00 -8.087329498E-03
 2.450000000E+00 1.000000000E+00 -9.192915799E-03
 2.400000000E+00 1.000000000E+00 -1.067672179E-02
 2.350000000E+00 1.000000000E+00 -1.184908927E-02
 2.300000000E+00 1.000000000E+00 -1.366264322E-02
 2.250000000E+00 1.000000000E+00 -1.498956054E-02
 2.200000000E+00 1.000000000E+00 -1.698842036E-02
 2.150000000E+00 1.000000000E+00 -1.843526519E-02
 2.100000000E+00 1.000000000E+00 -2.075170936E-02
 2.050000000E+00 1.000000000E+00 -2.233565160E-02
 2.000000000E+00 1.000000000E+00 -2.493219082E-02
 1.950000000E+00 1.000000000E+00 -2.723787057E-02
 1.900000000E+00 1.000000000E+00 -2.988664442E-02
 1.850000000E+00 1.000000000E+00 -3.286715945E-02
 1.800000000E+00 1.000000000E+00 -3.574015725E-02
 1.750000000E+00 1.000000000E+00 -3.902867364E-02
 1.700000000E+00 1.000000000E+00 -4.257557690E-02
 1.650000000E+00 1.000000000E+00 -4.597306389E-02
 1.600000000E+00 1.000000000E+00 -5.029028557E-02
 1.550000000E+00 1.000000000E+00 -5.413755321E-02
 1.500000000E+00 1.000000000E+00 -5.892686041E-02
 1.450000000E+00 1.000000000E+00 -6.386602606E-02
 1.400000000E+00 1.000000000E+00 -6.899989446E-02
 1.350000000E+00 1.000000000E+00 -7.478039204E-02
 1.300000000E+00 1.000000000E+00 -7.970052474E-02
 1.250000000E+00 1.000000000E+00 -8.593185440E-02
 1.200000000E+00 1.000000000E+00 -9.113018044E-02
 1.150000000E+00 1.000000000E+00 -9.744983284E-02
 1.100000000E+00 1.000000000E+00 -1.033500921E-01
 1.050000000E+00 1.000000000E+00 -1.090734379E-01
 1.000000000E+00 1.000000000E+00 -1.146461397E-01
 9.500000000E-01 1.000000000E+00 -1.192865467E-01
 9.000000000E-01 1.000000000E+00 -1.235184335E-01
 8.500000000E-01 1.000000000E+00 -1.266939602E-01
 8.000000000E-01 1.000000000E+00 -1.296706533E-01
 7.500000000E-01 1.000000000E+00 -1.308444885E-01
 7.000000000E-01 1.000000000E+00 -1.314894890E-01
 6.500000000E-01 1.000000000E+00 -1.299452735E-01
 6.000000000E-01 1.000000000E+00 -1.276848446E-01
 5.500000000E-01 1.000000000E+00 -1.240941118E-01
 5.000000000E-01 1.000000000E+00 -1.198397029E-01
 4.500000000E-01 1.000000000E+00 -1.132701270E-01
 4.000000000E-01 1.000000000E+00 -1.071928999E-01
 3.500000000E-01 1.000000000E+00 -9.850710764E-02
 3.000000000E-01 1.000000000E+00 -9.114296814E-02
 2.500000000E-01 1.000000000E+00 -8.215663306E-02
 2.000000000E-01 1.000000000E+00 -7.325015927E-02
 1.500000000E-01 1.000000000E+00 -6.393756594E-02
 1.000000000E-01 1.000000000E+00 -5.538744828E-02
 5.000000000E-02 1.000000000E+00 -4.663484855E-02
 1.733724275E-12 1.000000000E+00 -3.884384562E-02
 -5.000000000E-02 1.000000000E+00 -3.151587416E-02
 -1.000000000E-01 1.000000000E+00 -2.492064835E-02
 -1.500000000E-01 1.000000000E+00 -1.911265118E-02
 -2.000000000E-01 1.000000000E+00 -1.414140134E-02
 -2.500000000E-01 1.000000000E+00 -1.012227091E-02
 -3.000000000E-01 1.000000000E+00 -6.894101033E-03
 -3.500000000E-01 1.000000000E+00 -4.441963758E-03
 -4.000000000E-01 1.000000000E+00 -2.758334473E-03
 -4.500000000E-01 1.000000000E+00 -1.579868120E-03
 8.902100238E-01 -5.305934761E-03 3.002296715E-01
 8.074483359E-01 -1.225364255E-02 2.159440921E-01
 7.378251284E-01 -2.087705696E-02 1.328984126E-01
 6.662261237E-01 -3.073730070E-02 3.855376805E-02
 5.954451782E-01 -4.068713649E-02 -6.795955650E-02
 9.780711974E-01 -3.766120697E-03 3.073132994E-01
 5.336896936E-01 -4.907410382E-02 -1.819917686E-01
 4.690536589E-01 -5.535390976E-02 -3.082278639E-01
 4.146342224E-01 -5.954682064E-02 -3.792179917E-01
 3.544070456E-01 -6.021304588E-02 -4.010501613E-01
 2.992627541E-01 -5.979399382E-02 -3.743930589E-01