TITLE     = "Visualization of the solution"
VARIABLES = "x"
"y"
"Pressure_Coefficient"
ZONE T="Zone"
 STRANDID=0, SOLUTIONTIME=0
 Nodes=687, Elements=1159, ZONETYPE=FEQuadrilateral
 DATAPACKING=POINT
 DT=(DOUBLE DOUBLE DOUBLE )
 9.997961521E-01 5.127286422E-04 2.562518753E-01
 9.857318997E-01 3.442435758E-03 1.837121004E-01
 9.719601870E-01 6.217643619E-03 1.199143034E-01
 9.555214643E-01 9.712286294E-03 6.389717365E-02
 9.405353665E-01 1.277110074E-02 2.721741474E-02
 9.273769855E-01 1.549816970E-02 -7.941924442E-04
 9.158322811E-01 1.783809997E-02 -3.276958406E-02
 9.048191309E-01 2.013723925E-02 -6.524186787E-02
 8.930206299E-01 2.247431502E-02 -8.245620231E-02
 8.811184764E-01 2.477272414E-02 -1.122864038E-01
 8.694978952E-01 2.704337612E-02 -1.354919468E-01
 8.570749760E-01 2.933654003E-02 -1.567699065E-01
 8.450651169E-01 3.154105321E-02 -1.748819497E-01
 8.336519599E-01 3.353520110E-02 -1.884552073E-01
 8.220096231E-01 3.558006510E-02 -2.101298329E-01
 8.096232414E-01 3.769470006E-02 -2.215697614E-01
 7.968885303E-01 3.978150338E-02 -2.419748469E-01
 7.847697139E-01 4.181813821E-02 -2.643274733E-01
 7.722015977E-01 4.379983246E-02 -2.764456317E-01
 7.607455254E-01 4.559215903E-02 -2.918177351E-01
 7.477344871E-01 4.756570235E-02 -3.087314270E-01
 7.345525622E-01 4.953997582E-02 -3.316285153E-01
 7.237737775E-01 5.109298974E-02 -3.398405358E-01
 7.125775814E-01 5.264322460E-02 -3.553563210E-01
 7.010974884E-01 5.424566939E-02 -3.760493988E-01
 6.884405017E-01 5.592763796E-02 -3.910159956E-01
 6.759495735E-01 5.750831962E-02 -4.050154048E-01
 6.650677919E-01 5.884511024E-02 -4.205887078E-01
 6.536273956E-01 6.021427363E-02 -4.345874885E-01
 6.423055530E-01 6.148315594E-02 -4.525755055E-01
 6.307458878E-01 6.275710464E-02 -4.646488750E-01
 6.191309094E-01 6.391241401E-02 -4.708695729E-01
 6.088647842E-01 6.491675973E-02 -4.863551429E-01
 5.973246694E-01 6.599406898E-02 -5.002474002E-01
 5.859737992E-01 6.697543710E-02 -5.115531645E-01
 5.726954937E-01 6.801874936E-02 -5.190624804E-01
 5.603417754E-01 6.889621168E-02 -5.237015071E-01
 5.479771495E-01 6.970031559E-02 -5.352002264E-01
 5.370495319E-01 7.037053257E-02 -5.418616513E-01
 5.251559019E-01 7.098846883E-02 -5.444428616E-01
 5.129445791E-01 7.156583667E-02 -5.525045648E-01
 5.020665526E-01 7.199823111E-02 -5.488439714E-01
 4.890884161E-01 7.242033631E-02 -5.485885992E-01
 4.761451483E-01 7.277973741E-02 -5.495313357E-01
 4.630262852E-01 7.304749638E-02 -5.498062582E-01
 4.499298930E-01 7.325296849E-02 -5.515919013E-01
 4.373027682E-01 7.335282862E-02 -5.497947778E-01
 4.245229363E-01 7.337895036E-02 -5.496877119E-01
 4.122223556E-01 7.334556431E-02 -5.467379238E-01
 3.993918002E-01 7.320547849E-02 -5.426262513E-01
 3.873988092E-01 7.303543389E-02 -5.421651276E-01
 3.753884435E-01 7.278314978E-02 -5.410274888E-01
 3.623065948E-01 7.244262099E-02 -5.376705945E-01
 3.495017588E-01 7.200565189E-02 -5.294019311E-01
 3.365786672E-01 7.151233405E-02 -5.294488112E-01
 3.257825375E-01 7.104434818E-02 -5.262670056E-01
 3.132693768E-01 7.042088360E-02 -5.226695840E-01
 3.005189598E-01 6.969875842E-02 -5.148623191E-01
 2.868549824E-01 6.884536147E-02 -5.122650576E-01
 2.745664716E-01 6.799446791E-02 -5.085780242E-01
 2.627491653E-01 6.711596251E-02 -5.028907134E-01
 2.501899004E-01 6.608029455E-02 -4.986251336E-01
 2.378334254E-01 6.498490274E-02 -4.913855351E-01
 2.255270332E-01 6.379268318E-02 -4.850384381E-01
 2.135076374E-01 6.254776567E-02 -4.765647477E-01
 2.014199197E-01 6.118963286E-02 -4.661583791E-01
 1.890999228E-01 5.972573534E-02 -4.620612382E-01
 1.772172153E-01 5.820651352E-02 -4.504479410E-01
 1.654960215E-01 5.659781024E-02 -4.441688370E-01
 1.537205428E-01 5.488654971E-02 -4.323897907E-01
 1.426743269E-01 5.315214396E-02 -4.204383513E-01
 1.311445683E-01 5.123650283E-02 -4.101509139E-01
 1.199348569E-01 4.923990741E-02 -3.978792273E-01
 1.090260223E-01 4.716842994E-02 -3.830778466E-01
 9.881009907E-02 4.508604109E-02 -3.629515244E-01
 8.791765571E-02 4.272484407E-02 -3.393641520E-01
 7.649805397E-02 4.003675655E-02 -3.098460854E-01
 6.634574383E-02 3.745029122E-02 -2.844950457E-01
 5.647816882E-02 3.471477702E-02 -2.533516383E-01
 4.742819071E-02 3.197519109E-02 -2.252226578E-01
 3.964108601E-02 2.940346859E-02 -2.013309109E-01
 3.273769841E-02 2.690949477E-02 -1.826584629E-01
 2.678995952E-02 2.456133813E-02 -1.683757986E-01
 2.243832313E-02 2.268654108E-02 -1.593800793E-01
 1.826372184E-02 2.073518373E-02 -1.235738703E-01
 1.493248530E-02 1.902736537E-02 -9.137331350E-02
 1.194642019E-02 1.735536009E-02 -1.237439659E-01
 9.784940630E-03 1.603588089E-02 1.111776334E-02
 7.853302173E-03 1.475374866E-02 3.053316458E-03
 6.064954214E-03 1.344470121E-02 -1.294822747E-02
 3.731934587E-03 1.149044745E-02 1.960594656E-01
 1.838764525E-03 9.579861537E-03 5.452884224E-02
 3.388673649E-04 7.662087679E-03 8.714869449E-01
 -1.112720696E-03 4.910460673E-03 4.896681486E-01
 -1.674261526E-03 2.829366829E-03 9.526930710E-01
 -1.802127808E-03 1.123586670E-03 5.362372260E-01
 -1.608925988E-03 -7.570558810E-04 1.198734995E+00
 -1.041173004E-03 -2.759984694E-03 7.212952502E-01
 1.147502480E-04 -5.164274015E-03 7.142106191E-01
 1.822084421E-03 -7.639088202E-03 6.118248744E-01
 4.059998784E-03 -1.014547516E-02 4.760967747E-01
 6.063039415E-03 -1.201689895E-02 3.953697710E-01
 8.406099863E-03 -1.393139921E-02 3.495983311E-01
 1.025672536E-02 -1.529192924E-02 2.727078662E-01
 1.254016999E-02 -1.683728397E-02 2.521382297E-01
 1.507326029E-02 -1.840494201E-02 1.880818270E-01
 1.852818206E-02 -2.035470121E-02 1.349125336E-01
 2.176450379E-02 -2.202525549E-02 7.541048470E-02
 2.587949857E-02 -2.397524938E-02 3.314502117E-02
 3.134645894E-02 -2.632898279E-02 -2.655731572E-02
 3.719479591E-02 -2.860552818E-02 -8.210342162E-02
 4.413572326E-02 -3.106015548E-02 -1.170728132E-01
 5.184958130E-02 -3.352039307E-02 -1.710548098E-01
 6.107249483E-02 -3.619411588E-02 -1.991292694E-01
 7.005369663E-02 -3.857350349E-02 -2.353406234E-01
 8.057972789E-02 -4.111382738E-02 -2.551738707E-01
 9.068152308E-02 -4.335329682E-02 -2.764142937E-01
 1.013480127E-01 -4.554870725E-02 -2.930382328E-01
 1.128162965E-01 -4.772655666E-02 -3.092750110E-01
 1.243552640E-01 -4.976114631E-02 -3.236239038E-01
 1.363257021E-01 -5.171497911E-02 -3.383878738E-01
 1.469893157E-01 -5.335141718E-02 -3.542471336E-01
 1.586593091E-01 -5.500971898E-02 -3.653356950E-01
 1.709006876E-01 -5.663766339E-02 -3.753006996E-01
 1.826041639E-01 -5.808732659E-02 -3.920342448E-01
 1.944287568E-01 -5.944324285E-02 -4.032173713E-01
 2.053620219E-01 -6.060884148E-02 -4.147177884E-01
 2.168976814E-01 -6.173441559E-02 -4.198468389E-01
 2.291090190E-01 -6.284134090E-02 -4.328093406E-01
 2.411759794E-01 -6.381512433E-02 -4.443073624E-01
 2.531171441E-01 -6.470470130E-02 -4.555247476E-01
 2.651565969E-01 -6.547194719E-02 -4.677339071E-01
 2.760118842E-01 -6.608217955E-02 -4.740129827E-01
 2.882579267E-01 -6.668159366E-02 -4.813776937E-01
 3.000253439E-01 -6.712669879E-02 -4.888810175E-01
 3.126447499E-01 -6.749185175E-02 -4.890968527E-01
 3.242746294E-01 -6.773888320E-02 -4.975094350E-01
 3.367530406E-01 -6.784915179E-02 -5.013715236E-01
 3.473260999E-01 -6.785950065E-02 -4.996894927E-01
 3.588436544E-01 -6.777412444E-02 -5.005681003E-01
 3.697337508E-01 -6.756751984E-02 -4.975408581E-01
 3.806430399E-01 -6.728423387E-02 -4.913584353E-01
 3.923538923E-01 -6.684891135E-02 -4.858289588E-01
 4.055183232E-01 -6.622079760E-02 -4.711155244E-01
 4.176179171E-01 -6.549481302E-02 -4.572858268E-01
 4.299399853E-01 -6.464128941E-02 -4.343656842E-01
 4.423963726E-01 -6.368760765E-02 -4.187919155E-01
 4.544588327E-01 -6.262045354E-02 -4.008934180E-01
 4.661853611E-01 -6.148215383E-02 -3.757290036E-01
 4.784064591E-01 -6.018782780E-02 -3.488879385E-01
 4.904611409E-01 -5.885117501E-02 -3.236048115E-01
 5.030521154E-01 -5.737362802E-02 -3.018510512E-01
 5.165402293E-01 -5.565869063E-02 -2.707700124E-01
 5.293671489E-01 -5.396809801E-02 -2.407910701E-01
 5.418249369E-01 -5.228886753E-02 -2.172199709E-01
 5.546690822E-01 -5.050592124E-02 -1.942209271E-01
 5.680156946E-01 -4.855962843E-02 -1.652252943E-01
 5.809437037E-01 -4.664594308E-02 -1.328129104E-01
 5.938915610E-01 -4.473968595E-02 -1.114091877E-01
 6.069067717E-01 -4.277297854E-02 -9.240714092E-02
 6.210606098E-01 -4.064192250E-02 -6.647142351E-02
 6.348498464E-01 -3.853428364E-02 -4.834107309E-02
 6.490093470E-01 -3.632583469E-02 -1.976239890E-02
 6.616582870E-01 -3.436326981E-02 3.830795352E-03
 6.750105023E-01 -3.232969716E-02 2.074747070E-02
 6.874212623E-01 -3.044018894E-02 3.380644933E-02
 6.994137168E-01 -2.856166475E-02 5.632070876E-02
 7.141177058E-01 -2.634442970E-02 7.596949647E-02
 7.268871665E-01 -2.437041141E-02 9.513297990E-02
 7.386620045E-01 -2.264093049E-02 1.134339432E-01
 7.522604465E-01 -2.059650794E-02 1.266528259E-01
 7.646134496E-01 -1.876710914E-02 1.514347926E-01
 7.783641219E-01 -1.679926179E-02 1.653022724E-01
 7.906668782E-01 -1.506477594E-02 1.825665483E-01
 8.033387661E-01 -1.329969987E-02 1.975417387E-01
 8.143209815E-01 -1.180082466E-02 2.172978289E-01
 8.259319663E-01 -1.030962914E-02 2.310499749E-01
 8.388504982E-01 -8.686118759E-03 2.433241004E-01
 8.510141373E-01 -7.171051577E-03 2.657646130E-01
 8.635568023E-01 -5.751734134E-03 2.834060900E-01
 8.742913604E-01 -4.594022408E-03 2.964896931E-01
 8.857162595E-01 -3.501352621E-03 3.082355490E-01
 8.983591199E-01 -2.382120816E-03 3.170731784E-01
 9.085776806E-01 -1.584141981E-03 3.325953364E-01
 9.194787741E-01 -8.590751677E-04 3.401378303E-01
 9.298199415E-01 -2.967349137E-04 3.455526331E-01
 9.393897653E-01 1.228744222E-04 3.496118496E-01
 9.513700604E-01 5.041596014E-04 3.509606708E-01
 9.642859697E-01 7.466592942E-04 3.647345928E-01
 9.772816300E-01 8.145650500E-04 3.610808379E-01
 9.895310402E-01 7.174601196E-04 3.622434209E-01
 -5.000000000E-01 -1.000000000E+00 2.946529186E-02
 3.500000000E+00 -1.000000000E+00 1.731255669E-02
 3.500000000E+00 1.000000000E+00 2.035243107E-03
 -5.000000000E-01 1.000000000E+00 -2.627871489E-03
 -5.000000000E-01 5.000000000E-01 4.449034866E-02
 -5.000000000E-01 2.752797990E-12 1.111660378E-01
 -5.000000000E-01 -5.000000000E-01 6.446152071E-02
 -9.421907698E-13 -1.000000000E+00 1.585768176E-02
 5.000000000E-01 -1.000000000E+00 -1.319554129E-02
 1.000000000E+00 -1.000000000E+00 7.337104609E-03
 1.500000000E+00 -1.000000000E+00 2.927691683E-02
 2.000000000E+00 -1.000000000E+00 2.732628500E-02
 2.500000000E+00 -1.000000000E+00 2.064695260E-02
 3.000000000E+00 -1.000000000E+00 1.734252197E-02
 3.500000000E+00 -5.000000000E-01 1.968876094E-02
 3.500000000E+00 -2.752797990E-12 1.870506193E-02
 3.500000000E+00 5.000000000E-01 9.201056442E-03
 3.000000000E+00 1.000000000E+00 -1.515437177E-03
 2.500000000E+00 1.000000000E+00 -8.450984133E-03
 2.000000000E+00 1.000000000E+00 -2.273015862E-02
 1.500000000E+00 1.000000000E+00 -6.316149103E-02
 1.000000000E+00 1.000000000E+00 -1.174763503E-01
 5.000000000E-01 1.000000000E+00 -1.069207498E-01
 1.733724275E-12 1.000000000E+00 -2.926187952E-02
 6.837104804E-01 -4.090726182E-02 2.695691773E-02
 7.856104721E-01 -2.699027079E-02 1.673677510E-01
 9.040968836E-01 -1.076353491E-02 3.159908875E-01
 5.869311647E-01 -5.717117607E-02 -1.242222717E-01
 4.952980209E-01 -7.389807092E-02 -3.003991002E-01
 7.093869824E-01 6.335198290E-02 -3.543361144E-01
 2.786164501E-01 7.785589704E-02 -4.959270315E-01
 9.126490046E-01 3.301500630E-02 -4.582168999E-02
 2.483054411E-01 -7.528967243E-02 -4.307754379E-01
 8.039707808E-01 5.296451414E-02 -2.286423284E-01
 3.411307712E-01 -7.682551451E-02 -4.819243399E-01
 5.918939328E-01 7.903377993E-02 -4.893162633E-01
 3.790547896E-01 9.061278340E-02 -5.197111144E-01
 4.971944438E-01 8.423241760E-02 -5.352389819E-01
 1.842930504E+00 -5.691445699E-01 2.791291107E-02
 1.785632196E+00 6.549320913E-01 -1.869965158E-02
 3.031183483E+00 2.156803981E-01 1.099347775E-02
 7.538678036E-01 -5.143694565E-01 7.205527339E-03
 4.107739326E-01 -7.905997467E-02 -4.360520635E-01
 3.613464239E-01 -7.187055151E-01 -3.053721457E-02
 1.266509863E-01 -6.465209398E-02 -2.986684949E-01
 7.571040214E-01 5.665175344E-01 -1.530027822E-01
 3.280526999E-01 6.848700610E-01 -1.324186024E-01
 1.216842411E-01 6.342823586E-02 -3.717238791E-01
 1.814128521E-01 7.345085813E-02 -4.328424056E-01
 2.734827970E+00 -5.327115249E-01 1.677121108E-02
 1.156670533E+00 5.960597326E-01 -6.375801086E-02
 9.896860095E-01 3.456925362E-01 -6.439911808E-02
 1.281904679E+00 -6.169918062E-01 4.174989091E-02
 1.493822336E+00 -2.548626895E-01 4.225061241E-02
 2.250015381E+00 -5.836107808E-01 1.951043915E-02
 2.035815679E+00 -2.040905607E-01 1.635029127E-02
 2.420108153E+00 -1.843695698E-01 1.282430861E-02
 2.184551932E+00 1.580657209E-01 6.115071415E-03
 1.778318005E+00 1.147377112E-01 9.626824290E-03
 -2.710081149E-01 -2.367729010E-01 1.331204345E-01
 -1.458274795E-01 -6.015120973E-01 2.667766920E-02
 9.338955638E-02 -4.111844206E-01 -2.278667957E-02
 7.269564200E-02 -5.123681248E-02 -1.932581967E-01
 1.860369761E-01 -7.290328149E-02 -3.681372736E-01
 -2.443821019E-01 2.139956695E-01 1.058601611E-01
 -1.219438724E-01 6.333297796E-01 -2.223597186E-02
 1.057646530E-01 3.946386459E-01 -9.232324742E-02
 6.821477129E-02 4.871112113E-02 -2.711501968E-01
 2.240130460E+00 5.556731507E-01 -3.162679136E-03
 2.746189860E+00 5.962625799E-01 3.335642210E-03
 -2.356306944E-01 -5.264249852E-03 1.452540448E-01
 -1.193405614E-01 -1.420980711E-01 1.711211801E-01
 -8.130729907E-02 -3.286565530E-01 5.638044472E-02
 8.675283526E-03 -1.827205895E-01 4.904760809E-02
 3.869633101E-02 -3.540036329E-02 -5.736793051E-02
 1.580060456E-01 -2.177980620E-01 -1.483614035E-01
 -3.725625563E-02 -9.822046467E-02 2.661992038E-01
 -1.092607068E-01 -2.382624747E-02 3.384920884E-01
 3.000591140E-02 -1.160598672E-01 5.689634154E-02
 3.109349295E+00 -2.612922899E-01 1.682945552E-02
 -5.040781967E-02 -3.890672651E-02 3.113920845E-01
 -8.359806804E-03 -5.797475770E-02 3.846707852E-01
 1.021706808E-02 -1.800924877E-02 2.607981992E-01
 2.236055062E-02 -2.810972220E-02 7.143776947E-02
 2.688459664E-02 -7.488822123E-02 9.922514682E-02
 5.606047852E-02 -4.518908634E-02 -1.345235685E-01
 6.850272911E-02 -9.201629201E-02 -1.061351454E-01
 9.143092919E-02 -5.579127697E-02 -2.389435406E-01
 8.239044136E-02 -1.383205894E-01 -7.677258241E-02
 1.116237909E-01 -1.037461189E-01 -2.049721840E-01
 -1.044244799E-02 -2.021108603E-02 6.315148098E-01
 -2.526807215E-02 7.871204624E-03 6.396241111E-01
 1.466046990E-02 2.508968319E-02 -5.647812501E-03
 3.369407223E-03 -1.436405471E-02 5.113342157E-01
 2.563045602E+00 2.040940439E-01 5.786910186E-03
 2.666408944E-03 -3.927086849E-02 2.298427392E-01
 1.836357339E-02 -5.072728893E-02 1.638754698E-01
 1.332359192E-01 -1.531621336E-01 -1.812580106E-01
 1.589485339E-01 -1.084810181E-01 -2.745906027E-01
 1.505923781E-01 -6.419839116E-02 -3.383831377E-01
 1.871891645E-01 -1.568153277E-01 -2.421068441E-01
 2.944068955E-01 -8.029599945E-02 -4.605021815E-01
 2.365848501E-01 -2.090543060E-01 -2.273986393E-01
 3.149208721E-01 -7.820671332E-02 -4.718874222E-01
 2.806047563E-01 -1.540029599E-01 -3.225351054E-01
 3.202115101E-01 -2.101986593E-01 -2.628603277E-01
 3.045724109E-01 -2.838181081E-01 -1.969198769E-01
 3.968471287E-01 -2.687156520E-01 -1.911247920E-01
 4.407469452E-01 -1.851297346E-01 -2.458499396E-01
 5.029030646E-01 -2.496471381E-01 -1.504819494E-01
 4.606355486E-01 -7.662930681E-02 -3.637444011E-01
 4.359743404E-01 -7.636927847E-02 -4.062641850E-01
 3.772638393E-01 -7.863767086E-02 -4.683644217E-01
 4.996343131E-01 -3.659497982E-01 -1.047644590E-01
 5.106772426E-01 -1.588783723E-01 -1.993379094E-01
 5.822765770E-01 -2.121401730E-01 -9.613703290E-02
 5.542021028E-01 -6.200093103E-02 -1.865253378E-01
 5.254566884E-01 -6.444472651E-02 -2.451654367E-01
 5.794706288E-01 -1.411635259E-01 -1.209007146E-01
 6.437146008E-01 -4.887463789E-02 -3.124730158E-02
 6.540360342E-01 -1.626629089E-01 -2.665609873E-02
 7.340057152E-01 -3.415616124E-02 9.979847170E-02
 6.639041705E-01 -2.642034163E-01 -2.042850993E-02
 7.451781348E-01 -1.919865472E-01 5.461964317E-02
 8.459609404E-01 -1.987902905E-02 2.456764668E-01
 8.243752077E-01 -2.355463336E-02 2.191881945E-01
 8.707723371E-01 -1.351891952E-02 2.830857812E-01
 7.144282959E-01 -1.231338785E-01 4.319863178E-02
 8.189753639E-01 -1.455291087E-01 1.246354494E-01
 8.314179290E-01 -2.128861627E-01 9.784700440E-02
 9.720174227E-01 -1.136850863E-02 3.300993149E-01
 8.980112164E-01 -1.545580110E-01 1.596286415E-01
 9.301061090E-01 -2.577538894E-01 1.074288569E-01
 1.010275416E+00 -1.790320968E-01 1.512652169E-01
 1.045816213E+00 -2.790602528E-01 1.018177568E-01
 1.147598827E+00 -2.006551525E-01 9.724525919E-02
 1.096056882E+00 -9.067835486E-02 1.438970028E-01
 1.200232959E+00 -1.012642272E-01 9.207575585E-02
 1.167420822E+00 1.524882577E-02 7.502562349E-02
 1.305433075E+00 -1.021155691E-02 4.904641848E-02
 1.243645487E+00 1.540628074E-01 3.418761590E-02
 8.604915455E-01 -9.392476161E-02 1.934731975E-01
 9.402106847E-01 -9.821264473E-02 2.210348745E-01
 9.356006331E-01 -1.162738368E-02 3.341026415E-01
 1.102510844E+00 1.296808243E-01 5.677029120E-02
 9.678736015E-01 2.219874721E-02 8.579450489E-02
 8.104602769E-01 -8.884120606E-02 1.556942171E-01
 3.316795541E-01 -1.448982044E-01 -3.490246815E-01
 9.012268491E-01 -6.295990071E-02 2.459453407E-01
 6.646792535E-01 -1.074732563E-01 -1.096317759E-02
 6.166144903E-01 -9.752295745E-02 -6.863739673E-02
 6.150208806E-01 -5.572150075E-02 -7.601010912E-02
 4.562609876E-01 -1.343202260E-01 -2.915534415E-01
 4.121798450E-01 -1.362409405E-01 -3.380084445E-01
 1.462404332E+00 1.519264431E-01 1.800491078E-02
 8.374765944E-01 -5.706399836E-02 2.055776090E-01
 5.376044032E-01 -1.106128420E-01 -1.953188614E-01
 6.998609817E-01 -8.350134661E-02 3.849968917E-02
 7.086474302E-01 -3.849008379E-02 6.570677767E-02
 7.403200240E-01 -7.883089393E-02 9.050362396E-02
 7.612676490E-01 -3.161068654E-02 1.356552386E-01
 1.080524321E+00 4.774110319E-03 1.044542331E-01
 1.040321363E+00 7.648251705E-02 8.910228564E-02
 1.041571249E+00 -4.868272675E-02 1.890469855E-01
 9.452101640E-01 -4.073725221E-01 5.953466952E-02
 1.972804338E-01 -1.129161493E-01 -3.157998803E-01
 2.244379272E-01 -7.573868003E-02 -4.052721961E-01
 7.819081431E-01 -3.169206022E-01 3.896804716E-02
 9.782992419E-01 -6.394837608E-01 3.122188158E-02
 6.387058427E-01 -3.847108895E-01 -3.119822708E-02
 1.296590115E+00 -2.098104961E-01 6.411372389E-02
 1.344348969E+00 3.595070340E-01 -1.100586697E-02
 5.771601907E-01 -9.521488590E-02 -1.357011729E-01
 1.144726995E+00 2.848748894E-01 -1.070337805E-02
 9.330296737E-01 2.124324525E-01 -7.378105271E-02
 8.529334832E-01 4.569848995E-02 -1.585084373E-01
 8.783072040E-01 3.598036459E-02 -1.151241046E-01
 8.304528780E-01 4.507759873E-02 -1.925334811E-01
 6.713986773E-01 -7.606734963E-02 2.865991441E-03
 8.059469965E-01 -5.467197372E-02 1.742888917E-01
 2.992448641E-01 -1.192537102E-01 -3.890460873E-01
 2.629470458E-01 -1.160145906E-01 -3.758477917E-01
 2.709223442E-01 -7.611131299E-02 -4.501345853E-01
 1.012457763E+00 -9.891857309E-02 2.017078998E-01
 9.875927329E-01 -5.549182982E-02 2.589152790E-01
 9.455436811E-01 -5.235217435E-02 2.660977376E-01
 9.175017408E-01 -3.755112573E-02 2.900496600E-01
 8.938429308E-01 -3.722052386E-02 2.694299793E-01
 9.230310719E-01 -2.072548301E-02 3.124423881E-01
 9.390553952E-01 -2.932737656E-02 3.043970701E-01
 9.482738659E-01 -1.680397579E-02 3.180607436E-01
 9.621107329E-01 -2.822417333E-02 3.260865346E-01
 9.817556977E-01 -2.412520698E-02 2.757627123E-01
 6.432077419E-01 -7.376551438E-02 -3.368036931E-02
 9.873517496E-01 -8.334446530E-03 4.297673769E-01
 8.694734515E-01 -5.417322892E-02 2.323927526E-01
 7.461726291E-01 -3.523806371E-02 1.143832946E-01
 7.547855215E-01 -5.029823925E-02 1.191944325E-01
 7.724338424E-01 -4.087044047E-02 1.465670409E-01
 8.057845075E-01 -3.673931153E-02 1.865563478E-01
 7.724579070E-01 -2.700755375E-02 1.530771611E-01
 1.512733344E+00 -6.320678125E-02 2.912501959E-02
 6.628460281E-01 -5.418154541E-02 -1.842411934E-03
 6.020943545E-01 -7.358939776E-02 -1.040959614E-01
 5.711305699E-01 -7.197231138E-02 -1.494354326E-01
 5.525220342E-01 -8.476161397E-02 -1.808027586E-01
 5.394988475E-01 -5.299995362E-01 -4.595900297E-02
 1.164349944E+00 -3.781844582E-01 6.812554770E-02
 4.309493763E-01 -1.092644741E-01 -3.538370684E-01
 8.347890685E-01 -1.960184548E-02 2.320846556E-01
 1.033182946E+00 -4.386265343E-03 1.695716604E-01
 1.025345611E+00 3.048431074E-02 1.333001609E-01
 9.926939253E-01 1.364903841E-02 1.717354361E-01
 9.864050349E-01 7.236688854E-02 6.559294062E-02
 8.605048188E-01 -1.762808612E-02 2.656216005E-01
 8.548278541E-01 -3.532369262E-02 2.430669383E-01
 3.334862483E-01 -1.093403539E-01 -4.126626916E-01
 7.349630412E-01 -4.928368901E-02 9.583598572E-02
 8.212556697E-01 -3.923543685E-02 2.032775318E-01
 3.384950070E-01 -4.233705139E-01 -1.043669455E-01
 6.304376044E-01 -5.430209047E-02 -5.171723065E-02
 9.246860824E-01 -8.811195813E-03 3.284079621E-01
 5.376631778E-01 -6.455835865E-02 -2.160933304E-01
 7.218346321E-01 -3.901375833E-02 8.277452424E-02
 1.476969333E+00 5.921848074E-01 -2.534096377E-02
 8.800259560E-01 -1.244342665E-02 2.907438544E-01
 8.112260667E-01 -2.466506641E-02 2.031212357E-01
 8.767245898E-01 -2.761799623E-02 2.727040015E-01
 4.629320117E-01 -1.007957084E-01 -3.244798809E-01
 4.948162517E-01 -1.167339038E-01 -2.615813763E-01
 1.033712757E+00 2.346280318E-01 -1.553969445E-02
 8.373368709E-01 3.038025578E-01 -1.572735208E-01
 7.943363913E-01 1.959309185E-01 -2.024503063E-01
 6.484635717E-01 7.271264677E-02 -4.316069421E-01
 7.250350874E-01 2.597700476E-01 -2.312693473E-01
 7.567623962E-01 5.833423383E-02 -2.915831305E-01
 7.800092934E-01 5.553637038E-02 -2.618036937E-01
 6.763655776E-01 1.936268406E-01 -3.061558102E-01
 6.239421828E-01 2.601827398E-01 -3.029253566E-01
 5.443096800E-01 8.094292370E-02 -5.209383230E-01
 5.831716035E-01 1.749364983E-01 -3.924365971E-01
 5.190756978E-01 2.428773659E-01 -3.530941792E-01
 4.313164025E-01 8.809005409E-02 -5.314426952E-01
 4.581272688E-01 8.704425684E-02 -5.357063686E-01
 5.415886127E-01 3.429753652E-01 -2.809907933E-01
 4.277490032E-01 3.164880593E-01 -3.040765868E-01
 8.712332261E-01 1.319582180E-01 -1.103659752E-01
 4.198729529E-01 2.054895936E-01 -3.949277350E-01
 3.306352494E-01 8.461637145E-02 -5.121810119E-01
 3.076338526E-01 8.322927248E-02 -5.024120672E-01
 7.396717482E-01 1.260234088E-01 -2.839052804E-01
 5.097708858E-01 1.615928458E-01 -4.367420646E-01
 6.401479194E-01 1.360858038E-01 -3.827086485E-01
 3.262540358E-01 2.697633399E-01 -3.119855100E-01
 2.307289844E-01 7.798400006E-02 -4.681350581E-01
 3.254381501E-01 1.759474261E-01 -4.001790934E-01
 2.417942839E-01 2.125809527E-01 -3.168463881E-01
 4.494580563E-01 1.461337594E-01 -4.634222724E-01
 2.561735698E-01 1.500023601E-01 -3.928775635E-01
 1.978600957E-01 1.579470811E-01 -3.342768885E-01
 5.536000205E-01 1.315736289E-01 -4.564115172E-01
 5.675356597E-01 8.006288783E-02 -5.074272808E-01
 3.870677489E-01 1.448094280E-01 -4.601803503E-01
 3.431992396E-01 1.244143939E-01 -4.697287378E-01
 3.542654705E-01 8.556431227E-02 -5.172477968E-01
 2.983361034E-01 1.217770757E-01 -4.490207035E-01
 5.142747653E-01 1.179793765E-01 -4.898604235E-01
 5.185685868E-01 8.356153050E-02 -5.313647557E-01
 4.769007077E-01 1.187814723E-01 -4.924030209E-01
 2.208918448E-01 1.162222130E-01 -4.089437463E-01
 1.754241636E-01 1.171039148E-01 -3.615317249E-01
 1.293157656E-01 1.399674740E-01 -2.590234054E-01
 1.547210135E-01 2.117098146E-01 -2.265919364E-01
 7.276627135E-02 1.935466160E-01 -1.297326204E-01
 3.543256105E-02 3.477129870E-02 -1.610967658E-01
 2.065329385E-01 7.595713607E-02 -4.522073849E-01
 6.285626707E-02 1.261184063E-01 -1.730099664E-01
 1.400228266E-02 1.561601450E-01 -2.873539001E-02
 -1.505959495E-02 2.572642737E-01 -9.578690960E-04
 1.389904499E-01 1.003347523E-01 -3.358771510E-01
 1.564244058E-01 6.757456793E-02 -4.148833038E-01
 1.003926549E-01 9.168733889E-02 -2.838933286E-01
 9.171435907E-02 5.482150221E-02 -3.260610933E-01
 1.213485906E-02 9.347909048E-02 1.768927597E-01
 -7.595985429E-02 9.257854272E-02 2.547359096E-01
 -5.084203658E-04 3.165859159E-02 1.310939950E-01
 4.186518207E-01 1.218009799E-01 -4.886767982E-01
 4.059855172E-01 8.665197639E-02 -5.293482553E-01
 4.465658271E-01 1.052962346E-01 -5.097273949E-01
 4.749618218E-01 9.545786730E-02 -5.230326551E-01
 2.586433187E-01 1.099268761E-01 -4.455505699E-01
 2.586804355E-01 8.186628353E-02 -4.793967865E-01
 2.975825438E-01 4.230738254E-01 -2.156825855E-01
 4.704981713E-01 4.777466630E-01 -2.120184538E-01
 5.900612605E-02 8.321660965E-02 -1.953789108E-01
 1.005477870E+00 1.403182898E-01 1.074560876E-02
 9.383008703E-01 1.184917192E-01 -3.563977153E-02
 8.940149764E-01 8.210223205E-02 -9.317634232E-02
 8.484862961E-01 8.638990824E-02 -1.575831703E-01
 9.365020690E-01 6.861238319E-02 -1.338986233E-02
 9.386488697E-01 2.776439833E-02 1.234156303E-02
 8.211546776E-01 1.307745900E-01 -1.836073544E-01
 7.761669375E-01 9.653626405E-02 -2.475937060E-01
 9.528973790E-01 2.282265357E-02 4.943571187E-02
 9.565580834E-01 4.238921447E-02 4.185597482E-02
 9.879453979E-01 3.158776518E-02 1.229632441E-01
 9.281388860E-01 4.429050374E-02 -1.042956111E-02
 9.079066770E-01 5.220718789E-02 -5.506308927E-02
 3.507250233E-02 6.801199738E-02 -5.955423984E-02
 4.721407842E-02 4.191033241E-02 -2.006932181E-01
 5.418300346E-02 5.753754198E-02 -1.714903171E-01
 8.639918689E-01 6.202093625E-02 -1.347353116E-01
 4.446484319E-01 8.540726853E-02 -5.359828521E-01
 5.848715317E-02 4.406481275E-02 -2.367131712E-01
 1.040070966E-01 6.716185538E-02 -3.335080359E-01
 3.729984975E-01 1.155509583E-01 -4.840367248E-01
 3.419100368E-01 9.605959170E-02 -5.006832280E-01
 3.198474117E-01 9.875736343E-02 -4.889647832E-01
 1.032578858E-01 5.433008528E-02 -3.548401267E-01
 2.310800092E-01 -1.341644600E-01 -3.116581303E-01
 9.812494439E-01 1.675669281E-02 1.309874901E-01
 5.423966096E-01 1.065404287E-01 -4.919196219E-01
 5.659749678E-01 1.075507519E-01 -4.722980829E-01
 5.093187871E-01 9.337874443E-02 -5.181357394E-01
 4.857995741E-01 -9.378424020E-02 -2.956206249E-01
 5.096406691E-01 -9.061810952E-02 -2.553895116E-01
 4.771626048E-01 -7.954639142E-02 -3.296352674E-01
 1.119105438E-01 5.659338705E-02 -3.669407995E-01
 5.301774315E-01 -8.057364139E-02 -2.228728182E-01
 1.635224207E+00 3.719975293E-01 -7.232629428E-03
 1.721778790E+00 -2.059220593E-01 2.611166499E-02
 2.043380477E-02 5.605146835E-02 -4.131300805E-02
 2.552981113E-02 2.843437127E-02 -1.359065053E-01
 2.111985481E-02 3.658787176E-02 -2.633528963E-02
 5.507668099E-01 6.673349918E-01 -1.600521590E-01
 1.225380413E-01 8.066229209E-02 -3.378139100E-01
 1.389631205E-01 7.113965005E-02 -3.829598119E-01
 8.922835894E-01 -1.601472194E-02 2.990274086E-01
 5.790300058E-01 -3.003649095E-01 -7.347738757E-02
 4.180699743E-01 1.008144606E-01 -5.139992555E-01
 3.944804027E-01 1.049595680E-01 -5.031593274E-01
 2.931526901E-01 8.113147983E-02 -4.988727184E-01
 2.815042764E-01 9.503618809E-02 -4.763672010E-01
 2.383324491E-01 9.273068146E-02 -4.544424117E-01
 2.181273752E-01 8.827617911E-02 -4.439762019E-01
 1.387479970E-01 -8.277836280E-02 -2.757464128E-01
 7.131169108E-01 -5.529626212E-02 6.511992475E-02
 7.925697558E-02 -2.734711494E-01 -2.822612857E-02
 5.553776122E-01 9.283108209E-02 -5.002316136E-01
 5.809927979E-01 9.327865502E-02 -4.796084636E-01
 6.014241403E-01 9.394312094E-02 -4.615683108E-01
 6.269999773E-01 7.406818881E-02 -4.582355007E-01
 5.921955384E-01 1.212296875E-01 -4.360113956E-01
 6.159978105E-01 7.294917178E-02 -4.672913830E-01
 6.178582007E-01 8.534623141E-02 -4.546370541E-01
 6.387060608E-01 8.511161835E-02 -4.297752170E-01
 6.576585260E-01 8.733628977E-02 -4.055436993E-01
 6.821097100E-01 6.577803475E-02 -3.925439271E-01
 6.724293680E-01 6.663754710E-02 -4.053797614E-01
 6.780801971E-01 7.989816500E-02 -3.849051975E-01
 6.726376560E-01 1.073203022E-01 -3.741469316E-01
 7.055849789E-01 9.917435044E-02 -3.362291117E-01
 6.055605897E-01 7.703052213E-02 -4.758486239E-01
 6.625544750E-01 7.094067208E-02 -4.159480252E-01
 6.956499685E-01 1.417731951E-01 -3.223081703E-01
 7.388614760E-01 9.547586535E-02 -2.996496056E-01
 7.319278590E-01 6.274260839E-02 -3.252616934E-01
 7.443831065E-01 5.824988430E-02 -3.111420154E-01
 7.491477969E-01 7.440972445E-02 -2.948823922E-01
 7.703260473E-01 6.838518613E-02 -2.683627913E-01
 7.897358099E-01 6.590085430E-02 -2.489839618E-01
 8.148622412E-01 7.231799127E-02 -2.067897273E-01
 4.030830740E-01 -1.026075688E-01 -3.999542154E-01
 3.698129810E-01 -1.196816025E-01 -3.893274391E-01
 3.942468573E-01 -8.375319136E-02 -4.453701299E-01
 3.756650615E-01 -1.727541957E-01 -2.958236021E-01
 3.308894115E-01 -7.639381550E-02 -4.818533199E-01
 6.957388491E-01 -4.097977706E-02 4.579229595E-02
 6.852286141E-01 -5.639227178E-02 2.848048511E-02
 5.799293670E-01 7.819011700E-02 -5.022681760E-01
 6.978601919E-01 7.160389314E-02 -3.665024420E-01
 5.133608591E-01 -7.042781117E-02 -2.682019743E-01
 7.875214053E-02 6.501065939E-02 -2.553592211E-01
 8.678718001E-01 4.222145910E-02 -1.355478274E-01
 9.143555460E-01 -1.156686532E-02 3.218040889E-01
 4.252331599E-01 -8.959589341E-02 -3.984415967E-01
 3.791579546E-01 -9.644955177E-02 -4.322923522E-01
 3.589413070E-01 -9.091974123E-02 -4.453755072E-01
 6.218421907E-01 1.068525298E-01 -4.302872586E-01
 8.596630691E-01 1.959080355E-01 -1.359056040E-01
 8.947494995E-01 3.454798355E-02 -8.459686301E-02
 7.663461169E-01 -1.157272087E-01 1.006468577E-01
 1.649999398E-01 8.432879201E-02 -3.967597759E-01
 8.940066586E-01 4.898346175E-01 -1.222857692E-01
 8.097580037E-01 7.199578127E-01 -1.363136879E-01
 6.750348019E-01 4.210205646E-01 -2.051617595E-01
 9.075186271E-01 -2.230704246E-02 2.989935094E-01
 8.384891149E-01 5.740035322E-02 -1.738814189E-01
 7.217278971E-01 7.543105012E-02 -3.341602454E-01
 1.010554871E+00 1.187673942E-02 1.532396806E-01
 1.011815631E+00 -2.138628666E-03 2.280518093E-01
 1.005459807E+00 -1.928652899E-02 3.463413788E-01