TITLE     = "Visualization of the solution"
VARIABLES = "x"
"y"
"Pressure_Coefficient"
ZONE T="Zone"
 STRANDID=0, SOLUTIONTIME=0
 Nodes=701, Elements=1187, ZONETYPE=FEQuadrilateral
 DATAPACKING=POINT
 DT=(DOUBLE DOUBLE DOUBLE )
 1.000264049E+00 5.101865390E-04 2.400862796E-01
 9.856193066E-01 3.398045432E-03 2.040687085E-01
 9.718300104E-01 6.029961631E-03 1.012006598E-01
 9.553837776E-01 9.193874896E-03 8.089858569E-02
 9.408265948E-01 1.201443281E-02 2.592183677E-02
 9.278847575E-01 1.454013307E-02 -5.671929842E-03
 9.164888263E-01 1.673752628E-02 -3.698484020E-02
 9.044700265E-01 1.900318265E-02 -6.268039592E-02
 8.928760290E-01 2.116246708E-02 -9.123143162E-02
 8.806890249E-01 2.338912338E-02 -1.114668704E-01
 8.684204817E-01 2.555430681E-02 -1.297653001E-01
 8.562293649E-01 2.768427692E-02 -1.555997378E-01
 8.442074060E-01 2.975419536E-02 -1.683002023E-01
 8.325518966E-01 3.164974228E-02 -1.796888033E-01
 8.211452365E-01 3.355063125E-02 -1.993538155E-01
 8.089101911E-01 3.552612290E-02 -2.168669661E-01
 7.963948250E-01 3.752799332E-02 -2.330831377E-01
 7.845756412E-01 3.934678063E-02 -2.507537764E-01
 7.726849318E-01 4.117642343E-02 -2.647893378E-01
 7.610845566E-01 4.286957160E-02 -2.797467798E-01
 7.486731410E-01 4.470176622E-02 -2.954242587E-01
 7.351884842E-01 4.659018666E-02 -3.097574237E-01
 7.246745825E-01 4.806733876E-02 -3.291336403E-01
 7.136223912E-01 4.957056418E-02 -3.396512836E-01
 7.020614147E-01 5.108905956E-02 -3.566461709E-01
 6.889790893E-01 5.278764293E-02 -3.775820570E-01
 6.764100194E-01 5.433979258E-02 -3.887809924E-01
 6.658425927E-01 5.557984859E-02 -4.048513694E-01
 6.544702053E-01 5.690939352E-02 -4.182780867E-01
 6.433261037E-01 5.811443552E-02 -4.260747106E-01
 6.317465901E-01 5.935666338E-02 -4.474402333E-01
 6.205937266E-01 6.050600111E-02 -4.609468991E-01
 6.100424528E-01 6.150184199E-02 -4.723795898E-01
 5.981901288E-01 6.258725375E-02 -4.858646357E-01
 5.864183307E-01 6.357500702E-02 -4.936761146E-01
 5.729251504E-01 6.463050097E-02 -5.056031089E-01
 5.600323081E-01 6.554941088E-02 -5.163152976E-01
 5.473027825E-01 6.637042761E-02 -5.243612306E-01
 5.359495282E-01 6.702023745E-02 -5.305351830E-01
 5.239809752E-01 6.765112281E-02 -5.334253972E-01
 5.111455321E-01 6.821699440E-02 -5.391050371E-01
 5.002340078E-01 6.865964085E-02 -5.429939930E-01
 4.868469536E-01 6.908421963E-02 -5.435592603E-01
 4.735983908E-01 6.942465901E-02 -5.403353746E-01
 4.593114257E-01 6.968154758E-02 -5.431804198E-01
 4.455173016E-01 6.986242533E-02 -5.457682247E-01
 4.321772754E-01 6.991569698E-02 -5.409689512E-01
 4.189606905E-01 6.989216059E-02 -5.376969766E-01
 4.062974155E-01 6.979184598E-02 -5.358053958E-01
 3.932812512E-01 6.962134689E-02 -5.333884617E-01
 3.808849156E-01 6.936874986E-02 -5.276687528E-01
 3.693207204E-01 6.907341629E-02 -5.230324546E-01
 3.559286892E-01 6.866861880E-02 -5.200469925E-01
 3.433007300E-01 6.819874793E-02 -5.177554914E-01
 3.304955661E-01 6.765632331E-02 -5.113475924E-01
 3.199302554E-01 6.712114066E-02 -5.054350798E-01
 3.076743782E-01 6.648290902E-02 -5.039807535E-01
 2.946507037E-01 6.569282711E-02 -4.941437460E-01
 2.808461785E-01 6.477233768E-02 -4.887593313E-01
 2.685125172E-01 6.387554854E-02 -4.847810619E-01
 2.565950155E-01 6.294376403E-02 -4.783031804E-01
 2.442017198E-01 6.187770143E-02 -4.724921809E-01
 2.315880656E-01 6.072631106E-02 -4.661054368E-01
 2.194161415E-01 5.951476097E-02 -4.584870170E-01
 2.075988054E-01 5.827235430E-02 -4.518760402E-01
 1.959747672E-01 5.695400015E-02 -4.431017243E-01
 1.836750507E-01 5.547491089E-02 -4.337315675E-01
 1.720205396E-01 5.397327989E-02 -4.253303166E-01
 1.603750437E-01 5.238359421E-02 -4.127072144E-01
 1.488036066E-01 5.069841072E-02 -4.033302308E-01
 1.380703449E-01 4.905261099E-02 -3.951540630E-01
 1.269547045E-01 4.724073410E-02 -3.834708461E-01
 1.158225387E-01 4.529966041E-02 -3.702874443E-01
 1.054449826E-01 4.337333888E-02 -3.594901150E-01
 9.579275548E-02 4.148155078E-02 -3.467305735E-01
 8.529508859E-02 3.928799555E-02 -3.327333190E-01
 7.406385243E-02 3.675537556E-02 -3.179359404E-01
 6.441412121E-02 3.440883756E-02 -2.960015614E-01
 5.483410880E-02 3.187388182E-02 -2.670152586E-01
 4.585992917E-02 2.930417657E-02 -2.501860553E-01
 3.814556077E-02 2.689009719E-02 -2.244753130E-01
 3.129107878E-02 2.453693561E-02 -1.832065560E-01
 2.548522875E-02 2.235514671E-02 -1.496866401E-01
 2.120823227E-02 2.059524134E-02 -1.188336711E-01
 1.708032005E-02 1.874129102E-02 -8.537283997E-02
 1.401571650E-02 1.723781787E-02 -5.954702199E-02
 1.131688897E-02 1.578833722E-02 -1.175038276E-02
 9.299254976E-03 1.461069193E-02 2.450758990E-02
 7.479954977E-03 1.344812848E-02 3.118913822E-02
 5.809274968E-03 1.229323354E-02 1.027071292E-01
 3.686186392E-03 1.061022654E-02 2.477921967E-01
 1.889196108E-03 8.920301683E-03 2.392164824E-01
 3.611303982E-04 7.121908478E-03 6.544250531E-01
 -1.102791983E-03 4.663687665E-03 4.668627717E-01
 -1.743438654E-03 2.805316588E-03 1.129291152E+00
 -1.975676743E-03 1.315240399E-03 6.974197970E-01
 -1.940352842E-03 -4.900885397E-04 9.827909178E-01
 -1.503414591E-03 -2.490657382E-03 7.203310069E-01
 -5.159784923E-04 -4.813241307E-03 6.672597028E-01
 1.055122004E-03 -7.264917716E-03 6.454969009E-01
 3.249751171E-03 -9.809726849E-03 4.933004348E-01
 5.203898530E-03 -1.167105418E-02 4.044066924E-01
 7.449955214E-03 -1.352189388E-02 3.598586103E-01
 9.159477428E-03 -1.479207072E-02 2.467300952E-01
 1.126846205E-02 -1.622787118E-02 2.297226102E-01
 1.374500804E-02 -1.776539162E-02 1.741516078E-01
 1.702096872E-02 -1.962432452E-02 1.348576342E-01
 2.015792020E-02 -2.124373429E-02 6.031155675E-02
 2.420238219E-02 -2.315362357E-02 1.821986336E-02
 2.963755466E-02 -2.547245473E-02 -2.626550323E-02
 3.540746868E-02 -2.769487165E-02 -8.719022727E-02
 4.241315275E-02 -3.013054468E-02 -1.187255586E-01
 4.993418977E-02 -3.249815851E-02 -1.709918469E-01
 5.868865922E-02 -3.499099985E-02 -1.998795770E-01
 6.733234972E-02 -3.724310920E-02 -2.227610866E-01
 7.761985064E-02 -3.968704119E-02 -2.359689517E-01
 8.733721077E-02 -4.180942848E-02 -2.585932969E-01
 9.785631299E-02 -4.394785687E-02 -2.743966679E-01
 1.089394391E-01 -4.602992907E-02 -2.907807380E-01
 1.204139888E-01 -4.803092033E-02 -3.043054003E-01
 1.319118142E-01 -4.989595339E-02 -3.181770817E-01
 1.421970129E-01 -5.145450681E-02 -3.306910501E-01
 1.533031464E-01 -5.304227397E-02 -3.407590460E-01
 1.649889499E-01 -5.459140241E-02 -3.509585485E-01
 1.765470654E-01 -5.603739247E-02 -3.622404052E-01
 1.881153136E-01 -5.737895519E-02 -3.742423909E-01
 1.985301077E-01 -5.850772932E-02 -3.841942772E-01
 2.097006887E-01 -5.963720009E-02 -3.939876452E-01
 2.218520492E-01 -6.076992303E-02 -4.048169091E-01
 2.340563089E-01 -6.180541962E-02 -4.154661938E-01
 2.459176481E-01 -6.272278726E-02 -4.264473170E-01
 2.581231594E-01 -6.357069314E-02 -4.368244672E-01
 2.690337002E-01 -6.423377991E-02 -4.469528276E-01
 2.815691531E-01 -6.490500271E-02 -4.544587121E-01
 2.935149372E-01 -6.542181969E-02 -4.639894324E-01
 3.065052330E-01 -6.587695330E-02 -4.678107040E-01
 3.182010651E-01 -6.618034840E-02 -4.754607770E-01
 3.308570981E-01 -6.638592482E-02 -4.792944491E-01
 3.414870501E-01 -6.646618247E-02 -4.846689123E-01
 3.529438972E-01 -6.644053012E-02 -4.844107015E-01
 3.639535606E-01 -6.631655246E-02 -4.829986379E-01
 3.747001290E-01 -6.610385329E-02 -4.805871601E-01
 3.865343332E-01 -6.574999541E-02 -4.755810607E-01
 3.993404806E-01 -6.520619243E-02 -4.632279162E-01
 4.116775095E-01 -6.456946582E-02 -4.497996657E-01
 4.245837331E-01 -6.377972662E-02 -4.396712974E-01
 4.371084571E-01 -6.286260486E-02 -4.243491892E-01
 4.499337077E-01 -6.178663671E-02 -4.003103972E-01
 4.622842669E-01 -6.063494086E-02 -3.772664635E-01
 4.746319056E-01 -5.937980860E-02 -3.527061403E-01
 4.866823256E-01 -5.807195231E-02 -3.290058138E-01
 4.991492629E-01 -5.658991635E-02 -3.019590751E-01
 5.128090382E-01 -5.490191281E-02 -2.681081489E-01
 5.262871385E-01 -5.315806344E-02 -2.425750474E-01
 5.391377211E-01 -5.141675845E-02 -2.154322566E-01
 5.525138974E-01 -4.955768585E-02 -1.878606078E-01
 5.655699372E-01 -4.767876491E-02 -1.636829201E-01
 5.785223842E-01 -4.574887455E-02 -1.345809692E-01
 5.912951231E-01 -4.384209588E-02 -1.072306503E-01
 6.041287184E-01 -4.192703962E-02 -8.811975715E-02
 6.176475883E-01 -3.985336795E-02 -6.482001841E-02
 6.317833066E-01 -3.771222383E-02 -3.972974335E-02
 6.458442211E-01 -3.556686267E-02 -2.160578290E-02
 6.588599086E-01 -3.353954852E-02 3.155584851E-03
 6.724205613E-01 -3.145876527E-02 2.514038092E-02
 6.849616170E-01 -2.954857796E-02 4.369954993E-02
 6.974652410E-01 -2.766200528E-02 5.909505051E-02
 7.123499513E-01 -2.541657351E-02 7.693228672E-02
 7.254869342E-01 -2.345163748E-02 9.669546921E-02
 7.368158698E-01 -2.175142244E-02 1.146988640E-01
 7.498922944E-01 -1.984302327E-02 1.312605562E-01
 7.627478242E-01 -1.798159443E-02 1.476894752E-01
 7.761707306E-01 -1.610905305E-02 1.641753742E-01
 7.883818150E-01 -1.440135110E-02 1.799759027E-01
 8.010264635E-01 -1.265958883E-02 2.015271103E-01
 8.123363256E-01 -1.119625475E-02 2.161953019E-01
 8.236902356E-01 -9.748630226E-03 2.277895837E-01
 8.362208605E-01 -8.232571185E-03 2.427836324E-01
 8.484121561E-01 -6.781933364E-03 2.609140378E-01
 8.606818914E-01 -5.449747201E-03 2.768332519E-01
 8.717889786E-01 -4.311180208E-03 2.889882580E-01
 8.834342360E-01 -3.239546670E-03 2.998313540E-01
 8.957991004E-01 -2.183211502E-03 3.114339468E-01
 9.059050679E-01 -1.446699956E-03 3.235682630E-01
 9.163889885E-01 -7.926460821E-04 3.272673386E-01
 9.264451861E-01 -2.823797986E-04 3.321383761E-01
 9.360054731E-01 1.128454314E-04 3.327711333E-01
 9.481763840E-01 4.868396500E-04 3.380850775E-01
 9.619879127E-01 7.359802257E-04 3.350306697E-01
 9.769579768E-01 8.068651077E-04 3.505894907E-01
 9.897382259E-01 7.008121465E-04 3.670890636E-01
 -5.000000000E-01 -1.000000000E+00 2.903326550E-02
 3.500000000E+00 -1.000000000E+00 1.660334741E-02
 3.500000000E+00 1.000000000E+00 1.109224500E-03
 -5.000000000E-01 1.000000000E+00 -2.067316615E-03
 -5.000000000E-01 5.000000000E-01 3.553271405E-02
 -5.000000000E-01 2.752797990E-12 1.029347109E-01
 -5.000000000E-01 -5.000000000E-01 6.146668531E-02
 -9.421907698E-13 -1.000000000E+00 1.499111492E-02
 5.000000000E-01 -1.000000000E+00 -1.239936444E-02
 1.000000000E+00 -1.000000000E+00 8.731146338E-03
 1.500000000E+00 -1.000000000E+00 2.905565615E-02
 2.000000000E+00 -1.000000000E+00 2.729503566E-02
 2.500000000E+00 -1.000000000E+00 2.050995349E-02
 3.000000000E+00 -1.000000000E+00 1.703455315E-02
 3.500000000E+00 -5.000000000E-01 1.994488466E-02
 3.500000000E+00 -2.752797990E-12 1.983287694E-02
 3.500000000E+00 5.000000000E-01 9.013353881E-03
 3.000000000E+00 1.000000000E+00 -1.518510097E-03
 2.500000000E+00 1.000000000E+00 -7.665112862E-03
 2.000000000E+00 1.000000000E+00 -2.194739793E-02
 1.500000000E+00 1.000000000E+00 -5.991239525E-02
 1.000000000E+00 1.000000000E+00 -1.120381785E-01
 5.000000000E-01 1.000000000E+00 -1.027602308E-01
 1.733724275E-12 1.000000000E+00 -2.952379769E-02
 6.791957221E-01 -4.390781710E-02 2.950315157E-02
 7.845735618E-01 -3.039885981E-02 1.664437076E-01
 9.024052916E-01 -1.413094480E-02 3.015614360E-01
 5.855306732E-01 -5.746578557E-02 -1.196550530E-01
 7.103299871E-01 6.408221651E-02 -3.360294271E-01
 2.858976468E-01 7.801191247E-02 -4.732872894E-01
 2.863423562E-01 -7.777435859E-02 -4.341149474E-01
 9.124254994E-01 3.292234452E-02 -4.586669815E-02
 8.039515961E-01 5.125450757E-02 -2.188088881E-01
 5.940892486E-01 7.220083292E-02 -4.773172444E-01
 4.185479355E-01 -7.959788186E-02 -4.138454836E-01
 4.112481762E-01 7.957779253E-02 -5.219443727E-01
 1.837096931E+00 -5.821595011E-01 2.728362503E-02
 1.785501886E+00 6.586328745E-01 -1.906675241E-02
 3.031183067E+00 2.156805758E-01 1.134612089E-02
 7.537905124E-01 -5.502860665E-01 7.283997323E-03
 4.922280820E-01 -7.272319345E-02 -3.013614241E-01
 3.656165795E-01 -7.247885693E-01 -3.003915110E-02
 1.249500351E-01 -5.997335910E-02 -2.897787473E-01
 1.886027191E-01 -7.002869412E-02 -3.541496265E-01
 7.342662800E-01 5.418406971E-01 -1.559017320E-01
 4.948084020E-01 8.125291037E-02 -5.254223841E-01
 2.890507243E-01 6.445074589E-01 -1.195443342E-01
 1.181992729E-01 6.003732032E-02 -3.462542465E-01
 1.781214255E-01 7.079955432E-02 -4.046272124E-01
 2.734829107E+00 -5.327104138E-01 1.686257755E-02
 1.166450917E+00 6.152243834E-01 -6.268193773E-02
 9.868157292E-01 3.442740868E-01 -5.910684414E-02
 1.256810381E+00 -6.365766344E-01 3.992186170E-02
 1.466739200E+00 -2.498820050E-01 4.162069182E-02
 2.249044116E+00 -5.857783438E-01 1.953199571E-02
 2.036245935E+00 -2.117748962E-01 1.658112539E-02
 2.420113128E+00 -1.843663252E-01 1.242354558E-02
 2.184555999E+00 1.580747173E-01 7.158097964E-03
 1.848785750E+00 6.842375829E-02 1.119351998E-02
 -2.711808683E-01 -2.367905275E-01 1.213262509E-01
 -1.459368246E-01 -6.017877131E-01 2.295907751E-02
 1.325813535E-01 -3.650406956E-01 -4.649992076E-02
 6.903571856E-02 -5.090792254E-02 -1.830035744E-01
 -2.742633996E-01 2.323117899E-01 9.234412460E-02
 -1.077316683E-01 6.246915137E-01 -2.367752158E-02
 2.545793745E-02 3.299243790E-01 -5.168284186E-02
 4.541427466E-02 3.913847671E-02 -2.103847665E-01
 2.240111955E+00 5.562033976E-01 -3.499027191E-03
 2.746186620E+00 5.963510262E-01 3.549273127E-03
 -2.354250185E-01 -4.455146658E-03 1.598946485E-01
 -1.283636962E-01 1.267082312E-01 1.547306183E-01
 -1.096857446E-01 -1.271912318E-01 1.826893929E-01
 -7.465207034E-02 -3.201908320E-01 4.949634087E-02
 8.738108645E-03 -1.817158930E-01 5.622048885E-02
 3.697641136E-02 -3.447514933E-02 -6.295237449E-02
 1.473154286E-01 -2.279507365E-01 -1.300312859E-01
 3.472364549E-01 -7.582399454E-02 -4.626252785E-01
 2.391903686E-01 -7.453282513E-02 -3.996993321E-01
 2.630287498E-01 -7.655168070E-02 -4.190790746E-01
 -2.204317893E-02 -9.875147800E-02 1.984673926E-01
 -1.097220016E-01 -2.339880227E-02 3.021279544E-01
 -7.114504380E-02 5.544119242E-02 2.965299383E-01
 2.231340115E-02 2.577911016E-02 -1.096488483E-01
 3.317414874E-02 -1.158469112E-01 4.256193620E-02
 3.109349938E+00 -2.612913347E-01 1.726589012E-02
 -5.090079410E-02 -3.890080355E-02 3.680631266E-01
 -5.017344330E-02 1.135543823E-02 5.107079537E-01
 -2.588868904E-02 5.175931632E-02 3.383069276E-01
 -3.459503246E-02 9.922109395E-02 1.639084579E-01
 3.217259801E-02 1.125645377E-01 -3.338041858E-02
 8.613245018E-02 5.131839554E-02 -2.981033632E-01
 8.323458005E-04 1.884572625E-01 1.610483688E-02
 8.509939865E-02 1.613448429E-01 -1.456009766E-01
 1.939154484E-01 2.924693705E-01 -2.076107326E-01
 3.502433518E-01 8.101803455E-02 -5.033855933E-01
 2.354132366E-01 7.537616315E-02 -4.466902699E-01
 1.940590056E-01 1.914520089E-01 -2.743746531E-01
 -1.169453391E-01 2.660196716E-01 4.278756989E-02
 1.433839852E-01 4.571212163E-01 -1.030560411E-01
 8.087607399E-02 1.045238135E-01 -1.981712901E-01
 1.450356360E-01 1.330705337E-01 -2.711751376E-01
 -8.088003421E-03 -6.045276639E-02 3.286199453E-01
 9.076587908E-03 -1.736889154E-02 2.857569220E-01
 2.079929686E-02 -2.728498942E-02 8.370422105E-02
 2.855131173E-02 -7.400917709E-02 6.679791161E-02
 5.357924084E-02 -4.430592825E-02 -1.363758364E-01
 7.030106572E-02 -9.040590685E-02 -1.064113467E-01
 9.880776488E-02 -5.753685195E-02 -2.452646530E-01
 8.228061854E-02 -1.385201296E-01 -6.697485476E-02
 1.158105669E-01 -1.096179009E-01 -1.958134164E-01
 1.555216009E-01 -6.545445103E-02 -3.214179130E-01
 3.037909960E-01 4.062943589E-01 -2.139266981E-01
 3.197322301E-01 2.735120046E-01 -2.951469915E-01
 4.393603152E-01 3.107402579E-01 -2.938812212E-01
 2.909765577E-01 1.680299159E-01 -3.750130662E-01
 3.985806820E-01 2.123986384E-01 -3.721960853E-01
 4.514991120E-01 8.185786443E-02 -5.270264244E-01
 5.193171036E-01 2.278157035E-01 -3.507938854E-01
 6.486883918E-01 6.626371139E-02 -4.151787748E-01
 6.299356620E-01 7.302947019E-02 -4.340591476E-01
 6.727551188E-01 6.749334310E-02 -3.860549984E-01
 5.421889072E-01 7.652753918E-02 -5.103320973E-01
 5.687507450E-01 7.618573275E-02 -4.924310411E-01
 5.551205765E-01 3.436829421E-01 -2.580663353E-01
 6.303216883E-01 2.343323541E-01 -3.020706004E-01
 5.765869456E-01 1.626389794E-01 -3.906498926E-01
 6.648978972E-01 1.613185838E-01 -3.220422676E-01
 7.572519470E-01 5.536357671E-02 -2.781216548E-01
 7.799888017E-01 5.276055789E-02 -2.520605687E-01
 7.184889781E-01 2.213359320E-01 -2.436661600E-01
 7.510051185E-01 1.422652994E-01 -2.500828771E-01
 8.065727963E-01 1.930956078E-01 -1.800603335E-01
 8.651308489E-01 3.973927583E-02 -1.321282475E-01
 8.416891900E-01 4.422356512E-02 -1.666079939E-01
 8.325476921E-01 1.360599777E-01 -1.614398967E-01
 6.826488345E-01 3.534772328E-01 -2.137676669E-01
 3.558666628E-01 1.487858151E-01 -4.200498074E-01
 5.166153789E-01 1.539971498E-01 -4.229396097E-01
 8.842764605E-01 1.962263277E-01 -1.055083020E-01
 9.659682205E-01 1.988625142E-02 7.594873143E-02
 9.219032986E-01 1.233873113E-01 -5.495841883E-02
 9.936353885E-01 1.923987291E-01 -2.479027558E-02
 1.129708070E+00 2.566291290E-01 -4.448732941E-03
 9.957983150E-01 1.092957287E-01 2.772963305E-02
 6.182653526E-01 1.257217984E-01 -3.925337098E-01
 6.971335455E-01 1.203682151E-01 -3.177412973E-01
 4.561243964E-01 4.745707685E-01 -2.100977867E-01
 9.532083131E-01 7.317385414E-02 8.306398435E-03
 9.373580040E-01 2.784337668E-02 1.257383249E-02
 7.911468419E-01 1.122966158E-01 -2.145661932E-01
 8.678288455E-01 9.118711593E-02 -1.241477494E-01
 5.509827055E-01 1.245537027E-01 -4.451533976E-01
 5.835565702E-01 1.107209675E-01 -4.325686592E-01
 8.293407684E-01 2.984825828E-01 -1.596006551E-01
 5.138684932E-01 1.128558349E-01 -4.762507226E-01
 4.720226367E-01 1.273645254E-01 -4.640415575E-01
 5.168901407E-01 8.010213654E-02 -5.184836506E-01
 4.645456664E-01 1.779423419E-01 -4.060603432E-01
 4.173018645E-01 1.417563001E-01 -4.482094296E-01
 3.808402136E-01 1.126417809E-01 -4.705238667E-01
 3.736201118E-01 7.845775150E-02 -5.141829861E-01
 9.860393969E-01 1.728425249E-02 1.995735032E-01
 9.769825216E-01 4.287549471E-02 7.942488809E-02
 9.519033937E-01 4.002515210E-02 3.685792169E-02
 9.274916637E-01 4.731571221E-02 -2.000754725E-02
 1.200493629E-01 1.001026519E-01 -2.707455133E-01
 1.425104824E-01 6.248516444E-02 -3.748307253E-01
 3.509635567E-01 1.144238344E-01 -4.610348171E-01
 3.245365707E-01 8.029319325E-02 -4.919474909E-01
 5.058726643E-01 7.861676947E-02 -5.253714441E-01
 8.940057060E-03 7.091746778E-02 8.825232287E-02
 9.502879981E-01 2.179261758E-02 5.191113881E-02
 5.805071406E-01 7.478230667E-02 -4.823015633E-01
 3.632061457E-01 7.865683224E-02 -5.108709186E-01
 3.687140560E-01 9.468568525E-02 -4.909312771E-01
 3.369110371E-01 9.561183233E-02 -4.794297126E-01
 3.148579250E-01 9.086598671E-02 -4.740370260E-01
 3.164248370E-01 1.194752449E-01 -4.347968819E-01
 2.723919819E-01 1.218061262E-01 -4.090408260E-01
 2.620823284E-01 7.634297873E-02 -4.642622231E-01
 6.037546158E-01 7.082852135E-02 -4.678889117E-01
 6.002707358E-01 8.771108535E-02 -4.518582596E-01
 6.270203154E-01 9.134573095E-02 -4.191880900E-01
 3.370974511E-01 7.855562628E-02 -4.993599736E-01
 9.243297502E-01 2.787181855E-02 -1.858796225E-02
 9.034651079E-01 4.581813155E-02 -6.559073161E-02
 8.889399239E-01 3.464998197E-02 -9.367856505E-02
 8.806908837E-01 5.368535044E-02 -1.040830648E-01
 8.575430371E-01 5.699627306E-02 -1.388169454E-01
 8.350992957E-01 6.318050439E-02 -1.726804931E-01
 4.666735775E-01 8.171448241E-02 -5.253461702E-01
 4.821641843E-01 7.955634037E-02 -5.286146150E-01
 4.869220155E-01 9.648450330E-02 -5.032810663E-01
 9.005430229E-01 3.012352121E-02 -7.081046133E-02
 4.389170494E-01 1.134780466E-01 -4.865640718E-01
 4.856584804E-02 7.407575237E-02 -1.200155900E-01
 7.081577994E-02 4.528736143E-02 -2.712371729E-01
 2.823906473E-02 4.599700324E-02 -5.623878352E-02
 1.803084480E-04 4.162880351E-02 1.737333685E-01
 6.874521740E-03 1.692329791E-02 6.247098030E-02
 -1.373226855E-02 1.786064872E-02 6.001178040E-01
 7.361267983E-05 1.284523510E-02 4.902140661E-01
 1.123154993E-02 2.798863268E-02 6.628792347E-02
 1.210379944E-02 1.933587534E-02 -1.712936638E-02
 4.006972450E-01 7.906811272E-02 -5.195829672E-01
 4.073547169E-01 9.677147102E-02 -4.996412764E-01
 4.593825445E-01 9.899863423E-02 -5.016642556E-01
 4.369321840E-01 9.216099931E-02 -5.113235132E-01
 4.242606165E-01 8.151117621E-02 -5.230342101E-01
 3.134995527E-01 7.635898079E-02 -4.911206283E-01
 3.015364871E-01 7.874206836E-02 -4.816450062E-01
 2.939909010E-01 9.660028319E-02 -4.563823931E-01
 2.732366052E-01 9.006086309E-02 -4.525137957E-01
 2.511416539E-01 9.276939674E-02 -4.342145925E-01
 2.255015079E-01 9.601254428E-02 -4.098811954E-01
 2.004284204E-01 6.772580673E-02 -4.307144480E-01
 2.394460122E-01 1.199355539E-01 -3.919243500E-01
 2.035674688E-01 1.245877138E-01 -3.581017725E-01
 1.770252039E-01 9.957435794E-02 -3.611267007E-01
 3.864846443E-01 8.580212831E-02 -5.078247081E-01
 6.392511858E-01 6.809208712E-02 -4.245888783E-01
 6.464205939E-01 8.143636259E-02 -4.050565668E-01
 6.541534347E-01 1.118441962E-01 -3.710539169E-01
 6.742537048E-01 8.631357668E-02 -3.670256949E-01
 7.009803420E-01 8.445724749E-02 -3.350374143E-01
 7.328676155E-01 9.516573941E-02 -2.913145071E-01
 7.259111191E-01 5.941874743E-02 -3.181180006E-01
 7.422385420E-01 5.809776718E-02 -2.969757046E-01
 7.503220745E-01 7.339979742E-02 -2.783642394E-01
 7.685728250E-01 6.553778378E-02 -2.596906251E-01
 7.916488889E-01 6.796489718E-02 -2.280278843E-01
 8.154912788E-01 8.983061373E-02 -1.879236780E-01
 6.850312886E-01 6.787654817E-02 -3.680007414E-01
 8.133217643E-01 6.669433716E-02 -1.996121953E-01
 8.184803341E-01 4.873992282E-02 -1.961807111E-01
 2.496939803E-01 7.340762722E-02 -4.598072328E-01
 8.529599694E-01 3.967951726E-02 -1.536601328E-01
 7.915276430E-01 4.946939172E-02 -2.376492437E-01
 8.766745648E-01 3.530866324E-02 -1.144665541E-01
 2.741150552E-01 7.461272810E-02 -4.726532394E-01
 2.563043938E+00 2.041999696E-01 6.309418681E-03
 -1.805476186E-02 -3.100911382E-02 4.618355088E-01
 2.431311075E-03 -1.388031632E-02 5.148437362E-01
 -1.917073649E-02 -6.461231075E-03 7.812782645E-01
 6.152695848E-01 7.415377516E-02 -4.514651733E-01
 6.604051012E-01 6.899937265E-02 -4.003533327E-01
 2.172157137E-01 7.701655609E-02 -4.315167258E-01
 2.008734256E-01 8.894477027E-02 -3.987048466E-01
 1.535494281E-01 8.232530065E-02 -3.513378364E-01
 2.637567467E-03 -4.085872348E-02 3.517077515E-01
 1.889819259E-02 -5.091424390E-02 1.407727881E-01
 3.521055154E-02 3.194096658E-02 -1.744817960E-01
 1.537746183E-01 6.193990682E-02 -3.911066971E-01
 1.648099766E-01 6.334509805E-02 -4.015974716E-01
 3.332514831E-01 2.058951981E-01 -3.486525487E-01
 5.518273014E-01 6.778955207E-01 -1.619061716E-01
 1.318902270E-01 -1.573252832E-01 -1.673050672E-01
 1.590478889E-01 -1.117824900E-01 -2.475289173E-01
 1.857349461E-01 -1.607248834E-01 -2.257724961E-01
 2.433046246E-01 -2.208551046E-01 -1.951283712E-01
 2.839645962E-01 -1.569521722E-01 -3.083756601E-01
 3.248474623E-01 -2.145354507E-01 -2.479279557E-01
 2.947801670E-01 -3.032725914E-01 -1.662986559E-01
 4.009848357E-01 -2.753485743E-01 -1.805298772E-01
 4.301505717E-01 -1.830786833E-01 -2.419493690E-01
 5.032813700E-01 -2.433468620E-01 -1.476353359E-01
 4.566610455E-01 -7.599222267E-02 -3.611527960E-01
 5.246154605E-01 -1.603375347E-01 -1.726003205E-01
 5.963566820E-01 -2.150610382E-01 -7.631233539E-02
 5.467324551E-01 -6.401170969E-02 -1.956671366E-01
 5.216901090E-01 -6.930256571E-02 -2.420855175E-01
 5.064601685E-01 -3.740388309E-01 -9.578678404E-02
 5.954999346E-01 -1.428293894E-01 -9.553298009E-02
 6.727901994E-01 -1.667865064E-01 -2.234922213E-03
 7.313994507E-01 -3.184424680E-02 1.018788080E-01
 6.372548330E-01 -5.001662433E-02 -3.321336664E-02
 6.801516750E-01 -2.737308982E-01 -6.738254586E-03
 7.681705681E-01 -2.005176356E-01 6.810359845E-02
 8.457058245E-01 -2.013601009E-02 2.444550768E-01
 8.179801052E-01 -2.308567444E-02 2.113327025E-01
 8.675062490E-01 -1.688580303E-02 2.689510926E-01
 7.379562314E-01 -1.259882861E-01 7.018099382E-02
 8.475404978E-01 -1.525068473E-01 1.352784419E-01
 9.688959611E-01 -1.165891780E-02 3.322472911E-01
 9.414130903E-01 -8.084278856E-03 3.239738437E-01
 9.233204556E-01 -1.065970426E-02 3.148627876E-01
 8.590114130E-01 -2.417560921E-01 9.953556958E-02
 9.267031005E-01 -1.648990247E-01 1.593655809E-01
 9.810701619E-01 -2.717559049E-01 1.031764090E-01
 1.061934102E+00 -1.815819119E-01 1.275962709E-01
 8.853322565E-01 -1.042462283E-01 1.975778935E-01
 9.768149857E-01 -9.555738818E-02 2.064773880E-01
 1.086191279E+00 -8.407039493E-02 1.419045228E-01
 1.148568866E+00 -1.716148067E-01 9.900994132E-02
 1.197442936E+00 -8.076211704E-02 8.489456808E-02
 8.319632422E-01 -8.999139410E-02 1.738781915E-01
 1.114074833E+00 1.264806750E-02 9.783853302E-02
 1.232977731E+00 6.107140442E-02 5.301994813E-02
 1.023467409E+00 -6.346095470E-02 2.050229995E-01
 6.869972874E-01 -1.024088328E-01 2.432222663E-02
 1.128260946E+00 -2.860397989E-01 8.418287841E-02
 1.086781597E+00 -4.557469569E-01 5.673744545E-02
 3.349683783E-01 -1.474715865E-01 -3.320303591E-01
 3.809095638E-01 -7.570351779E-02 -4.582544192E-01
 9.428621969E-01 -6.231155032E-02 2.537136062E-01
 6.369634549E-01 -9.812467029E-02 -3.720379853E-02
 6.182574760E-01 -5.123923970E-02 -6.432408067E-02
 8.675079970E-01 -6.146156078E-02 2.215326503E-01
 7.256574890E-01 -8.078534112E-02 7.453360623E-02
 7.076179186E-01 -3.809447837E-02 6.930574859E-02
 4.718897212E-01 -1.380536312E-01 -2.599269586E-01
 1.357908060E+00 -6.852117580E-02 4.599154533E-02
 1.406261784E+00 1.297779810E-01 2.216730417E-02
 5.481109621E-01 -1.122965210E-01 -1.707391532E-01
 2.021077706E-01 -1.101526063E-01 -3.053821130E-01
 2.147594620E-01 -7.237504450E-02 -3.787295028E-01
 7.789367903E-01 -7.941894602E-02 1.300865490E-01
 7.589421126E-01 -3.464996860E-02 1.355502160E-01
 1.570522629E+00 2.259579611E-03 2.139643288E-02
 9.843185422E-01 -1.104735623E-02 3.003315903E-01
 9.795508485E-01 -2.845235783E-02 2.972330018E-01
 1.004790559E+00 -2.500745589E-02 3.051421041E-01
 9.557755380E-01 -3.007520390E-02 2.874240157E-01
 9.705694979E-01 -5.333466107E-02 2.629379737E-01
 9.276171021E-01 -3.811676960E-02 2.813179845E-01
 7.833540058E-01 -3.257309796E-01 3.660203249E-02
 6.447516287E-01 -3.991514113E-01 -2.354764371E-02
 8.386178331E-01 -5.384604569E-02 2.063654256E-01
 1.258950963E+00 -2.127800491E-01 6.942940477E-02
 3.047665019E-01 -1.191541736E-01 -3.694987623E-01
 3.244199468E-01 -7.887847108E-02 -4.512027164E-01
 9.050113017E-01 -5.909620069E-02 2.461706422E-01
 5.904189673E-01 -9.768070240E-02 -1.062270056E-01
 6.662866497E-01 -7.671626358E-02 1.965587995E-03
 9.544384892E-01 -1.073337147E-02 3.183542802E-01
 2.664471499E-01 -1.131543855E-01 -3.543412450E-01
 7.520393689E-01 -5.404239068E-02 1.162409312E-01
 8.843928927E-01 -3.925523065E-02 2.570804382E-01
 9.040602326E-01 -3.216592669E-02 2.782207856E-01
 8.890002579E-01 -2.261698210E-02 2.797645844E-01
 9.947778439E-01 -8.710953358E-03 4.165271934E-01
 1.042506195E+00 -9.060085132E-03 1.626283905E-01
 6.550731093E-01 -4.660220522E-02 -6.966732979E-03
 3.384204393E-01 -1.123949194E-01 -3.894032778E-01
 3.793653970E-01 -1.177402093E-01 -3.713612827E-01
 7.430776297E-01 -3.505150311E-02 1.147637121E-01
 7.743101935E-01 -4.887019492E-02 1.465837992E-01
 7.954585604E-01 -4.724660059E-02 1.668232069E-01
 7.212461873E-01 -3.339698060E-02 8.672977390E-02
 7.278994529E-01 -4.775722605E-02 9.067877159E-02
 5.464824327E-01 -5.438702467E-01 -4.202787426E-02
 3.531284857E-01 -4.371695138E-01 -9.517202329E-02
 8.572787999E-01 -1.703719479E-02 2.596628357E-01
 8.592640739E-01 -3.373707213E-02 2.444999454E-01
 7.081882971E-01 -5.442944421E-02 6.377804009E-02
 6.861815911E-01 -6.514877113E-02 3.653485538E-02
 9.131628017E-01 -9.882076574E-03 3.141211421E-01
 8.324627482E-01 -1.919700847E-02 2.307224647E-01
 9.326440560E-01 -8.243650500E-03 3.211193319E-01
 8.001215584E-01 -2.890731571E-02 1.876469351E-01
 8.173965056E-01 -4.161484669E-02 1.975522611E-01
 5.650235290E-01 -8.712440621E-02 -1.515209069E-01
 5.714162055E-01 -6.377652831E-02 -1.453248715E-01
 5.405453311E-01 -7.986217541E-02 -1.971748728E-01
 5.133401623E-01 -8.806355025E-02 -2.425197848E-01
 4.858736568E-01 -9.488469319E-02 -2.824098061E-01
 5.087659926E-01 -1.187271861E-01 -2.279728202E-01
 4.570573698E-01 -1.031632751E-01 -3.251945310E-01
 4.220885115E-01 -1.362414633E-01 -3.130675563E-01
 4.384638090E-01 -8.660348063E-02 -3.780474074E-01
 4.193537906E-01 -1.017219639E-01 -3.727047882E-01
 4.003146330E-01 -8.783679170E-02 -4.125680566E-01
 4.734429721E-01 -8.037388059E-02 -3.262986883E-01
 1.624121814E+00 3.231561532E-01 -2.011333330E-03
 1.291915531E+00 3.640734337E-01 -1.125191304E-02
 1.473598030E+00 5.922173690E-01 -2.414074210E-02
 3.617640495E-01 -9.972861172E-02 -4.131101909E-01
 3.585310960E-01 -8.396649153E-02 -4.467195104E-01
 3.786154289E-01 -1.724489183E-01 -2.834184332E-01
 2.357042498E-01 -1.442951092E-01 -2.957624655E-01
 2.362581844E-01 -1.091687243E-01 -3.418972969E-01
 2.023031056E-01 -8.203735400E-02 -3.486679006E-01
 1.803412739E-01 -8.820671163E-02 -3.150837747E-01
 9.566719796E-01 -6.610771497E-01 2.740276745E-02
 3.782151688E-01 -8.859364572E-02 -4.269491820E-01
 1.028084274E+00 -1.171696938E-01 1.659193736E-01
 1.363155152E-01 -9.054896830E-02 -2.530396354E-01
 1.100183781E-01 -7.505697771E-02 -2.284254329E-01
 1.383611089E-01 -7.030909417E-02 -2.916795738E-01
 1.048115206E+00 5.876929358E-02 1.153028441E-01
 1.009648057E+00 3.232544207E-02 1.281591361E-01
 1.100011205E+00 1.320611520E-01 4.919835992E-02
 6.673966690E-01 -5.642117018E-02 1.030570291E-02
 5.901414628E-01 -3.098281833E-01 -6.061014853E-02
 1.241956913E+00 1.984772025E-01 1.971417044E-02
 6.939350645E-01 -4.313184901E-02 4.718970610E-02
 1.713012533E+00 -2.467136545E-01 2.561140356E-02
 6.170093408E-02 -2.598009890E-01 -6.936874474E-03
 9.255448507E-04 2.344932358E-02 3.099778335E-01
 9.090980187E-01 7.242791260E-02 -5.677133861E-02
 5.076653112E-01 -6.738329030E-02 -2.714987123E-01
 7.710784539E-01 -2.864620992E-02 1.515365946E-01