TITLE     = "Visualization of the solution"
VARIABLES = "x"
"y"
"Pressure_Coefficient"
ZONE T="Zone"
 STRANDID=0, SOLUTIONTIME=0
 Nodes=699, Elements=1183, ZONETYPE=FEQuadrilateral
 DATAPACKING=POINT
 DT=(DOUBLE DOUBLE DOUBLE )
 1.000159383E+00 5.027774023E-04 2.300731453E-01
 9.862558246E-01 3.110240446E-03 2.087254260E-01
 9.732755423E-01 5.639608484E-03 1.174077572E-01
 9.568002820E-01 8.777717128E-03 7.913838688E-02
 9.418240786E-01 1.166935917E-02 2.516204566E-02
 9.272757769E-01 1.438526716E-02 1.622657724E-03
 9.151725769E-01 1.666945033E-02 -2.930693420E-02
 9.027243257E-01 1.898887195E-02 -5.636999376E-02
 8.908803463E-01 2.120996453E-02 -8.460408563E-02
 8.786805868E-01 2.343448438E-02 -1.118886286E-01
 8.665262461E-01 2.562846802E-02 -1.347447349E-01
 8.541193008E-01 2.777278610E-02 -1.542606638E-01
 8.416567445E-01 2.990526892E-02 -1.750776069E-01
 8.303084373E-01 3.178951144E-02 -1.864738797E-01
 8.186042309E-01 3.368359432E-02 -1.979043517E-01
 8.062723279E-01 3.567463532E-02 -2.183983703E-01
 7.937786579E-01 3.766642138E-02 -2.353834596E-01
 7.817019224E-01 3.951960802E-02 -2.509276197E-01
 7.696089149E-01 4.136913642E-02 -2.709285827E-01
 7.582250834E-01 4.305854067E-02 -2.848327600E-01
 7.455352545E-01 4.489156231E-02 -3.030144376E-01
 7.321405411E-01 4.678758234E-02 -3.176186207E-01
 7.215472460E-01 4.822639748E-02 -3.285045690E-01
 7.108299136E-01 4.967727140E-02 -3.495289601E-01
 6.995717287E-01 5.116717517E-02 -3.642758596E-01
 6.864915490E-01 5.281019583E-02 -3.805255850E-01
 6.739823818E-01 5.435699970E-02 -3.978089742E-01
 6.638457775E-01 5.554256961E-02 -4.116188380E-01
 6.526756883E-01 5.681524053E-02 -4.252395274E-01
 6.413754225E-01 5.803006142E-02 -4.329406867E-01
 6.296853423E-01 5.923527852E-02 -4.470823746E-01
 6.186038852E-01 6.034465134E-02 -4.602673665E-01
 6.082183719E-01 6.131498143E-02 -4.719671941E-01
 5.960772634E-01 6.240599975E-02 -4.867483858E-01
 5.845650434E-01 6.335220486E-02 -4.949280319E-01
 5.712689757E-01 6.436663866E-02 -5.056187092E-01
 5.588495731E-01 6.523268670E-02 -5.146984967E-01
 5.465888381E-01 6.601729989E-02 -5.208581714E-01
 5.354561210E-01 6.664473563E-02 -5.285975472E-01
 5.238565803E-01 6.725419313E-02 -5.317478542E-01
 5.112200975E-01 6.780521572E-02 -5.372019501E-01
 5.002760887E-01 6.824350357E-02 -5.413336048E-01
 4.869647920E-01 6.866210699E-02 -5.387239370E-01
 4.736086130E-01 6.898903847E-02 -5.381725467E-01
 4.595844150E-01 6.925494224E-02 -5.359812370E-01
 4.458651543E-01 6.941050291E-02 -5.381290400E-01
 4.330005646E-01 6.950448453E-02 -5.370531025E-01
 4.199723005E-01 6.948291510E-02 -5.325429705E-01
 4.074932933E-01 6.940888613E-02 -5.305059480E-01
 3.948538303E-01 6.925787777E-02 -5.304226094E-01
 3.826553822E-01 6.904811412E-02 -5.288234557E-01
 3.710425794E-01 6.877455860E-02 -5.212788659E-01
 3.575578332E-01 6.837490201E-02 -5.167389861E-01
 3.450787067E-01 6.794124842E-02 -5.147270679E-01
 3.322001100E-01 6.742931902E-02 -5.115841770E-01
 3.212199807E-01 6.690794975E-02 -5.060144456E-01
 3.084985316E-01 6.625562906E-02 -5.013188033E-01
 2.954684794E-01 6.549594551E-02 -4.949319520E-01
 2.815814018E-01 6.460122764E-02 -4.902305137E-01
 2.693284750E-01 6.372728944E-02 -4.827782354E-01
 2.574180067E-01 6.281288713E-02 -4.787378374E-01
 2.450259775E-01 6.179367006E-02 -4.750413933E-01
 2.326789647E-01 6.068804115E-02 -4.688843100E-01
 2.205215245E-01 5.950805545E-02 -4.592014673E-01
 2.088057548E-01 5.828348547E-02 -4.533415335E-01
 1.973068267E-01 5.702456459E-02 -4.472225726E-01
 1.850337386E-01 5.557505041E-02 -4.390634447E-01
 1.732185632E-01 5.408116803E-02 -4.291216712E-01
 1.619608253E-01 5.257416889E-02 -4.190496445E-01
 1.502165943E-01 5.089952052E-02 -4.116434801E-01
 1.395061165E-01 4.927381873E-02 -3.992128734E-01
 1.280832142E-01 4.741774499E-02 -3.864352791E-01
 1.168125644E-01 4.548277706E-02 -3.736651045E-01
 1.063310876E-01 4.356072098E-02 -3.628777684E-01
 9.656473994E-02 4.166366905E-02 -3.456005923E-01
 8.558842540E-02 3.936772794E-02 -3.213435181E-01
 7.395719737E-02 3.675349429E-02 -3.018646448E-01
 6.398878247E-02 3.431835026E-02 -2.851332341E-01
 5.414934456E-02 3.170685470E-02 -2.622646901E-01
 4.530100897E-02 2.914843522E-02 -2.387436482E-01
 3.768168017E-02 2.673132718E-02 -2.076584490E-01
 3.090768121E-02 2.438906394E-02 -1.711464441E-01
 2.516952716E-02 2.220934257E-02 -1.209824626E-01
 2.103511989E-02 2.049041353E-02 -6.578450927E-02
 1.707545668E-02 1.870795712E-02 -2.663801049E-02
 1.407508738E-02 1.723180525E-02 -4.278641205E-03
 1.133813243E-02 1.575729810E-02 1.082793869E-02
 9.323142469E-03 1.458365750E-02 4.053042211E-02
 7.526983041E-03 1.344161853E-02 1.130969201E-01
 5.889082327E-03 1.231143996E-02 2.268827578E-01
 3.741926979E-03 1.062738337E-02 2.255263365E-01
 1.912622596E-03 8.924062364E-03 3.285129091E-01
 3.665130353E-04 7.125730626E-03 7.163001497E-01
 -1.109543489E-03 4.654648714E-03 1.035661787E+00
 -1.736244885E-03 2.762707882E-03 7.616610242E-01
 -1.927569159E-03 1.268575084E-03 1.090461359E+00
 -1.829276793E-03 -4.154531634E-04 8.221299062E-01
 -1.375754480E-03 -2.195540350E-03 8.256411762E-01
 -3.900589072E-04 -4.304866772E-03 7.888606484E-01
 1.142004272E-03 -6.491801701E-03 6.560333621E-01
 3.247072455E-03 -8.747469634E-03 5.144519990E-01
 5.138282198E-03 -1.040745247E-02 3.927472668E-01
 7.342070807E-03 -1.207818463E-02 3.206498518E-01
 9.031836875E-03 -1.322389860E-02 2.190195644E-01
 1.114150696E-02 -1.453237049E-02 1.527435763E-01
 1.356361527E-02 -1.590812393E-02 1.171541557E-01
 1.688986085E-02 -1.761469059E-02 6.929584207E-02
 1.993568242E-02 -1.904232241E-02 1.747369148E-02
 2.392753400E-02 -2.074903622E-02 -1.490230712E-02
 2.933264151E-02 -2.283625677E-02 -6.173134629E-02
 3.510936350E-02 -2.483993582E-02 -9.404236890E-02
 4.226540402E-02 -2.708539553E-02 -1.359614901E-01
 4.982135072E-02 -2.923538350E-02 -1.691369529E-01
 5.874088034E-02 -3.153175116E-02 -2.008666168E-01
 6.750633568E-02 -3.358775005E-02 -2.103407606E-01
 7.775946707E-02 -3.580674529E-02 -2.236119072E-01
 8.758737892E-02 -3.776593506E-02 -2.369588378E-01
 9.788560122E-02 -3.966933489E-02 -2.510372485E-01
 1.088244244E-01 -4.155663401E-02 -2.618052690E-01
 1.199814007E-01 -4.334472865E-02 -2.720727852E-01
 1.315780431E-01 -4.508817196E-02 -2.844942017E-01
 1.419927478E-01 -4.655765370E-02 -2.956590518E-01
 1.531106085E-01 -4.802630097E-02 -3.033429803E-01
 1.649702042E-01 -4.950597510E-02 -3.127260203E-01
 1.765047610E-01 -5.084467679E-02 -3.239459947E-01
 1.882247180E-01 -5.212625489E-02 -3.345464904E-01
 1.987407357E-01 -5.320146307E-02 -3.467276776E-01
 2.098576277E-01 -5.425014347E-02 -3.545831508E-01
 2.219216526E-01 -5.531207472E-02 -3.640066879E-01
 2.342654318E-01 -5.630934983E-02 -3.757669921E-01
 2.464046180E-01 -5.720018968E-02 -3.876191400E-01
 2.586280107E-01 -5.798711628E-02 -3.962459247E-01
 2.695076168E-01 -5.862243474E-02 -4.052127640E-01
 2.820049226E-01 -5.925199017E-02 -4.135331206E-01
 2.942726016E-01 -5.977013335E-02 -4.237116754E-01
 3.069898486E-01 -6.018302962E-02 -4.284294321E-01
 3.186644018E-01 -6.047860160E-02 -4.339787260E-01
 3.312615454E-01 -6.067893654E-02 -4.404143172E-01
 3.418712914E-01 -6.074343994E-02 -4.435375605E-01
 3.532731533E-01 -6.072653458E-02 -4.426857661E-01
 3.641971350E-01 -6.061166897E-02 -4.442212328E-01
 3.749608099E-01 -6.039923057E-02 -4.427361922E-01
 3.864400387E-01 -6.005961075E-02 -4.349018166E-01
 3.994387388E-01 -5.954404548E-02 -4.238632561E-01
 4.118836224E-01 -5.893435702E-02 -4.141909223E-01
 4.248634875E-01 -5.815924332E-02 -4.034201350E-01
 4.374187291E-01 -5.726431310E-02 -3.841295757E-01
 4.498207867E-01 -5.628053844E-02 -3.649007562E-01
 4.618520737E-01 -5.518957600E-02 -3.473690516E-01
 4.743641019E-01 -5.397370830E-02 -3.198288371E-01
 4.862232208E-01 -5.274428427E-02 -2.977391861E-01
 4.988559186E-01 -5.131112412E-02 -2.713225894E-01
 5.126737952E-01 -4.966673255E-02 -2.395506579E-01
 5.263975263E-01 -4.796854407E-02 -2.143579652E-01
 5.395430326E-01 -4.625698924E-02 -1.877827258E-01
 5.527120829E-01 -4.449092224E-02 -1.591612369E-01
 5.662913918E-01 -4.265234619E-02 -1.343932618E-01
 5.794733167E-01 -4.079313576E-02 -1.115160700E-01
 5.918067098E-01 -3.902695328E-02 -8.250940804E-02
 6.046543717E-01 -3.721049801E-02 -6.350514333E-02
 6.187136769E-01 -3.517339379E-02 -4.300123474E-02
 6.331292391E-01 -3.308243304E-02 -1.749726214E-02
 6.476174593E-01 -3.097089007E-02 4.400315275E-03
 6.607709527E-01 -2.906481549E-02 2.602893798E-02
 6.745469570E-01 -2.710352838E-02 4.108832683E-02
 6.869887114E-01 -2.529514953E-02 6.066921295E-02
 6.993899345E-01 -2.354191616E-02 7.934007253E-02
 7.141435146E-01 -2.147147432E-02 9.624818690E-02
 7.274673581E-01 -1.964866370E-02 1.111901014E-01
 7.389141321E-01 -1.803005114E-02 1.298214938E-01
 7.523052096E-01 -1.625304669E-02 1.481825329E-01
 7.645474076E-01 -1.461251546E-02 1.611398713E-01
 7.779009342E-01 -1.289589144E-02 1.805284812E-01
 7.901832461E-01 -1.138224825E-02 1.919843067E-01
 8.028573990E-01 -9.817292914E-03 2.069862353E-01
 8.139790893E-01 -8.511104621E-03 2.249452809E-01
 8.255817294E-01 -7.215472870E-03 2.348851172E-01
 8.381161690E-01 -5.855618045E-03 2.491111953E-01
 8.505366445E-01 -4.594944417E-03 2.661719055E-01
 8.628515005E-01 -3.448645584E-03 2.785826934E-01
 8.741533756E-01 -2.476170892E-03 2.901447011E-01
 8.858358264E-01 -1.589203952E-03 3.014109488E-01
 8.986451030E-01 -7.344020996E-04 3.086657058E-01
 9.089140892E-01 -1.692056831E-04 3.164739984E-01
 9.192527533E-01 3.015205439E-04 3.193148093E-01
 9.287483096E-01 6.397751276E-04 3.230163248E-01
 9.377623796E-01 8.810688159E-04 3.248862077E-01
 9.495744109E-01 1.081352704E-03 3.251968506E-01
 9.625487328E-01 1.153848949E-03 3.217039055E-01
 9.767230749E-01 1.063770149E-03 3.298903479E-01
 9.891305566E-01 8.332731668E-04 3.010330049E-01
 -5.000000000E-01 -1.000000000E+00 2.832266948E-02
 3.500000000E+00 -1.000000000E+00 1.666873410E-02
 3.500000000E+00 1.000000000E+00 -1.602292501E-04
 -5.000000000E-01 1.000000000E+00 -9.725790526E-04
 -5.000000000E-01 5.000000000E-01 3.630315095E-02
 -5.000000000E-01 2.752797990E-12 9.725433772E-02
 -5.000000000E-01 -5.000000000E-01 6.103340897E-02
 -9.421907698E-13 -1.000000000E+00 1.940208599E-02
 5.000000000E-01 -1.000000000E+00 -4.896610448E-03
 1.000000000E+00 -1.000000000E+00 1.035741121E-02
 1.500000000E+00 -1.000000000E+00 3.208731785E-02
 2.000000000E+00 -1.000000000E+00 2.906631121E-02
 2.500000000E+00 -1.000000000E+00 2.111650646E-02
 3.000000000E+00 -1.000000000E+00 1.726459161E-02
 3.500000000E+00 -5.000000000E-01 1.983636707E-02
 3.500000000E+00 -2.752797990E-12 1.928368111E-02
 3.500000000E+00 5.000000000E-01 7.830810656E-03
 3.000000000E+00 1.000000000E+00 -2.344848182E-03
 2.500000000E+00 1.000000000E+00 -8.147985503E-03
 2.000000000E+00 1.000000000E+00 -2.264259050E-02
 1.500000000E+00 1.000000000E+00 -6.005797317E-02
 1.000000000E+00 1.000000000E+00 -1.129661540E-01
 5.000000000E-01 1.000000000E+00 -1.027723882E-01
 1.733724275E-12 1.000000000E+00 -3.008856073E-02
 6.817953223E-01 -3.952591659E-02 4.959214177E-02
 7.864871697E-01 -2.400192179E-02 1.805840514E-01
 9.049223864E-01 -1.293546746E-02 2.982163539E-01
 7.086757565E-01 6.242413664E-02 -3.411190926E-01
 2.766185610E-01 -7.520837864E-02 -3.833851854E-01
 2.731717673E-01 7.779542388E-02 -4.680561889E-01
 3.671774316E-01 7.872001686E-02 -5.083804472E-01
 9.105894700E-01 3.043624688E-02 -4.432342088E-02
 8.015739972E-01 5.174452564E-02 -2.214303238E-01
 5.643657608E-01 -5.615076487E-02 -1.353714871E-01
 5.926749092E-01 7.847617571E-02 -4.677005803E-01
 3.944203306E-01 -7.505566483E-02 -3.970412403E-01
 4.928628425E-01 7.869224701E-02 -5.245674338E-01
 1.782768974E+00 -5.248671554E-01 2.748226218E-02
 1.777546789E+00 6.452004897E-01 -1.992146286E-02
 3.031174552E+00 2.156845099E-01 1.073768101E-02
 7.577049770E-01 -6.460136910E-01 1.245765371E-02
 4.692438267E-01 -6.603283052E-02 -3.085784837E-01
 3.395872967E-01 -6.733886773E-01 -2.600157761E-02
 1.120937653E-01 -5.765784100E-02 -2.353464855E-01
 1.799192959E-01 -6.655996492E-02 -3.040430919E-01
 7.638205640E-01 5.265053338E-01 -1.518425516E-01
 2.991004043E-01 6.749373322E-01 -1.246303308E-01
 1.228868580E-01 6.030636341E-02 -3.514487619E-01
 1.766667441E-01 6.686258849E-02 -4.099653569E-01
 2.734850264E+00 -5.326892741E-01 1.694332649E-02
 1.190417153E+00 6.611452091E-01 -6.668645033E-02
 9.739838131E-01 3.256963797E-01 -7.419600530E-02
 1.246765372E+00 -6.368099955E-01 4.264352773E-02
 1.504379660E+00 -2.786784300E-01 3.804630670E-02
 2.240008004E+00 -5.762005896E-01 1.957432040E-02
 2.024638926E+00 -1.905120558E-01 1.557698971E-02
 2.420205528E+00 -1.843058554E-01 1.231609897E-02
 2.184627741E+00 1.582433786E-01 6.783433941E-03
 1.828105928E+00 8.789407634E-02 1.015600613E-02
 -2.710595235E-01 -2.372059713E-01 1.154443263E-01
 -1.462735161E-01 -6.012556661E-01 2.668542191E-02
 1.361386576E-01 -3.700802712E-01 -3.230858629E-02
 -2.713738449E-01 2.418149365E-01 8.815783335E-02
 -6.705679163E-02 6.048462171E-01 -2.259355465E-02
 4.078102781E-02 3.785655183E-01 -8.053945354E-02
 4.509584426E-02 3.896989558E-02 -1.724541185E-01
 2.238975081E+00 5.543131107E-01 -4.650922838E-03
 2.745993353E+00 5.960376422E-01 2.657201203E-03
 -2.295964679E-01 -4.163027422E-03 1.541555844E-01
 -1.076240862E-01 -1.277549497E-01 1.730977129E-01
 6.327839039E-02 -4.220361932E-02 -1.674991040E-01
 -7.250110646E-02 -3.070862325E-01 5.508924148E-02
 -1.335576022E-03 -1.688004145E-01 7.108243390E-02
 3.053120728E-02 -2.870987313E-02 -4.929233295E-02
 1.670750748E-01 -2.432827698E-01 -1.253585750E-01
 3.322330161E-01 -7.185677426E-02 -4.167266593E-01
 3.121455153E-01 -7.580800038E-02 -4.032834570E-01
 2.250481014E-01 -7.203754618E-02 -3.427171628E-01
 -2.500941240E-02 -1.018602459E-01 1.944232183E-01
 -1.050344778E-01 -1.831184840E-02 3.054315831E-01
 2.795827189E-02 -1.052840356E-01 5.596416279E-02
 3.109361795E+00 -2.612728406E-01 1.702661288E-02
 -5.048008193E-02 -5.174133320E-02 3.072251755E-01
 -2.099298315E-03 -6.345224158E-02 2.288089762E-01
 1.041066659E-02 -1.788609431E-02 2.422086996E-01
 4.046940552E-02 -7.013426320E-02 -1.635905893E-03
 4.336950440E-02 -3.611634084E-02 -9.638509922E-02
 7.098912838E-02 -8.802616026E-02 -9.424718832E-02
 1.446427960E-01 -6.032457583E-02 -2.735710133E-01
 8.131227389E-02 -4.935657491E-02 -1.920629275E-01
 7.994795923E-02 -1.351014816E-01 -6.641850032E-02
 1.254107652E-01 -1.146055196E-01 -1.787847037E-01
 2.562857936E+00 2.038858504E-01 5.889372967E-03
 -1.865212603E-02 -2.774911378E-02 5.297127718E-01
 -4.422832072E-02 2.630423037E-04 4.719299590E-01
 4.939702786E-03 -1.352505058E-02 4.260875413E-01
 1.112343187E-01 -8.371560964E-02 -1.773540592E-01
 4.661308505E-03 -3.814804804E-02 2.615670389E-01
 2.048649993E-02 -2.354179332E-02 6.517065801E-02
 2.356635282E-02 -5.067922232E-02 9.067037323E-02
 2.516905292E-02 -3.649436827E-02 6.801345179E-02
 4.734990587E-02 -5.267926550E-02 -7.164233399E-02
 6.618093563E-02 -6.155413537E-02 -1.219182706E-01
 1.698805913E+00 -1.598558514E-01 2.357714510E-02
 1.524926429E+00 6.290596712E-02 1.894394888E-02
 1.295306971E+00 -1.733159248E-01 5.959170299E-02
 1.563425074E+00 3.231379305E-01 -5.578173724E-03
 1.294790790E+00 2.114892984E-01 1.394010870E-02
 1.472100109E+00 6.105641916E-01 -2.856788734E-02
 1.309484945E+00 1.094763210E-02 4.174887494E-02
 1.169145303E+00 -5.870623245E-03 8.213075190E-02
 1.153782510E+00 -1.312343095E-01 9.880938020E-02
 9.651206052E-01 -1.427167509E-02 3.065710544E-01
 1.071930465E+00 -7.632602503E-02 1.436155552E-01
 1.051509916E+00 -1.677247730E-01 1.283049317E-01
 1.085981182E+00 3.215542084E-02 1.022860215E-01
 9.828563892E-01 1.754091033E-02 1.788230911E-01
 1.141578240E+00 -2.609824234E-01 8.695958982E-02
 9.880874123E-01 -2.710954865E-01 1.014795498E-01
 9.039054884E-01 -1.553125281E-01 1.600248564E-01
 8.318784890E-01 -1.903700691E-02 2.325835021E-01
 8.677563371E-01 -1.530841879E-02 2.701433228E-01
 8.093114386E-01 -2.147133238E-02 2.072434341E-01
 8.457145142E-01 -2.725695170E-01 8.493278047E-02
 7.750557816E-01 -1.747698785E-01 8.996159120E-02
 6.299450557E-01 -5.237388418E-02 -2.412576707E-02
 5.980548597E-01 -4.961130196E-02 -7.724372491E-02
 7.353324937E-01 -3.160209909E-02 1.180170861E-01
 7.130523794E-01 -2.838482672E-01 8.050005878E-03
 6.541567907E-01 -1.836145604E-01 -7.369689361E-03
 5.885548105E-01 -2.577355064E-01 -5.480075530E-02
 5.385389877E-01 -1.891895265E-01 -1.202682702E-01
 5.050721847E-01 -6.497360574E-02 -2.436820427E-01
 4.909861110E-01 -2.575380551E-01 -1.297798275E-01
 4.237770477E-01 -1.927518121E-01 -2.045492718E-01
 4.360208149E-01 -6.834016487E-02 -3.678039449E-01
 7.075993055E-01 -1.247739335E-01 4.793547418E-02
 8.410217847E-01 -1.099196793E-01 1.664082797E-01
 3.694727057E-01 -2.948308302E-01 -1.502488554E-01
 3.050137640E-01 -2.035855658E-01 -2.179729947E-01
 6.007656969E-01 -1.361725596E-01 -6.591409746E-02
 1.012810714E+00 -1.052020960E-01 1.803659054E-01
 4.795943673E-01 -1.405963954E-01 -2.097985817E-01
 3.698933974E-01 -1.490869989E-01 -2.878251969E-01
 5.441824783E-01 -4.122559999E-01 -4.720246887E-02
 1.178311659E+00 9.205518959E-02 5.068138277E-02
 1.073764440E+00 1.156966160E-01 5.465208631E-02
 1.051166634E+00 -1.954989323E-02 1.515976569E-01
 2.527959942E-01 -2.878223628E-01 -1.401349534E-01
 2.280200397E-01 -1.547094042E-01 -2.307238666E-01
 2.884400399E-01 -1.338750012E-01 -3.067835033E-01
 3.331001873E-01 -1.169640697E-01 -3.313687546E-01
 2.522122600E-01 -1.100516538E-01 -3.126731068E-01
 1.929513662E-01 -1.137138785E-01 -2.486853616E-01
 2.512602431E-01 -7.069382474E-02 -3.699542732E-01
 1.027835245E+00 6.638082960E-02 9.260017292E-02
 9.867312516E-01 1.246139051E-01 4.004493494E-03
 8.662456909E-01 4.282856515E-02 -1.275687079E-01
 8.401156960E-01 4.067463557E-02 -1.705471794E-01
 1.036730747E+00 1.862904697E-02 1.299602019E-01
 1.087593327E+00 -4.271683970E-01 6.158351608E-02
 1.042477131E+00 2.144399290E-01 -1.552545851E-02
 9.354487395E-01 2.146411521E-01 -6.790682020E-02
 8.992799957E-01 1.336402175E-01 -8.329276863E-02
 8.453764368E-01 1.968975305E-01 -1.447239212E-01
 6.469618755E-01 6.865201560E-02 -4.174535269E-01
 6.261284520E-01 6.850351228E-02 -4.428162485E-01
 7.542485287E-01 5.562994957E-02 -2.857137908E-01
 7.770964308E-01 5.301713262E-02 -2.551292067E-01
 8.039914616E-01 1.299208113E-01 -1.936314324E-01
 7.627836539E-01 1.814785637E-01 -2.233131269E-01
 7.441439602E-01 1.251066793E-01 -2.638435378E-01
 7.778546910E-01 2.763419953E-01 -1.862220888E-01
 6.748911224E-01 2.593763662E-01 -2.607178405E-01
 9.404129984E-01 8.450212935E-02 -1.701352319E-02
 9.543194488E-01 2.789796878E-02 5.741956902E-02
 8.497765477E-01 9.347102115E-02 -1.439763606E-01
 7.749511353E-01 9.728414045E-02 -2.427344793E-01
 7.331190687E-01 9.162937610E-02 -2.934618608E-01
 7.008071835E-01 1.044637281E-01 -3.227459344E-01
 6.825668451E-01 6.225167037E-02 -3.785284305E-01
 7.038695469E-01 1.530666189E-01 -2.933636680E-01
 6.111700369E-01 2.044209195E-01 -3.274389115E-01
 4.261345836E-01 8.450707449E-02 -5.166871649E-01
 4.523097294E-01 8.257005144E-02 -5.194043222E-01
 5.416666869E-01 7.744366503E-02 -5.089647937E-01
 5.658043616E-01 7.548444781E-02 -4.943374824E-01
 5.775684033E-01 2.939786862E-01 -2.858092510E-01
 4.855114839E-01 2.201481574E-01 -3.621238494E-01
 6.638138320E-01 1.269312420E-01 -3.489577088E-01
 4.615702526E-01 3.275489741E-01 -2.834598563E-01
 3.905517916E-01 2.333687609E-01 -3.467156054E-01
 4.313319291E-01 1.666538991E-01 -4.125823016E-01
 3.469877874E-01 1.708277922E-01 -3.943486252E-01
 3.132456785E-01 8.380734618E-02 -4.801120785E-01
 3.399509366E-01 8.247850433E-02 -4.947350652E-01
 2.948155037E-01 2.385191804E-01 -2.960369915E-01
 2.250254724E-01 7.299718591E-02 -4.444733673E-01
 2.590435710E-01 1.703996629E-01 -3.476590900E-01
 2.097180077E-01 2.237121887E-01 -2.637086211E-01
 1.700004708E-01 1.540390312E-01 -2.822030710E-01
 5.458391768E-01 1.471477565E-01 -4.181937624E-01
 7.297811845E-01 5.812864339E-02 -3.163276490E-01
 3.518464666E-01 3.271471479E-01 -2.635152516E-01
 3.923933426E-01 1.351618436E-01 -4.445745786E-01
 3.994351598E-01 8.574080610E-02 -5.088618903E-01
 2.101008531E-01 3.791917910E-01 -1.852162736E-01
 3.072275159E-01 1.355882106E-01 -4.116844559E-01
 2.215379098E-01 1.240390020E-01 -3.767411915E-01
 5.797258999E-01 4.401545740E-01 -2.155574009E-01
 6.699290463E-01 9.752240608E-02 -3.669995242E-01
 6.365668694E-01 1.010251808E-01 -3.979485636E-01
 1.140659773E+00 3.414594881E-01 -2.853384081E-02
 6.187090030E-01 1.416211835E-01 -3.750964070E-01
 5.788568168E-01 1.246209733E-01 -4.239081043E-01
 6.038567803E-01 1.031526833E-01 -4.286364857E-01
 6.713692731E-01 6.571408596E-02 -3.921752268E-01
 7.420486354E-01 5.514554875E-02 -3.036390939E-01
 1.146000759E+00 1.950281042E-01 1.481766031E-02
 1.154899358E-01 2.329064419E-01 -1.523907734E-01
 -5.884519142E-03 2.071432251E-01 -1.465774475E-02
 1.166077633E-02 1.953532644E-02 1.985255289E-02
 7.160295685E-02 1.444244238E-01 -1.249314314E-01
 7.375241961E-02 5.033396808E-02 -2.660999812E-01
 -3.933116674E-03 1.048686047E-01 9.354287541E-02
 2.483760734E-02 2.738429462E-02 -6.833985917E-02
 -1.044166613E-01 1.227958392E-01 1.519664046E-01
 -1.006246194E-02 5.620645611E-02 3.015376790E-01
 1.235765471E-01 1.203433108E-01 -2.589525216E-01
 5.427141322E-02 8.997426411E-02 -1.188315879E-01
 2.212125148E-02 6.912433450E-02 1.035343137E-02
 4.610849004E-03 3.684763721E-02 1.660911596E-01
 3.914086580E-03 1.670477098E-02 4.243971544E-01
 9.397769103E-02 9.384180459E-02 -2.400850274E-01
 9.900036119E-02 5.415071221E-02 -3.270206428E-01
 1.903698748E-02 2.300666192E-02 -2.263337613E-03
 -1.504296227E-02 2.192630108E-02 5.485888179E-01
 -5.395001861E-02 4.511337179E-02 3.753331575E-01
 4.083848617E-01 4.655393910E-01 -2.039029289E-01
 6.351593277E-01 6.766517590E-02 -4.316392737E-01
 9.133027254E-01 -4.437046771E-01 5.479489903E-02
 1.001073280E+00 -6.307393521E-01 4.006628298E-02
 2.791756649E-01 -9.964498523E-02 -3.436242090E-01
 3.060280635E-01 -9.871119415E-02 -3.540392954E-01
 6.590171985E-01 6.522936946E-02 -4.075099566E-01
 2.225337066E-01 -1.006921332E-01 -3.035905579E-01
 2.023841465E-01 -6.453473543E-02 -3.312023323E-01
 2.137650473E-01 -6.486797347E-02 -3.422157059E-01
 2.418998609E-01 -8.483189228E-02 -3.396439451E-01
 7.053910360E-01 3.669418257E-01 -2.032186339E-01
 6.941310598E-01 6.294268193E-02 -3.595953941E-01
 6.854657946E-01 7.880322356E-02 -3.623735863E-01
 7.101590291E-01 8.190440762E-02 -3.309570374E-01
 8.584855355E-01 4.052939988E-01 -1.293628126E-01
 5.553616314E-01 6.445374783E-01 -1.558136719E-01
 5.777607435E-01 7.449901420E-02 -4.855072388E-01
 5.742469060E-01 9.310878032E-02 -4.652328123E-01
 5.441390118E-01 1.107641347E-01 -4.618690863E-01
 5.180327566E-01 7.857755334E-02 -5.195079768E-01
 5.091861369E-01 1.255837544E-01 -4.581788911E-01
 6.124862612E-01 8.437859242E-02 -4.408401334E-01
 5.218950948E-01 1.043825663E-01 -4.814941154E-01
 5.309141665E-01 8.995035216E-02 -4.969873550E-01
 5.049446421E-01 9.327096914E-02 -5.008852147E-01
 4.767965879E-01 1.124427999E-01 -4.780175556E-01
 4.807418290E-01 8.989604788E-02 -5.090492811E-01
 4.727724354E-01 1.458231277E-01 -4.392900071E-01
 4.405199951E-01 1.238360123E-01 -4.686965287E-01
 4.136755701E-01 1.015514952E-01 -4.907039492E-01
 4.389037698E-01 9.647113052E-02 -5.004865320E-01
 3.840587094E-01 1.034341105E-01 -4.795817735E-01
 3.526280428E-01 1.245198513E-01 -4.476726347E-01
 3.280639591E-01 9.998077172E-02 -4.667175925E-01
 2.996971685E-01 1.027345754E-01 -4.484886956E-01
 2.976379681E-01 8.324335968E-02 -4.743490203E-01
 3.853974284E-01 8.535101177E-02 -5.060766804E-01
 5.821915603E-01 1.642718598E-01 -3.822428465E-01
 3.535908667E-01 7.841708452E-02 -5.026475918E-01
 3.583737963E-01 9.409730732E-02 -4.867705288E-01
 2.811116729E-01 9.253505265E-02 -4.541466609E-01
 2.489318144E-01 7.614512089E-02 -4.561934031E-01
 2.956861098E-01 -4.353072860E-01 -7.241359595E-02
 5.517410760E-01 8.699891673E-02 -4.874414868E-01
 2.056336052E-01 -8.057193281E-02 -3.088789215E-01
 1.819887619E-01 -8.722531181E-02 -2.777813489E-01
 1.614536614E-01 -7.474189736E-02 -2.704715088E-01
 1.386236870E-01 -8.434122218E-02 -2.295861518E-01
 1.275363332E-01 -6.527318109E-02 -2.511420763E-01
 1.924517505E-01 -7.226636141E-02 -3.094115205E-01
 2.607982774E-01 -8.566152052E-02 -3.539594434E-01
 5.353686880E-01 -6.829145920E-01 -2.397605585E-02
 1.288535423E+00 -3.815551246E-01 5.421358602E-02
 5.054672855E-01 7.731789776E-02 -5.257902869E-01
 7.458265203E-01 7.067436844E-02 -2.874525616E-01
 7.676997957E-01 6.618229667E-02 -2.591111066E-01
 7.871368089E-01 6.425032856E-02 -2.334214430E-01
 8.109296705E-01 7.546552911E-02 -1.963371536E-01
 8.190672281E-01 5.156679793E-02 -1.966698511E-01
 8.370389271E-01 6.093312124E-02 -1.685329631E-01
 8.648980339E-01 6.397811978E-02 -1.298318451E-01
 8.879625275E-01 3.397644418E-02 -8.952282742E-02
 8.765982259E-01 3.505726312E-02 -1.123906548E-01
 8.821154509E-01 4.942387191E-02 -9.847453420E-02
 8.942680959E-01 7.355037805E-02 -7.947396674E-02
 8.993047394E-01 4.396951771E-02 -6.713257155E-02
 9.221826890E-01 4.714615815E-02 -2.664265026E-02
 9.525091921E-01 5.303945545E-02 3.253257410E-02
 9.734383462E-01 3.768240049E-02 6.964133693E-02
 9.799433178E-01 6.720775121E-02 5.284649835E-02
 9.369234147E-01 3.009907210E-02 1.206741837E-02
 1.000160571E+00 3.465728600E-02 1.417337524E-01
 1.232528822E-01 8.546011385E-02 -3.053902513E-01
 1.529651207E-01 6.078835429E-02 -3.962451681E-01
 1.579696362E-01 9.802972452E-02 -3.369276648E-01
 1.923028855E-01 9.957435120E-02 -3.718817371E-01
 1.993497423E-01 7.414730848E-02 -4.217718232E-01
 1.434023842E-01 7.213991147E-02 -3.610392781E-01
 1.885743727E-01 6.700907966E-02 -4.210756844E-01
 2.117372506E-01 8.611259404E-02 -4.158603134E-01
 2.337117217E-01 8.769656572E-02 -4.263060942E-01
 2.560383988E-01 9.320886531E-02 -4.353934729E-01
 2.712847338E-01 1.203438624E-01 -4.091028497E-01
 2.130879489E-01 7.020972587E-02 -4.388388728E-01
 1.058229405E-01 6.908284323E-02 -3.077110453E-01
 8.562615738E-02 6.672407609E-02 -2.528473330E-01
 5.655799840E-02 6.704964845E-02 -1.480909755E-01
 2.937109565E-02 4.888733775E-02 -6.945973772E-02
 5.791230579E-02 4.895507109E-02 -2.144464591E-01
 1.661166150E-02 3.061992972E-02 5.218085143E-02
 3.283797183E-02 3.618615656E-02 -1.168606685E-01
 1.633501521E-01 7.541880898E-02 -3.834386116E-01
 1.802752340E-01 8.088494276E-02 -3.926294516E-01
 8.520234930E-01 4.918225517E-02 -1.482617102E-01
 5.299852623E-01 7.597409986E-02 -5.169965812E-01
 7.455089213E-02 -2.317095961E-01 -2.643072308E-02
 3.323416058E-01 -1.611495596E-01 -2.787537896E-01
 3.720624771E-01 -1.112876877E-01 -3.417391431E-01
 3.597745570E-01 -7.267821239E-02 -4.176118227E-01
 4.108456063E-01 -1.286701471E-01 -2.951231655E-01
 4.490420909E-01 -1.141689496E-01 -2.785191466E-01
 3.986279327E-01 -9.952548488E-02 -3.505016588E-01
 4.103523902E-01 -8.105204501E-02 -3.697775646E-01
 3.747625609E-01 -8.450332366E-02 -3.913913625E-01
 3.493826322E-01 -8.807047034E-02 -3.875311381E-01
 3.265778829E-01 -9.028210177E-02 -3.827095084E-01
 2.936586771E-01 -8.164401328E-02 -3.829931355E-01
 4.250775426E-01 -9.135113034E-02 -3.337013285E-01
 4.511930734E-01 -8.232244397E-02 -3.180398417E-01
 4.807605355E-01 -9.805854481E-02 -2.565221736E-01
 5.198414466E-01 -1.176054561E-01 -1.768105482E-01
 5.639081287E-01 -1.051920150E-01 -1.228019666E-01
 5.350004805E-01 -5.907165993E-02 -1.878661586E-01
 4.892093124E-01 -7.712342041E-02 -2.637164256E-01
 5.093609764E-01 -8.365467274E-02 -2.218138151E-01
 5.214684755E-01 -6.484011362E-02 -2.116642962E-01
 5.390594100E-01 -8.067891371E-02 -1.730368469E-01
 5.610797111E-01 -1.450904834E-01 -1.088794107E-01
 6.001142276E-01 -8.966914442E-02 -7.059047867E-02
 6.454615395E-01 -1.167157969E-01 -1.528303499E-02
 6.749665525E-01 -8.068622363E-02 2.801974996E-02
 6.571583709E-01 -4.266714153E-02 1.628151319E-02
 7.197577677E-01 -7.430705350E-02 8.420335732E-02
 7.081096106E-01 -3.243749071E-02 8.525123741E-02
 7.571751854E-01 -1.051742558E-01 1.093997695E-01
 7.584389935E-01 -6.263795863E-02 1.266078965E-01
 7.611147631E-01 -2.779626772E-02 1.497947097E-01
 6.346660049E-01 -8.131733956E-02 -1.911940151E-02
 7.741826588E-01 -2.359846593E-02 1.679359437E-01
 7.776326974E-01 -3.973626704E-02 1.609260266E-01
 7.899538439E-01 -6.710523813E-02 1.549427325E-01
 8.000946720E-01 -3.617308461E-02 1.890682961E-01
 8.239219550E-01 -5.762056119E-02 1.904444842E-01
 8.711391697E-01 -8.072071083E-02 2.099208237E-01
 8.593465235E-01 -4.502506071E-02 2.341232300E-01
 8.912994097E-01 -4.474739295E-02 2.489560576E-01
 9.342013243E-01 -9.007930633E-03 3.096821739E-01
 9.095845950E-01 -7.960131211E-02 2.142914508E-01
 9.273157624E-01 -4.340172557E-02 2.721099924E-01
 7.502271698E-01 -4.232254653E-02 1.302626956E-01
 6.439339155E-01 -4.363467986E-02 -3.390583480E-03
 6.518194524E-01 -5.907905048E-02 3.040171763E-03
 6.716309786E-01 -5.429889938E-02 3.149947743E-02
 6.923263709E-01 -5.602635591E-02 5.570408191E-02
 6.123131802E-01 -6.508186355E-02 -5.679973493E-02
 7.296753993E-01 -4.903503440E-02 1.051367460E-01
 7.208515511E-01 -3.424650434E-02 9.884864053E-02
 9.570836834E-01 -9.036707409E-02 2.140314773E-01
 9.698741474E-01 -3.623876340E-02 2.533539009E-01
 1.011684587E+00 -5.306792954E-02 2.090788186E-01
 1.020022745E+00 -1.677319738E-02 2.458473552E-01
 7.475787537E-01 -2.720080224E-02 1.354525807E-01
 6.964984800E-01 -3.801851545E-02 6.975591196E-02
 6.691805163E-01 -3.853206027E-02 3.266009897E-02
 5.657026597E-01 -7.464644539E-02 -1.266368542E-01
 5.803871678E-01 -5.964197408E-02 -1.031919378E-01
 9.972906395E-01 -2.397902901E-02 3.380763065E-01
 9.485820283E-01 -2.100355414E-02 2.969043220E-01
 1.332278580E+00 4.295592235E-01 -2.294108320E-02
 8.209456644E-01 -3.218645155E-02 2.092374064E-01
 6.572793720E-01 8.012161331E-02 -3.946687731E-01
 5.529301071E-01 7.423540323E-02 -5.056770661E-01
 3.133974596E+00 6.339745962E-01 1.936945988E-03