TITLE     = "Visualization of the solution"
VARIABLES = "x"
"y"
"Pressure_Coefficient"
ZONE T="Zone"
 STRANDID=0, SOLUTIONTIME=0
 Nodes=701, Elements=1187, ZONETYPE=FEQuadrilateral
 DATAPACKING=POINT
 DT=(DOUBLE DOUBLE DOUBLE )
 1.000188470E+00 5.138113047E-04 2.537519990E-01
 9.883806109E-01 2.964879386E-03 2.586690106E-01
 9.757010937E-01 5.557273980E-03 1.606167893E-01
 9.595597386E-01 8.964661509E-03 9.315415764E-02
 9.445562363E-01 1.200352609E-02 4.686595933E-02
 9.301413894E-01 1.497923862E-02 6.618725431E-03
 9.185552597E-01 1.738777757E-02 -2.351196964E-02
 9.070252776E-01 1.968509145E-02 -5.745785613E-02
 8.956742883E-01 2.199764177E-02 -8.486329063E-02
 8.841946721E-01 2.419399656E-02 -1.052522226E-01
 8.724761605E-01 2.646449581E-02 -1.347913864E-01
 8.602413535E-01 2.876060456E-02 -1.601863439E-01
 8.482935429E-01 3.093575500E-02 -1.748305330E-01
 8.374069333E-01 3.281395137E-02 -1.911447051E-01
 8.259935379E-01 3.482560441E-02 -2.133838525E-01
 8.135009408E-01 3.693254665E-02 -2.266745411E-01
 8.008378744E-01 3.900289163E-02 -2.436206381E-01
 7.879981399E-01 4.108937830E-02 -2.602843994E-01
 7.753884792E-01 4.305870831E-02 -2.763927055E-01
 7.638928890E-01 4.484647140E-02 -2.946304138E-01
 7.505424619E-01 4.685073718E-02 -3.096217610E-01
 7.369484305E-01 4.883340001E-02 -3.328325105E-01
 7.261961699E-01 5.039575696E-02 -3.491086070E-01
 7.147791386E-01 5.194225535E-02 -3.572818277E-01
 7.029030323E-01 5.353773758E-02 -3.778720955E-01
 6.898072958E-01 5.525314435E-02 -3.904932882E-01
 6.766118407E-01 5.687421933E-02 -4.100739205E-01
 6.662390828E-01 5.815976858E-02 -4.270291422E-01
 6.543516517E-01 5.950814486E-02 -4.388529029E-01
 6.422867775E-01 6.084906682E-02 -4.562277780E-01
 6.303246617E-01 6.209754571E-02 -4.707244252E-01
 6.184040308E-01 6.327456981E-02 -4.812890848E-01
 6.077315211E-01 6.424599141E-02 -4.892519538E-01
 5.954929590E-01 6.531317532E-02 -5.016970816E-01
 5.840834975E-01 6.623683870E-02 -5.096171511E-01
 5.708239675E-01 6.722252071E-02 -5.211067818E-01
 5.585866570E-01 6.805585325E-02 -5.258262594E-01
 5.463606119E-01 6.878653914E-02 -5.343540566E-01
 5.352725983E-01 6.940854341E-02 -5.397220621E-01
 5.237150788E-01 6.994707137E-02 -5.363332266E-01
 5.117659569E-01 7.044550031E-02 -5.456163034E-01
 5.007820129E-01 7.086690515E-02 -5.477392631E-01
 4.875723720E-01 7.123184204E-02 -5.420303402E-01
 4.742733538E-01 7.153295726E-02 -5.465964566E-01
 4.610594213E-01 7.176760584E-02 -5.450329131E-01
 4.478969872E-01 7.186918706E-02 -5.380883321E-01
 4.354228377E-01 7.191290706E-02 -5.398753403E-01
 4.229359031E-01 7.189892977E-02 -5.384136133E-01
 4.105392396E-01 7.179399580E-02 -5.332759388E-01
 3.983289003E-01 7.162020355E-02 -5.292335161E-01
 3.862047493E-01 7.139724493E-02 -5.282883689E-01
 3.742303252E-01 7.111427188E-02 -5.262521779E-01
 3.613875210E-01 7.073426992E-02 -5.226400314E-01
 3.486821651E-01 7.027281821E-02 -5.147208681E-01
 3.355887532E-01 6.972168386E-02 -5.075421859E-01
 3.243570030E-01 6.919118017E-02 -5.079734375E-01
 3.117126226E-01 6.854617596E-02 -5.028205302E-01
 2.986693382E-01 6.777596474E-02 -4.959520387E-01
 2.846782506E-01 6.686578691E-02 -4.918967550E-01
 2.727895081E-01 6.602049619E-02 -4.874663118E-01
 2.609041333E-01 6.509642303E-02 -4.777822348E-01
 2.484290898E-01 6.403628737E-02 -4.720445740E-01
 2.360614985E-01 6.292814016E-02 -4.674566052E-01
 2.237868458E-01 6.172211096E-02 -4.563342463E-01
 2.117279917E-01 6.045913696E-02 -4.524680902E-01
 1.997090280E-01 5.913012475E-02 -4.442389468E-01
 1.871116459E-01 5.761471763E-02 -4.332024407E-01
 1.751100123E-01 5.607331917E-02 -4.238458413E-01
 1.635599583E-01 5.451094359E-02 -4.138230589E-01
 1.517412812E-01 5.278983340E-02 -4.044243637E-01
 1.408366561E-01 5.110809579E-02 -3.939895555E-01
 1.290527880E-01 4.916930571E-02 -3.795589494E-01
 1.177158728E-01 4.716859758E-02 -3.655532983E-01
 1.070113108E-01 4.515575990E-02 -3.536888528E-01
 9.706775099E-02 4.317111149E-02 -3.376653862E-01
 8.604849130E-02 4.081387445E-02 -3.118452901E-01
 7.480825484E-02 3.821730986E-02 -2.917068316E-01
 6.490050256E-02 3.573958576E-02 -2.653706695E-01
 5.512410402E-02 3.308836743E-02 -2.395431731E-01
 4.660765454E-02 3.056925535E-02 -2.236620764E-01
 3.909428045E-02 2.815756015E-02 -2.064130445E-01
 3.234464303E-02 2.578870207E-02 -1.653231781E-01
 2.658836730E-02 2.358112857E-02 -1.443927219E-01
 2.235809155E-02 2.182226442E-02 -1.145967907E-01
 1.837449335E-02 2.002137899E-02 -7.464883925E-02
 1.505854446E-02 1.839072444E-02 -4.344992669E-02
 1.201968454E-02 1.675791293E-02 -3.499863718E-02
 9.803638794E-03 1.546221040E-02 4.412169157E-02
 7.852050476E-03 1.420813426E-02 3.706082265E-03
 6.061454769E-03 1.295717061E-02 2.022107230E-01
 3.765413072E-03 1.112239901E-02 2.541978258E-02
 1.848490559E-03 9.277094156E-03 6.634200136E-01
 3.031198285E-04 7.398458198E-03 6.375908113E-01
 -1.158162602E-03 4.739416298E-03 6.238496695E-01
 -1.698995824E-03 2.745868871E-03 9.608705627E-01
 -1.792278374E-03 1.141635585E-03 1.177526704E+00
 -1.571967965E-03 -5.044895806E-04 9.236038656E-01
 -1.064721262E-03 -2.089594491E-03 9.618377710E-01
 -5.048169987E-05 -4.033690784E-03 8.495787824E-01
 1.383322175E-03 -5.975769833E-03 6.932172067E-01
 3.311725799E-03 -7.985454053E-03 4.900489290E-01
 5.086859688E-03 -9.514733218E-03 3.910070993E-01
 7.113653701E-03 -1.103308704E-02 2.496098390E-01
 8.816071786E-03 -1.217873488E-02 2.200560646E-01
 1.092734933E-02 -1.346468367E-02 1.937903825E-01
 1.327575464E-02 -1.476750523E-02 1.375153553E-01
 1.654050313E-02 -1.641496271E-02 4.870349147E-02
 1.942221075E-02 -1.773223467E-02 5.904687859E-04
 2.319066040E-02 -1.931112818E-02 -2.446004628E-02
 2.843119763E-02 -2.130022272E-02 -3.229314301E-02
 3.404497355E-02 -2.321517840E-02 -9.202489389E-02
 4.072496295E-02 -2.527416684E-02 -1.212563236E-01
 4.825989157E-02 -2.738393098E-02 -1.504276126E-01
 5.703628063E-02 -2.960712649E-02 -1.765724751E-01
 6.572849303E-02 -3.161686286E-02 -1.983299709E-01
 7.578499615E-02 -3.375482559E-02 -2.123558966E-01
 8.584599942E-02 -3.573229536E-02 -2.283065945E-01
 9.607330710E-02 -3.759565577E-02 -2.400323014E-01
 1.074628830E-01 -3.953114524E-02 -2.499205586E-01
 1.186978444E-01 -4.131102189E-02 -2.604540643E-01
 1.307630539E-01 -4.310315847E-02 -2.703533141E-01
 1.416688114E-01 -4.462834075E-02 -2.833349911E-01
 1.531392336E-01 -4.612709954E-02 -2.912475209E-01
 1.655850261E-01 -4.765824601E-02 -3.001033580E-01
 1.773666292E-01 -4.901929572E-02 -3.121650554E-01
 1.895966828E-01 -5.034559965E-02 -3.238681834E-01
 2.006949931E-01 -5.146740749E-02 -3.342575368E-01
 2.123717070E-01 -5.256848410E-02 -3.430359521E-01
 2.247909307E-01 -5.365272611E-02 -3.541748098E-01
 2.373419106E-01 -5.465930328E-02 -3.647465204E-01
 2.498763055E-01 -5.558447912E-02 -3.782125094E-01
 2.622498870E-01 -5.638357624E-02 -3.879930858E-01
 2.735531926E-01 -5.704737455E-02 -3.974227770E-01
 2.860098183E-01 -5.767350644E-02 -4.069168669E-01
 2.984505296E-01 -5.820798129E-02 -4.151876086E-01
 3.114192784E-01 -5.865440518E-02 -4.259092388E-01
 3.234418929E-01 -5.894274637E-02 -4.319307155E-01
 3.362981677E-01 -5.915172026E-02 -4.352110816E-01
 3.472521305E-01 -5.922915414E-02 -4.415992608E-01
 3.587241769E-01 -5.921313539E-02 -4.432527370E-01
 3.696998954E-01 -5.908427760E-02 -4.424314440E-01
 3.808674216E-01 -5.887264386E-02 -4.398149452E-01
 3.927254379E-01 -5.852149799E-02 -4.369554976E-01
 4.060387015E-01 -5.797313899E-02 -4.249994229E-01
 4.185921550E-01 -5.733804777E-02 -4.142431306E-01
 4.310777783E-01 -5.656161159E-02 -4.025104875E-01
 4.434579015E-01 -5.566576123E-02 -3.835897422E-01
 4.550559521E-01 -5.471248552E-02 -3.617351807E-01
 4.666281939E-01 -5.367606133E-02 -3.403073869E-01
 4.788019359E-01 -5.248115212E-02 -3.187887702E-01
 4.902251065E-01 -5.126807839E-02 -2.929686060E-01
 5.029846430E-01 -4.985369742E-02 -2.690199304E-01
 5.164660215E-01 -4.822788760E-02 -2.397745410E-01
 5.293870568E-01 -4.662431777E-02 -2.093662972E-01
 5.421764255E-01 -4.495478421E-02 -1.869156266E-01
 5.542376637E-01 -4.332931340E-02 -1.606213701E-01
 5.677862763E-01 -4.146631807E-02 -1.305094635E-01
 5.803769231E-01 -3.971607983E-02 -1.057851153E-01
 5.927544236E-01 -3.796063736E-02 -8.351211852E-02
 6.057679057E-01 -3.611147031E-02 -6.073708879E-02
 6.203147173E-01 -3.403485566E-02 -3.849475501E-02
 6.343573332E-01 -3.199266270E-02 -1.312085148E-02
 6.493389606E-01 -2.985073254E-02 9.488386771E-03
 6.618638039E-01 -2.804442868E-02 2.772338508E-02
 6.748675704E-01 -2.615640871E-02 4.985365530E-02
 6.873922944E-01 -2.439522184E-02 6.751702486E-02
 6.996247172E-01 -2.267534100E-02 8.158703900E-02
 7.140014172E-01 -2.067873254E-02 1.003981065E-01
 7.269649506E-01 -1.890187897E-02 1.175856162E-01
 7.389314771E-01 -1.726797037E-02 1.360592719E-01
 7.529695630E-01 -1.541530527E-02 1.501478748E-01
 7.650336623E-01 -1.383481361E-02 1.675357840E-01
 7.786421776E-01 -1.210828591E-02 1.834376777E-01
 7.902316451E-01 -1.066186652E-02 2.006234478E-01
 8.031935692E-01 -9.118768387E-03 2.168778708E-01
 8.142406344E-01 -7.857882418E-03 2.301215964E-01
 8.259688616E-01 -6.583967712E-03 2.420808165E-01
 8.391763568E-01 -5.220215302E-03 2.544829436E-01
 8.516259193E-01 -3.996599931E-03 2.718603748E-01
 8.638114929E-01 -2.900555031E-03 2.849232961E-01
 8.746200800E-01 -1.993986778E-03 2.986001023E-01
 8.861142993E-01 -1.168198185E-03 3.074548123E-01
 8.988844752E-01 -3.698755754E-04 3.133386559E-01
 9.090833664E-01 1.566059946E-04 3.231579743E-01
 9.199256301E-01 6.068567745E-04 3.262099291E-01
 9.297885895E-01 9.170761332E-04 3.283751226E-01
 9.390841722E-01 1.122092479E-03 3.271687184E-01
 9.504687786E-01 1.267461572E-03 3.297346981E-01
 9.629793167E-01 1.289112726E-03 3.285184184E-01
 9.763809443E-01 1.155260950E-03 3.291635408E-01
 9.887339473E-01 8.921571425E-04 4.135673348E-01
 -5.000000000E-01 -1.000000000E+00 3.020941357E-02
 3.500000000E+00 -1.000000000E+00 1.644504151E-02
 3.500000000E+00 1.000000000E+00 1.764475497E-04
 -5.000000000E-01 1.000000000E+00 -3.873570191E-03
 -5.000000000E-01 5.000000000E-01 3.430330336E-02
 -5.000000000E-01 2.752797990E-12 9.571411772E-02
 -5.000000000E-01 -5.000000000E-01 6.279366192E-02
 -9.421907698E-13 -1.000000000E+00 1.913765026E-02
 5.000000000E-01 -1.000000000E+00 3.706555178E-03
 1.000000000E+00 -1.000000000E+00 1.139206291E-02
 1.500000000E+00 -1.000000000E+00 3.306084465E-02
 2.000000000E+00 -1.000000000E+00 2.898440161E-02
 2.500000000E+00 -1.000000000E+00 2.110828115E-02
 3.000000000E+00 -1.000000000E+00 1.716265399E-02
 3.500000000E+00 -5.000000000E-01 1.943688306E-02
 3.500000000E+00 -2.752797990E-12 1.892493379E-02
 3.500000000E+00 5.000000000E-01 8.009421227E-03
 3.000000000E+00 1.000000000E+00 -2.567132723E-03
 2.500000000E+00 1.000000000E+00 -9.080803539E-03
 2.000000000E+00 1.000000000E+00 -2.378357767E-02
 1.500000000E+00 1.000000000E+00 -6.167556306E-02
 1.000000000E+00 1.000000000E+00 -1.150297347E-01
 5.000000000E-01 1.000000000E+00 -1.048135484E-01
 1.733724275E-12 1.000000000E+00 -3.228904073E-02
 6.835868558E-01 -3.459943929E-02 5.866926066E-02
 7.875169583E-01 -2.432026500E-02 1.874630888E-01
 9.032487674E-01 -8.246232804E-03 3.062059807E-01
 5.880859311E-01 -4.955758849E-02 -9.071770917E-02
 4.966953758E-01 -6.134659713E-02 -2.692127835E-01
 6.861014565E-01 6.710427803E-02 -3.889466175E-01
 2.769280508E-01 7.893929622E-02 -4.735838146E-01
 3.661897589E-01 8.337955502E-02 -5.061337563E-01
 2.914599892E-01 -7.374764739E-02 -3.858448517E-01
 9.174344201E-01 2.993272982E-02 -3.195091168E-02
 7.825968584E-01 5.413782597E-02 -2.620556285E-01
 1.837856566E-01 -6.137514470E-02 -3.016552082E-01
 5.915942757E-01 7.736559917E-02 -4.898496034E-01
 3.870914172E-01 -7.189660349E-02 -4.088840706E-01
 4.931879657E-01 8.451047998E-02 -5.260935394E-01
 1.838629208E+00 -5.965215945E-01 2.882543359E-02
 1.796768760E+00 6.652758054E-01 -2.016941612E-02
 3.031168137E+00 2.156875103E-01 1.051039095E-02
 7.500000000E-01 -5.669872981E-01 1.019292074E-02
 7.531571032E-01 5.303642293E-01 -1.601000750E-01
 2.895219081E-01 6.448050297E-01 -1.259669259E-01
 1.224322307E-01 5.913626567E-02 -3.463646277E-01
 1.837495980E-01 6.873677022E-02 -4.125415812E-01
 2.734866023E+00 -5.326734813E-01 1.671676054E-02
 1.166707335E+00 7.018034067E-01 -7.640455967E-02
 9.730590667E-01 3.238246447E-01 -7.676304187E-02
 8.465308958E-01 4.084861085E-02 -1.745897717E-01
 1.265943404E+00 -6.208567336E-01 4.213421479E-02
 1.483692602E+00 -2.526178315E-01 3.857474431E-02
 2.132625864E-01 -5.902819637E-01 -2.742580063E-02
 7.878597860E-02 -4.521242416E-02 -1.849850993E-01
 2.249331856E+00 -5.881214332E-01 1.985280615E-02
 1.991099606E+00 -2.103696133E-01 1.769206193E-02
 2.414669683E+00 -1.861884182E-01 1.214532642E-02
 2.184680799E+00 1.583691051E-01 5.718037088E-03
 1.813444020E+00 1.107919896E-01 7.065953526E-03
 -2.710021963E-01 -2.546518497E-01 1.109405372E-01
 -1.613060585E-01 -5.732020468E-01 3.372232583E-02
 -2.660188711E-01 2.112015628E-01 9.133053580E-02
 -9.455644118E-02 6.176737780E-01 -2.961293834E-02
 3.883643199E-02 3.357801097E-01 -7.415039859E-02
 4.672142040E-02 4.243718692E-02 -1.752936315E-01
 2.241720517E+00 5.572022901E-01 -4.270490217E-03
 2.746448018E+00 5.965204471E-01 2.505931226E-03
 -2.471894069E-01 -2.625370744E-03 1.559661074E-01
 -1.414241508E-01 -1.292218653E-01 1.772571766E-01
 3.230550193E-02 -3.714405884E-01 9.375168379E-03
 2.766799000E-01 -3.183368728E-01 -1.044169804E-01
 -1.414651330E-01 9.861864762E-02 1.680264138E-01
 -1.247564830E-01 -4.951721408E-03 2.310637953E-01
 -5.696133946E-02 -6.696619441E-02 3.025557516E-01
 4.503793324E-02 -3.410674022E-02 -1.027460230E-01
 2.405293827E-02 -2.572282881E-02 1.494716430E-02
 -5.003244044E-02 -1.502980534E-01 1.249493011E-01
 5.259652867E-03 -9.459306087E-02 1.302920995E-01
 1.229107963E-01 -5.467016366E-02 -2.420258587E-01
 2.773006308E-02 -1.996128701E-01 2.053527801E-02
 -1.473504760E-02 -5.112348436E-02 3.438612995E-01
 1.114263216E-02 -1.698639633E-02 2.473749820E-01
 -6.509154900E-02 -5.634260452E-03 3.974032384E-01
 6.848094334E-02 -1.155321567E-01 -6.003144973E-02
 1.141827956E-01 -1.569091142E-01 -1.011741737E-01
 2.432793375E-01 -6.823950752E-02 -3.519746068E-01
 2.173135279E-01 -6.310591619E-02 -3.341499697E-01
 3.109370618E+00 -2.612589899E-01 1.676766085E-02
 1.184271226E-01 -9.868654846E-02 -1.648055798E-01
 1.700459632E-01 -1.157435644E-01 -2.165624493E-01
 1.824576940E-01 -1.754307520E-01 -1.709149523E-01
 2.399309353E-01 -1.434865429E-01 -2.452913010E-01
 3.406278244E-01 -7.160072292E-02 -4.141750892E-01
 1.269435609E-01 -2.433323432E-01 -7.693997032E-02
 1.500737229E-01 -7.856869093E-02 -2.398700606E-01
 1.450111907E-01 -5.847350754E-02 -2.619363353E-01
 1.674363995E-02 -6.012087427E-02 1.467829978E-01
 4.690420121E-02 -7.612505197E-02 -8.941434198E-03
 5.696508225E-02 -4.073464694E-02 -1.289821837E-01
 2.353734788E-01 -2.246088527E-01 -1.547355083E-01
 3.010850570E-01 -1.626498440E-01 -2.552346501E-01
 4.315359388E-01 -6.904437012E-02 -3.748982559E-01
 4.123928286E-01 -7.193599586E-02 -3.909315806E-01
 4.621050031E-01 -6.424769283E-02 -3.334761768E-01
 2.836068232E-01 -1.190336268E-01 -3.111953968E-01
 3.309345509E-01 -1.205805084E-01 -3.270437392E-01
 3.609473037E-01 -1.605303710E-01 -2.612995952E-01
 3.176002840E-01 -7.406253429E-02 -4.010632799E-01
 3.793537258E-01 -1.165666350E-01 -3.288051700E-01
 4.189377405E-01 -1.587188256E-01 -2.517955753E-01
 4.010652639E-01 -2.119297355E-01 -2.054883912E-01
 4.690287651E-01 -2.129397253E-01 -1.656398633E-01
 4.191687637E-01 -2.978310145E-01 -1.354664866E-01
 5.392677218E-01 -2.734630165E-01 -8.502851178E-02
 5.810546981E-01 -1.784387690E-01 -7.694650891E-02
 5.397900696E-01 -5.731457870E-02 -1.809861052E-01
 5.610448100E-01 -5.449234810E-02 -1.422367087E-01
 6.517669838E-01 -2.473156394E-01 -1.429033454E-02
 6.815066532E-01 -1.719987688E-01 1.649209881E-02
 7.524994428E-01 -2.230093043E-01 6.240363299E-02
 8.477645170E-01 -1.642278272E-02 2.530292988E-01
 7.343632202E-01 -2.844824062E-02 1.219507621E-01
 6.282964149E-01 -4.537471591E-02 -2.603345006E-02
 7.845158002E-01 -1.369764309E-01 1.135613254E-01
 8.470592679E-01 -1.959259976E-01 1.181770561E-01
 9.704771150E-01 -1.068048174E-02 3.225862821E-01
 9.448908266E-01 -7.760658224E-03 3.156201286E-01
 8.853734324E-01 -1.276822155E-01 1.706750408E-01
 9.389404198E-01 -1.797414932E-01 1.507478556E-01
 9.246002043E-01 -2.948749175E-01 9.258187813E-02
 1.047514085E+00 -2.493339683E-01 1.032783586E-01
 1.082116863E+00 -1.271697877E-01 1.330799528E-01
 1.161657330E+00 -1.964961411E-01 9.063016383E-02
 1.175086978E+00 -8.159714822E-02 8.725201405E-02
 9.618303073E-01 -9.737271106E-02 2.001186493E-01
 5.095461512E-01 -4.180614332E-01 -5.500967575E-02
 8.139734439E-01 -8.774982922E-02 1.667525012E-01
 4.807289677E-01 -1.375654372E-01 -2.145846281E-01
 1.085885413E+00 -2.440896706E-02 1.226456365E-01
 1.175668949E+00 1.707388850E-02 7.543660241E-02
 1.291007870E+00 -1.124782482E-02 4.834164740E-02
 1.256872763E+00 1.459517909E-01 2.154555012E-02
 1.111692547E+00 8.327299103E-02 7.958558935E-02
 9.751289975E-01 2.349751553E-02 1.051561992E-01
 7.276739606E-01 -9.906544928E-02 8.680136566E-02
 6.285338190E-01 -1.243469459E-01 -3.224338441E-02
 9.098218627E-01 -7.598923552E-02 2.261239745E-01
 1.026187126E+00 -6.096598225E-02 1.966168669E-01
 1.058182682E+00 -4.493823089E-01 6.137428583E-02
 4.254579952E-01 -1.122038364E-01 -3.090515072E-01
 1.039585701E+00 -1.669042111E-02 1.575182931E-01
 4.628838064E-01 -1.039254777E-01 -2.809600418E-01
 9.809169217E-01 -4.803129428E-02 2.537700506E-01
 9.973236839E-01 -1.330393825E-02 3.588988780E-01
 9.405476960E-01 -4.586826698E-02 2.649930985E-01
 1.474693419E+00 9.597414255E-02 2.073069273E-02
 1.408140461E+00 3.311575058E-01 -6.488615399E-03
 1.079462413E+00 2.083878558E-01 2.827892794E-03
 9.751513509E-01 1.931175933E-01 -3.186514802E-02
 8.267399417E-01 2.769901008E-01 -1.598433678E-01
 8.583094274E-01 1.469706572E-01 -1.447790568E-01
 7.321371128E-01 6.320450379E-02 -3.293991927E-01
 7.113365061E-01 6.436505519E-02 -3.566462712E-01
 9.975845571E-01 9.891914436E-02 5.056706944E-02
 1.037660601E+00 3.133099393E-02 1.205468765E-01
 8.247724019E-02 -7.931176666E-02 -1.307953535E-01
 1.001226488E-01 -5.033824286E-02 -2.155739219E-01
 9.063661035E-01 -3.967823999E-02 2.672411314E-01
 8.821978929E-01 -1.012781908E-02 2.928161543E-01
 9.265846479E-01 -7.250308545E-03 3.156171656E-01
 8.805252109E-01 -5.009904908E-02 2.431352922E-01
 7.459982376E-01 -3.560942528E-01 3.729598399E-02
 4.819632429E-01 -6.174322038E-01 -3.057218368E-02
 2.097308105E-01 -1.041280943E-01 -2.736968632E-01
 -2.987008032E-02 -2.282523604E-02 4.754146848E-01
 1.749481112E-03 -1.094663691E-02 5.814875744E-01
 8.330847130E-01 -1.814213292E-02 2.390554315E-01
 8.103279314E-01 -2.058120119E-02 2.144867197E-01
 8.421563742E-01 -3.212871391E-02 2.352531417E-01
 8.615653164E-01 -2.814874782E-02 2.555625397E-01
 8.239340349E-01 -2.911414308E-02 2.195741143E-01
 8.029286124E-01 -3.686764521E-02 1.954773250E-01
 7.822840318E-01 -4.256591319E-02 1.663373066E-01
 7.577207425E-01 -2.721534775E-02 1.518325856E-01
 7.988397433E-01 -2.030994926E-02 2.038211823E-01
 9.582348555E-01 -7.947033667E-03 3.134042668E-01
 9.588592375E-01 -2.326257015E-02 2.942694606E-01
 9.820590458E-01 -2.481356864E-02 2.729636204E-01
 1.010874197E+00 -3.464928595E-02 2.470560054E-01
 9.148669419E-01 -8.346092292E-03 3.086164105E-01
 8.587035672E-01 -1.322159365E-02 2.683222034E-01
 1.720687684E-01 -5.782719383E-02 -2.933481135E-01
 1.716629171E-01 -7.423349792E-02 -2.685832679E-01
 1.935663725E-01 -7.868908212E-02 -2.867759050E-01
 3.527543500E-01 -9.989139951E-02 -3.607485988E-01
 3.633151477E-01 -7.112933447E-02 -4.174017912E-01
 3.088139144E-03 -3.949770832E-02 3.127699313E-01
 1.595901431E-01 -6.048137263E-02 -2.762768973E-01
 8.713844804E-01 -1.349468831E-02 2.782631196E-01
 2.052793061E-01 -6.484601741E-02 -3.220030599E-01
 2.490457864E-01 -1.044680447E-01 -3.033934591E-01
 2.665017315E-01 -7.025174350E-02 -3.706848846E-01
 9.207015950E-01 1.238000180E-01 -5.941306188E-02
 8.820325023E-01 3.672306496E-02 -1.087816314E-01
 8.648316114E-01 9.805699586E-02 -1.349881034E-01
 8.042252764E-01 1.196188872E-01 -2.106395188E-01
 7.993917827E-01 1.839997048E-01 -1.930509773E-01
 7.390052189E-01 1.443775515E-01 -2.741968924E-01
 6.380417261E-01 7.261375905E-02 -4.481500614E-01
 7.363570878E-01 2.221678131E-01 -2.438129689E-01
 6.158354943E-01 7.272931034E-02 -4.719227501E-01
 6.673790011E-01 1.671491769E-01 -3.365949694E-01
 6.576736921E-01 2.374762192E-01 -3.022551267E-01
 5.824686898E-01 1.947267012E-01 -3.632632426E-01
 4.298860440E-01 8.484834119E-02 -5.218215569E-01
 4.026594490E-01 8.673681508E-02 -5.125069580E-01
 4.566435454E-01 8.647449424E-02 -5.236794699E-01
 5.403412552E-01 8.172350720E-02 -5.188095699E-01
 5.648286236E-01 7.988631104E-02 -5.063748551E-01
 5.703328385E-01 2.895933206E-01 -2.988014563E-01
 4.857548065E-01 2.295056159E-01 -3.637932096E-01
 5.226295649E-01 1.570331223E-01 -4.255668000E-01
 4.377663541E-01 1.726639818E-01 -4.186077666E-01
 4.075476233E-01 2.234047088E-01 -3.674546869E-01
 3.459020872E-01 1.726623124E-01 -3.975615940E-01
 3.159251283E-01 8.581641768E-02 -4.828146050E-01
 3.427966334E-01 8.403369454E-02 -4.965905575E-01
 3.213420030E-01 2.596209467E-01 -3.133025511E-01
 2.278621978E-01 7.671468212E-02 -4.422825297E-01
 2.538210376E-01 1.826474400E-01 -3.280524265E-01
 6.128683067E-01 1.387092409E-01 -4.014038016E-01
 2.082331221E-01 3.027028319E-01 -2.101923386E-01
 1.482004204E-01 2.103056954E-01 -1.946218038E-01
 7.590046708E-01 9.766127547E-02 -2.765981202E-01
 7.600414634E-01 5.776834970E-02 -2.930762931E-01
 1.959993453E-01 1.381453698E-01 -3.405382223E-01
 1.255312684E-01 1.322486339E-01 -2.387151565E-01
 7.833475026E-02 4.857865013E-02 -2.789008596E-01
 4.873198020E-02 1.957534053E-01 -6.326811792E-02
 7.167111231E-01 3.274329519E-01 -2.265955008E-01
 5.925242775E-02 1.143920630E-01 -1.152323815E-01
 8.216917312E-01 7.794707753E-02 -2.006226908E-01
 8.080877969E-01 4.706409392E-02 -2.306248179E-01
 7.211233078E-01 1.007318275E-01 -3.193473217E-01
 6.541091272E-01 1.187408480E-01 -3.874665297E-01
 6.594157956E-01 7.263162632E-02 -4.219557722E-01
 4.456126120E-01 3.045836613E-01 -3.068965916E-01
 2.938648679E-01 1.405914569E-01 -4.098848019E-01
 4.736109435E-01 1.319381899E-01 -4.660075958E-01
 3.979057373E-01 1.395022893E-01 -4.499066290E-01
 -1.727794865E-03 1.474218008E-01 3.836154895E-02
 7.029187463E-03 8.542711771E-02 1.147352833E-01
 1.546797775E-02 2.333024282E-02 1.280566842E-03
 2.780024849E-02 2.902970058E-02 -1.082248508E-01
 5.226965186E-01 4.481574125E-01 -2.229292433E-01
 1.556151819E-01 4.604074297E-01 -1.044792660E-01
 9.031154589E-01 7.606251142E-02 -6.646566797E-02
 3.238368909E-01 4.033795519E-01 -2.159202268E-01
 1.669631277E-01 1.066928339E-01 -3.409260337E-01
 1.549761981E-01 6.502190597E-02 -3.888307266E-01
 1.998137692E-01 1.044879803E-01 -3.724952877E-01
 2.022951749E-01 7.242856364E-02 -4.245399280E-01
 6.244853362E-01 1.058311829E-01 -4.244450017E-01
 5.919810102E-01 1.137954352E-01 -4.427315219E-01
 5.699561588E-01 1.450442129E-01 -4.252652977E-01
 5.509370101E-01 1.169959849E-01 -4.670717935E-01
 5.120150064E-01 1.183636925E-01 -4.787285830E-01
 5.179507761E-01 8.272075880E-02 -5.243950634E-01
 9.972577102E-02 9.283120283E-02 -2.419360762E-01
 9.963877862E-02 5.513564997E-02 -3.110382829E-01
 1.335011078E-01 9.331992690E-02 -3.053529752E-01
 1.372728643E-01 7.096703186E-02 -3.505278487E-01
 4.493500265E-02 7.735505558E-02 -8.013055068E-02
 7.191120270E-02 8.158552419E-02 -1.980486197E-01
 8.209723815E-01 4.701212898E-02 -2.133743446E-01
 8.535821333E-01 7.006446349E-02 -1.550824440E-01
 6.041011915E-01 7.353515916E-02 -4.826264971E-01
 5.517834048E-01 7.876317730E-02 -5.167442978E-01
 7.965649848E-01 5.163278324E-02 -2.439607003E-01
 7.915628464E-01 6.695624234E-02 -2.424087699E-01
 7.732953281E-01 6.780386826E-02 -2.698592216E-01
 2.496505704E-01 1.298384672E-01 -3.967851861E-01
 1.013141852E+00 -7.037374137E-01 4.136991512E-02
 3.240272964E-01 -2.318436897E-01 -1.975721358E-01
 3.514444170E-01 -6.886627394E-02 -4.203972907E-01
 3.737447782E-01 -8.679433573E-02 -3.817434610E-01
 3.983214254E-01 -8.810423335E-02 -3.654781170E-01
 8.330830070E-01 4.564250261E-02 -1.941644801E-01
 1.632671740E-01 8.210580874E-02 -3.670043228E-01
 1.300512415E-01 -6.903534169E-02 -2.270036085E-01
 3.046330887E-01 -9.142774013E-02 -3.592362835E-01
 3.318974150E-01 -8.699343465E-02 -3.805299202E-01
 8.700675888E-01 3.912751842E-02 -1.369082282E-01
 8.767882600E-01 5.470871011E-02 -1.178534332E-01
 8.989943630E-01 4.603266743E-02 -7.429751364E-02
 9.245565770E-01 5.141506577E-02 -2.359158765E-02
 9.378379827E-01 3.039074474E-02 1.474215167E-02
 9.557117632E-01 5.084354973E-02 4.574139942E-02
 9.906122025E-01 4.768346787E-02 1.056420854E-01
 8.215112351E-01 -1.645586546E-02 2.289510703E-01
 9.545589437E-01 2.513999952E-02 6.933454981E-02
 2.562483684E+00 2.041662603E-01 5.422591148E-03
 3.749437320E-01 -6.955543903E-02 -4.197461226E-01
 8.570974935E-01 -4.867177312E-02 2.322018532E-01
 2.268697291E-02 5.853676743E-02 -3.147282273E-02
 -2.748814846E-02 5.768758075E-02 2.780731762E-01
 -9.098985770E-03 -2.844492334E-02 4.082850745E-01
 -5.482424533E-02 1.119565208E-01 1.455652017E-01
 -7.280551722E-02 2.150261124E-01 5.832087069E-02
 1.244953436E+00 -3.691771066E-01 5.894925527E-02
 1.090725760E-01 7.194298611E-02 -3.012061224E-01
 1.111741538E-01 5.570785184E-02 -3.322961188E-01
 9.829949473E-01 -9.350114108E-03 2.846353842E-01
 1.340810188E-01 -5.398210242E-02 -2.581570464E-01
 6.080247069E-01 8.823916808E-02 -4.628776893E-01
 5.772619151E-01 9.272910511E-02 -4.817101795E-01
 6.269813265E-01 8.190458016E-02 -4.490845567E-01
 6.458264340E-01 8.743366388E-02 -4.238736978E-01
 6.684322254E-01 9.065483696E-02 -3.908705796E-01
 6.921120306E-01 8.503170559E-02 -3.672917443E-01
 8.928433027E-01 3.195812232E-02 -8.766498774E-02
 1.945846022E-01 -6.134465027E-02 -3.153336148E-01
 9.206397384E-01 -2.345222143E-02 2.925297802E-01
 9.361805432E-01 -1.773983422E-02 3.010181902E-01
 8.428299966E-01 4.023282351E-01 -1.374507854E-01
 8.930731345E-01 -1.105354774E-02 2.974214756E-01
 8.850995683E-01 -2.491940362E-02 2.743836727E-01
 7.388950881E-01 8.156396102E-02 -3.080581167E-01
 2.828907093E-01 1.092429286E-01 -4.333410040E-01
 2.525623523E-01 7.944730505E-02 -4.598778038E-01
 2.308637726E-01 9.794042647E-02 -4.072448938E-01
 7.717791698E-01 -2.811804979E-02 1.662625646E-01
 6.528349851E-02 -5.576436913E-02 -1.290511227E-01
 8.251505129E-01 5.789060080E-02 -2.016971893E-01
 8.409706465E-01 5.733442519E-02 -1.784610274E-01
 8.580682664E-01 4.945887173E-02 -1.539046696E-01
 1.298200854E+00 -1.654332695E-01 6.194913421E-02
 3.087061421E-01 1.097951382E-01 -4.474835978E-01
 5.919303723E-01 6.791382250E-01 -1.671544993E-01
 1.075146260E-01 -6.581263618E-02 -1.960056182E-01
 8.810596857E-01 -4.417337430E-01 5.709645873E-02
 1.640663276E+00 -7.630532523E-02 2.439939875E-02
 3.993139621E-01 -6.968629394E-02 -4.056568935E-01
 5.777184559E-01 7.668807494E-02 -5.011719387E-01
 4.882032990E-01 1.075582152E-01 -4.958978882E-01
 4.743785380E-01 9.147232936E-02 -5.178760352E-01
 4.618095921E-01 1.058618049E-01 -4.971586662E-01
 5.077311101E-01 9.529771537E-02 -5.080688931E-01
 5.296508659E-01 9.576277667E-02 -5.010853751E-01
 4.411907729E-01 9.712702726E-02 -5.090408064E-01
 4.168128151E-01 1.027528646E-01 -4.966444119E-01
 3.930303363E-01 1.080190876E-01 -4.838104255E-01
 3.610010517E-01 1.226800606E-01 -4.571046455E-01
 3.881923801E-01 9.083076746E-02 -5.051981419E-01
 7.456570899E-01 6.188080405E-02 -3.113260881E-01
 7.553787280E-01 7.333565170E-02 -2.915039496E-01
 7.234128413E-01 7.458107843E-02 -3.338928337E-01
 6.906341487E-01 1.194924353E-01 -3.446069875E-01
 1.015675225E+00 -1.108656309E-02 2.242833838E-01
 9.662486353E-01 5.250755751E-01 -9.518991824E-02
 -1.565066471E-01 3.899025625E-01 1.819923115E-02
 3.345748002E-01 1.022177896E-01 -4.721535123E-01
 2.976117306E-01 9.238975973E-02 -4.648001203E-01
 3.544788210E-01 9.646967199E-02 -4.866701073E-01
 2.640547816E-01 9.429438564E-02 -4.438030760E-01
 1.167461978E+00 4.197684815E-01 -3.367966448E-02
 7.990896754E-01 -6.031140791E-02 1.767755333E-01
 7.706932846E-01 -7.357469255E-02 1.370770413E-01
 7.331726987E-01 -6.114218021E-02 1.034046789E-01
 7.099292503E-01 -3.429520572E-02 9.072302079E-02
 6.955632962E-01 -7.373992811E-02 5.892825299E-02
 7.594774465E-01 -4.866367328E-02 1.419672924E-01
 7.249833984E-01 -4.197405972E-02 1.058298684E-01
 7.218002245E-01 -2.903489677E-02 1.067994119E-01
 6.960058002E-01 -3.615679549E-02 7.288832208E-02
 7.083035971E-01 -4.944396220E-02 8.282931021E-02
 6.982663066E-01 6.742832910E-02 -3.726252527E-01
 3.545565674E-01 8.179976998E-02 -5.051697449E-01
 1.694543833E+00 -3.285389573E-01 2.850289834E-02
 8.665936049E-02 6.465797571E-02 -2.618547512E-01
 -7.487858825E-02 4.629251892E-02 3.353189295E-01
 -2.055806210E-02 1.301403019E-02 6.309095363E-01
 5.514193783E-01 9.223020052E-02 -4.970640059E-01
 3.801241288E-01 -4.483886976E-01 -7.018577294E-02
 4.376435043E-01 1.236543907E-01 -4.727630495E-01
 3.294290017E-01 -6.823211461E-02 -4.136774732E-01
 1.434572469E+00 -8.163209877E-02 3.485151197E-02
 6.479844770E-01 7.060725219E-02 -4.379596393E-01
 7.711051291E-01 5.441962076E-02 -2.792839658E-01
 3.046419690E-01 -7.070371557E-02 -3.981001970E-01
 3.133974596E+00 6.339745962E-01 2.118665521E-03
 7.867602115E-01 8.745783286E-02 -2.406992264E-01
 3.728924440E-01 9.796787198E-02 -4.937710064E-01
 5.062835643E-01 8.076827192E-02 -5.313290164E-01
 3.133974596E+00 -6.339745962E-01 1.607153389E-02
 6.870081133E-01 -1.165493767E-01 3.455728255E-02
 6.560617787E-01 -8.650696642E-02 3.100058385E-03
 6.559018099E-01 -4.363723162E-02 1.450847738E-02
 6.162696443E-01 -8.659272496E-02 -4.712005102E-02
 5.830933286E-01 -1.135542200E-01 -8.967950797E-02
 6.414642805E-01 -4.229562395E-02 -4.184205447E-03