TITLE     = "Visualization of the solution"
VARIABLES = "x"
"y"
"Pressure_Coefficient"
ZONE T="Zone"
 STRANDID=0, SOLUTIONTIME=0
 Nodes=715, Elements=1215, ZONETYPE=FEQuadrilateral
 DATAPACKING=POINT
 DT=(DOUBLE DOUBLE DOUBLE )
 1.000301719E+00 5.201262538E-04 2.249575372E-01
 9.876962900E-01 2.852151170E-03 1.678194922E-01
 9.754719138E-01 5.116025917E-03 1.068612029E-01
 9.603791833E-01 7.851598784E-03 6.125315649E-02
 9.464372993E-01 1.041590422E-02 1.004546138E-02
 9.329125881E-01 1.285422780E-02 -1.978107424E-02
 9.215329289E-01 1.487646531E-02 -5.232875996E-02
 9.089309573E-01 1.705706492E-02 -7.777195593E-02
 8.971952200E-01 1.903803460E-02 -1.035423662E-01
 8.848676682E-01 2.107531950E-02 -1.300999978E-01
 8.722600341E-01 2.307311445E-02 -1.428339304E-01
 8.596713543E-01 2.495964058E-02 -1.569586077E-01
 8.471327424E-01 2.685306780E-02 -1.765856010E-01
 8.355058432E-01 2.854281850E-02 -1.864943548E-01
 8.235093355E-01 3.022299148E-02 -1.982940522E-01
 8.105130792E-01 3.201421350E-02 -2.065562631E-01
 7.972322702E-01 3.378020972E-02 -2.206152938E-01
 7.853209972E-01 3.537285328E-02 -2.302375670E-01
 7.729079127E-01 3.694877774E-02 -2.422475180E-01
 7.611258030E-01 3.847628459E-02 -2.572949508E-01
 7.481814623E-01 4.006594792E-02 -2.684932248E-01
 7.343550920E-01 4.175047576E-02 -2.858592977E-01
 7.235744596E-01 4.302250594E-02 -2.939238884E-01
 7.124670148E-01 4.428812489E-02 -3.040942899E-01
 7.008056641E-01 4.560705647E-02 -3.201218116E-01
 6.870771646E-01 4.710839689E-02 -3.342602978E-01
 6.740437150E-01 4.847034439E-02 -3.468267122E-01
 6.641496420E-01 4.947432131E-02 -3.578749437E-01
 6.526326537E-01 5.060680956E-02 -3.714129744E-01
 6.415095925E-01 5.166112632E-02 -3.830392007E-01
 6.296921372E-01 5.271965265E-02 -3.957151212E-01
 6.186122298E-01 5.367324501E-02 -4.078536590E-01
 6.077901125E-01 5.454139784E-02 -4.150977148E-01
 5.952185392E-01 5.549046770E-02 -4.250523852E-01
 5.833833218E-01 5.632818490E-02 -4.346258743E-01
 5.700100660E-01 5.720260739E-02 -4.448166022E-01
 5.573583841E-01 5.794903263E-02 -4.521639501E-01
 5.450365543E-01 5.859673768E-02 -4.588155222E-01
 5.341874361E-01 5.911369249E-02 -4.652177967E-01
 5.226031542E-01 5.960302427E-02 -4.689943080E-01
 5.097562671E-01 6.005989388E-02 -4.722118904E-01
 4.986198246E-01 6.038815528E-02 -4.729555955E-01
 4.854454100E-01 6.070743501E-02 -4.748628011E-01
 4.722650349E-01 6.093917415E-02 -4.718529616E-01
 4.576959908E-01 6.109745800E-02 -4.732919306E-01
 4.440686703E-01 6.118415296E-02 -4.723177709E-01
 4.309359789E-01 6.115633622E-02 -4.686177837E-01
 4.182133973E-01 6.107535958E-02 -4.678445546E-01
 4.058505297E-01 6.092046946E-02 -4.631811045E-01
 3.934272826E-01 6.069187820E-02 -4.590901232E-01
 3.812966645E-01 6.040941924E-02 -4.547845965E-01
 3.703980148E-01 6.011012569E-02 -4.524171861E-01
 3.574169576E-01 5.968863517E-02 -4.444199184E-01
 3.451827466E-01 5.920565873E-02 -4.395307172E-01
 3.326340914E-01 5.868503451E-02 -4.377733161E-01
 3.219652474E-01 5.815875903E-02 -4.294909076E-01
 3.095342517E-01 5.750976503E-02 -4.254720590E-01
 2.964619398E-01 5.675493553E-02 -4.180951384E-01
 2.825199068E-01 5.587054789E-02 -4.107057930E-01
 2.697860897E-01 5.499302596E-02 -4.053330751E-01
 2.576112449E-01 5.409714952E-02 -3.998842148E-01
 2.450583577E-01 5.310134962E-02 -3.923938214E-01
 2.321506292E-01 5.200317875E-02 -3.859619929E-01
 2.197584361E-01 5.088159069E-02 -3.764052047E-01
 2.078636438E-01 4.973241687E-02 -3.700212537E-01
 1.963654160E-01 4.856960848E-02 -3.608452856E-01
 1.836424172E-01 4.719312862E-02 -3.534502671E-01
 1.716463864E-01 4.583320394E-02 -3.453443800E-01
 1.598664075E-01 4.440350831E-02 -3.356614760E-01
 1.478524506E-01 4.287708551E-02 -3.305245926E-01
 1.369614899E-01 4.141602665E-02 -3.199714787E-01
 1.254847199E-01 3.978670016E-02 -3.120528532E-01
 1.138650328E-01 3.804921359E-02 -3.062170792E-01
 1.032033414E-01 3.634648025E-02 -2.982868480E-01
 9.337756038E-02 3.468673676E-02 -2.869389324E-01
 8.226270229E-02 3.269098699E-02 -2.729785374E-01
 7.032978535E-02 3.038389608E-02 -2.615096551E-01
 6.054083258E-02 2.833049744E-02 -2.484969651E-01
 5.076276883E-02 2.610907331E-02 -2.333858998E-01
 4.194217920E-02 2.391621470E-02 -2.166510504E-01
 3.450148180E-02 2.187654190E-02 -2.000957437E-01
 2.802154422E-02 1.993221603E-02 -2.064392743E-01
 2.253456041E-02 1.810337603E-02 -1.596776018E-01
 1.857766695E-02 1.665075310E-02 -1.294804849E-01
 1.484034583E-02 1.513652597E-02 -1.193834800E-01
 1.216117200E-02 1.394731272E-02 -7.959910464E-02
 9.787548333E-03 1.278463937E-02 -8.069816904E-02
 8.052535355E-03 1.185941510E-02 -1.041385167E-02
 6.488858256E-03 1.094774250E-02 -1.260221425E-02
 5.068984814E-03 1.004499849E-02 7.073824430E-02
 3.216201207E-03 8.705519140E-03 7.687562425E-02
 1.604663674E-03 7.313811220E-03 2.148450523E-01
 1.976369676E-04 5.795907695E-03 3.281238368E-01
 -1.138047548E-03 3.744595451E-03 1.150066674E+00
 -1.736296108E-03 2.161068609E-03 8.361372074E-01
 -1.950229285E-03 9.006278706E-04 1.248469651E+00
 -1.924482174E-03 -5.795226316E-04 1.136925062E+00
 -1.548242057E-03 -2.218818292E-03 1.172775855E+00
 -6.904860493E-04 -4.102200270E-03 9.953100402E-01
 7.119884249E-04 -6.097910926E-03 8.198164169E-01
 2.743005054E-03 -8.214079775E-03 5.141778760E-01
 4.533679690E-03 -9.722074494E-03 4.233234704E-01
 6.601137575E-03 -1.122163236E-02 3.404103483E-01
 8.162565529E-03 -1.223470178E-02 2.121845696E-01
 1.015206985E-02 -1.340767276E-02 2.000226942E-01
 1.249893196E-02 -1.467169169E-02 1.242958751E-01
 1.567811891E-02 -1.621846110E-02 8.624982572E-02
 1.866737753E-02 -1.753117144E-02 3.694518646E-02
 2.256064676E-02 -1.909801364E-02 -2.019632647E-02
 2.799115703E-02 -2.105945162E-02 -5.807856881E-02
 3.379669785E-02 -2.293881774E-02 -9.792638547E-02
 4.120249301E-02 -2.508993819E-02 -1.157144735E-01
 4.877489805E-02 -2.707559988E-02 -1.505455285E-01
 5.760533363E-02 -2.917646989E-02 -1.693968517E-01
 6.630337238E-02 -3.107147478E-02 -1.812217944E-01
 7.654927671E-02 -3.312569112E-02 -1.942600511E-01
 8.641607314E-02 -3.495760635E-02 -2.064359071E-01
 9.684448689E-02 -3.675536066E-02 -2.177757426E-01
 1.076015532E-01 -3.849431127E-02 -2.276063815E-01
 1.192272156E-01 -4.025291279E-02 -2.390495867E-01
 1.306294054E-01 -4.186517373E-02 -2.495218126E-01
 1.411229819E-01 -4.326851293E-02 -2.615907017E-01
 1.520952582E-01 -4.464980215E-02 -2.711746379E-01
 1.638077199E-01 -4.604069889E-02 -2.796396251E-01
 1.754689366E-01 -4.735097662E-02 -2.911789632E-01
 1.874368638E-01 -4.861206934E-02 -3.024674274E-01
 1.979633719E-01 -4.965170100E-02 -3.123385828E-01
 2.091319114E-01 -5.069429800E-02 -3.219988994E-01
 2.214296907E-01 -5.175599828E-02 -3.323661824E-01
 2.342239320E-01 -5.278263614E-02 -3.430218103E-01
 2.466345280E-01 -5.368703231E-02 -3.548183867E-01
 2.592961490E-01 -5.451678857E-02 -3.644857992E-01
 2.704901099E-01 -5.518712103E-02 -3.761882068E-01
 2.833879292E-01 -5.585316941E-02 -3.849667669E-01
 2.960752547E-01 -5.641608685E-02 -3.958632377E-01
 3.091527522E-01 -5.687957257E-02 -4.043732364E-01
 3.209391534E-01 -5.720674619E-02 -4.110764997E-01
 3.336030841E-01 -5.746610835E-02 -4.180687926E-01
 3.444656134E-01 -5.757948756E-02 -4.276383640E-01
 3.558913171E-01 -5.760177225E-02 -4.268387168E-01
 3.668498695E-01 -5.753074214E-02 -4.292609215E-01
 3.774466515E-01 -5.736513436E-02 -4.289608895E-01
 3.889952004E-01 -5.708502978E-02 -4.257410208E-01
 4.017677307E-01 -5.663727224E-02 -4.192626050E-01
 4.142317772E-01 -5.608797446E-02 -4.137417656E-01
 4.272409379E-01 -5.534356087E-02 -4.001114298E-01
 4.399431944E-01 -5.450423062E-02 -3.843824073E-01
 4.526897669E-01 -5.352363363E-02 -3.659993402E-01
 4.650743604E-01 -5.245517939E-02 -3.458166134E-01
 4.773301482E-01 -5.127071217E-02 -3.220182202E-01
 4.890449941E-01 -5.006432161E-02 -2.966888643E-01
 5.014131069E-01 -4.868326336E-02 -2.696610264E-01
 5.151734352E-01 -4.706831649E-02 -2.409029535E-01
 5.289564133E-01 -4.535275325E-02 -2.130482178E-01
 5.423191190E-01 -4.362514243E-02 -1.836832767E-01
 5.557663441E-01 -4.183865711E-02 -1.570076114E-01
 5.684978366E-01 -4.007844627E-02 -1.306037812E-01
 5.814677477E-01 -3.825921193E-02 -1.025994984E-01
 5.936089754E-01 -3.656608239E-02 -8.194926989E-02
 6.056041121E-01 -3.483904153E-02 -6.017861757E-02
 6.192407012E-01 -3.288819641E-02 -3.514562464E-02
 6.336351633E-01 -3.083070740E-02 -1.307927706E-02
 6.477316618E-01 -2.883659117E-02 4.568658966E-03
 6.609366536E-01 -2.692536823E-02 2.509102901E-02
 6.743634939E-01 -2.500686608E-02 4.977720346E-02
 6.869021058E-01 -2.325914055E-02 6.592866858E-02
 6.993771791E-01 -2.153073251E-02 8.021678526E-02
 7.139214277E-01 -1.951774769E-02 9.880539057E-02
 7.266401052E-01 -1.777033322E-02 1.209372032E-01
 7.385419011E-01 -1.622516289E-02 1.323818757E-01
 7.505567074E-01 -1.462396514E-02 1.455099236E-01
 7.629431486E-01 -1.303654537E-02 1.660455727E-01
 7.756366134E-01 -1.145514380E-02 1.790534837E-01
 7.873514891E-01 -1.003633346E-02 1.936677063E-01
 8.000265956E-01 -8.553346619E-03 2.089519592E-01
 8.112531900E-01 -7.308310363E-03 2.218865997E-01
 8.226557374E-01 -6.064719986E-03 2.356466988E-01
 8.353220820E-01 -4.795468412E-03 2.499178187E-01
 8.478356600E-01 -3.621720476E-03 2.607170999E-01
 8.598779440E-01 -2.569772303E-03 2.739788760E-01
 8.717825413E-01 -1.628285740E-03 2.850644569E-01
 8.838259578E-01 -7.870974368E-04 2.953106164E-01
 8.970865011E-01 -1.802633233E-05 3.038490999E-01
 9.071645737E-01 4.629730247E-04 3.105512917E-01
 9.173758030E-01 8.468526066E-04 3.115243458E-01
 9.263901114E-01 1.112872269E-03 3.142372530E-01
 9.350914955E-01 1.291921944E-03 3.151504023E-01
 9.472857714E-01 1.426240196E-03 3.103299307E-01
 9.607168436E-01 1.424940769E-03 3.150649002E-01
 9.763461947E-01 1.237703487E-03 3.010209549E-01
 9.891208410E-01 9.175946470E-04 3.185106482E-01
 -5.000000000E-01 -1.000000000E+00 2.525674803E-02
 3.500000000E+00 -1.000000000E+00 1.441948630E-02
 3.500000000E+00 1.000000000E+00 1.206312476E-03
 -5.000000000E-01 1.000000000E+00 -3.573722538E-03
 -5.000000000E-01 5.000000000E-01 2.867139565E-02
 -5.000000000E-01 2.752797990E-12 8.487216880E-02
 -5.000000000E-01 -5.000000000E-01 5.387619366E-02
 -9.421907698E-13 -1.000000000E+00 1.256050736E-02
 5.000000000E-01 -1.000000000E+00 -4.586331360E-03
 1.000000000E+00 -1.000000000E+00 9.415143961E-03
 1.500000000E+00 -1.000000000E+00 2.922047386E-02
 2.000000000E+00 -1.000000000E+00 2.593427665E-02
 2.500000000E+00 -1.000000000E+00 1.861867930E-02
 3.000000000E+00 -1.000000000E+00 1.505868426E-02
 3.500000000E+00 -5.000000000E-01 1.714627441E-02
 3.500000000E+00 -2.752797990E-12 1.652273203E-02
 3.500000000E+00 5.000000000E-01 7.440801589E-03
 3.000000000E+00 1.000000000E+00 -1.392413692E-03
 2.500000000E+00 1.000000000E+00 -7.205864599E-03
 2.000000000E+00 1.000000000E+00 -2.074703835E-02
 1.500000000E+00 1.000000000E+00 -5.314256875E-02
 1.000000000E+00 1.000000000E+00 -9.850900322E-02
 5.000000000E-01 1.000000000E+00 -8.856690586E-02
 1.733724275E-12 1.000000000E+00 -2.657034566E-02
 6.834626671E-01 -3.615440348E-02 5.559018747E-02
 7.818581428E-01 -2.227395212E-02 1.791802233E-01
 9.032686880E-01 -9.729796427E-03 2.923458596E-01
 6.951107221E-01 5.705006542E-02 -3.174672225E-01
 6.032674546E-01 6.617053603E-02 -4.068542637E-01
 2.753783624E-01 -6.713909934E-02 -3.609989743E-01
 2.750505976E-01 7.032118081E-02 -3.940623124E-01
 7.926559035E-01 4.489199651E-02 -2.197075853E-01
 9.037720490E-01 3.249505761E-02 -8.654050171E-02
 5.624679085E-01 -5.595006351E-02 -1.387958681E-01
 3.943426701E-01 -6.585299510E-02 -4.046202028E-01
 4.245055497E-01 7.197847774E-02 -4.541355002E-01
 1.835503949E+00 -5.854649926E-01 2.505827660E-02
 1.777994621E+00 6.246316336E-01 -1.680645399E-02
 3.031173345E+00 2.156850503E-01 9.429540591E-03
 7.612073437E-01 -6.490159887E-01 9.348466345E-03
 4.737732508E-01 -6.522957561E-02 -3.070422839E-01
 7.500000000E-01 5.669872981E-01 -1.326785321E-01
 5.055002372E-01 6.912367693E-02 -4.591873196E-01
 2.734853403E+00 -5.326861694E-01 1.481910007E-02
 1.217213835E+00 7.004621685E-01 -5.899553785E-02
 1.023814517E+00 3.432842435E-01 -5.461338516E-02
 1.244459797E+00 -6.113143133E-01 3.846075224E-02
 1.512693382E+00 -2.524603673E-01 3.426387477E-02
 2.816671136E-01 6.307831145E-01 -1.083218294E-01
 1.028787022E-01 4.473057350E-02 -2.798622147E-01
 1.621103490E-01 5.843194312E-02 -3.206458907E-01
 3.532934067E-01 7.088107192E-02 -4.311451378E-01
 2.203213657E-01 -5.812838825E-01 -2.440538619E-02
 7.777918135E-02 -4.458407179E-02 -1.628936312E-01
 1.343017905E-01 -5.469381669E-02 -2.330742549E-01
 1.913532166E-01 -6.095162289E-02 -2.898250501E-01
 2.248799921E+00 -5.862958766E-01 1.780426109E-02
 2.036470203E+00 -2.170435675E-01 1.422559982E-02
 2.422129391E+00 -1.870246697E-01 1.106818135E-02
 2.184638678E+00 1.582683196E-01 5.243819512E-03
 1.827324213E+00 7.017930524E-02 9.638187646E-03
 -2.527895544E-01 2.500000000E-01 7.068096720E-02
 -9.886191551E-02 6.181083101E-01 -2.238858195E-02
 2.947391159E-02 3.286052814E-01 -6.131190067E-02
 4.235103166E-02 3.293703866E-02 -1.713685516E-01
 -2.711507581E-01 -2.547586235E-01 9.706030934E-02
 -1.603656756E-01 -5.719905646E-01 2.770109503E-02
 2.225410751E+00 5.655149455E-01 -5.023807710E-03
 2.743732133E+00 5.979048386E-01 2.387179357E-03
 -2.509725349E-01 -9.762810758E-04 1.390333224E-01
 -1.423219407E-01 -1.292021675E-01 1.532170577E-01
 5.872568577E-02 -3.964354897E-01 -6.031532133E-03
 2.980233709E-01 -3.007383770E-01 -1.324639884E-01
 3.377665974E-01 -6.613489420E-02 -4.043753769E-01
 -1.466744054E-01 9.300143634E-02 1.515445819E-01
 -1.214949024E-01 -4.690923704E-03 2.101677842E-01
 -6.491794155E-02 -6.465370182E-02 2.686688676E-01
 3.646393702E-02 -3.058973192E-02 -5.611584967E-02
 1.748007933E-02 -2.184883133E-02 1.070863045E-01
 4.858464604E-02 -3.365549918E-02 -1.195088658E-01
 -3.675356976E-02 -1.658807808E-01 9.958233434E-02
 4.372146490E-02 -4.848117920E-02 -4.582880972E-02
 -6.260022944E-02 6.101621737E-02 2.508362443E-01
 1.866590251E-02 2.124184840E-02 -7.537526627E-02
 -5.672018492E-02 1.784116123E-01 4.803232140E-02
 1.686604559E-03 9.292852775E-02 7.048837768E-02
 4.156076816E-02 1.791052685E-01 -5.948382084E-02
 7.231648595E-02 4.185515310E-02 -2.313526166E-01
 -1.432470403E-02 4.985434222E-02 2.413808554E-01
 -5.730400097E-02 1.080720751E-02 3.905022153E-01
 6.740245153E-02 1.094655202E-01 -1.257148427E-01
 1.096359363E-01 1.518318805E-01 -1.673366685E-01
 2.238815237E-01 6.641478621E-02 -3.614170696E-01
 1.989292327E-01 6.133839501E-02 -3.488438545E-01
 -3.609991681E-02 -2.890704077E-02 4.615420117E-01
 1.121382662E-01 9.640265450E-02 -2.122868121E-01
 1.315300912E-01 5.357118164E-02 -2.980134936E-01
 1.562583357E-01 1.188146494E-01 -2.453484272E-01
 1.837460972E-01 1.802220372E-01 -2.247924206E-01
 1.092152603E-01 2.249760755E-01 -1.249029106E-01
 1.724182317E-01 2.917222502E-01 -1.546139097E-01
 2.785685028E-01 2.239891359E-01 -2.585777515E-01
 2.475812002E-01 1.456930282E-01 -3.093118251E-01
 3.315288650E-01 1.646325422E-01 -3.314460078E-01
 3.861244615E-01 7.095565771E-02 -4.442067184E-01
 3.642016859E-01 2.381675596E-01 -2.814444691E-01
 3.171362272E-01 7.308959566E-02 -4.118990169E-01
 4.264146384E-01 1.720157291E-01 -3.445071955E-01
 4.651066310E-01 7.262670520E-02 -4.578868048E-01
 4.492352092E-01 2.403254379E-01 -2.985020763E-01
 5.161862821E-01 1.840466890E-01 -3.385374819E-01
 5.630156199E-01 7.088526636E-02 -4.327240676E-01
 5.398905558E-01 7.092514637E-02 -4.455030478E-01
 5.493422900E-01 2.711973617E-01 -2.702206635E-01
 6.145168503E-01 1.959808482E-01 -2.905422128E-01
 6.465816496E-01 6.400369085E-02 -3.667753239E-01
 6.700639789E-01 5.768448313E-02 -3.444550410E-01
 6.465159895E-01 2.759028596E-01 -2.334313730E-01
 7.198396921E-01 2.037598816E-01 -2.293135725E-01
 7.416730049E-01 5.281703510E-02 -2.711874136E-01
 7.198270690E-01 5.523832137E-02 -2.931374615E-01
 7.554352175E-01 3.112253709E-01 -1.721731391E-01
 6.718751119E-01 1.391709706E-01 -2.932546528E-01
 7.538256977E-01 1.303338497E-01 -2.252978296E-01
 8.562979520E-01 3.755326950E-02 -1.552825357E-01
 8.295557792E-01 3.895060384E-02 -1.871187971E-01
 8.607795139E-01 2.123190295E-01 -1.219881617E-01
 6.153957034E-01 1.313120370E-01 -3.364492256E-01
 2.895780952E-01 3.543075229E-01 -1.963937192E-01
 5.796468496E-01 3.928242262E-01 -2.016034305E-01
 7.076914631E-01 1.055741477E-01 -2.791512673E-01
 4.720501615E-01 1.345169633E-01 -3.914097935E-01
 5.281871125E-01 1.173549789E-01 -3.953226005E-01
 3.757009986E-01 1.248334707E-01 -3.822536228E-01
 2.945226471E-01 1.181624362E-01 -3.526597134E-01
 1.452943983E-01 4.458825876E-01 -8.723641415E-02
 2.159807544E-01 1.093044892E-01 -3.062788563E-01
 6.484316992E-01 1.046970254E-01 -3.360572976E-01
 6.246053457E-01 6.477853176E-02 -3.900576463E-01
 6.758694022E-01 9.468372803E-02 -3.130424502E-01
 1.655524047E-02 5.993752006E-02 4.989359801E-02
 3.152434597E-02 2.895852197E-02 -1.471226970E-01
 4.925868529E-02 6.756478634E-02 -9.189386915E-02
 3.965842210E-03 -1.044225897E-01 1.382953460E-01
 5.183565811E-02 -1.645698597E-01 -9.481877278E-03
 -4.971303248E-03 -5.473700722E-02 2.836934648E-01
 8.068288795E-03 -1.481527759E-02 2.639996045E-01
 3.109363564E+00 -2.612701465E-01 1.477095999E-02
 5.673955106E-02 -1.027027448E-01 -2.815054954E-02
 1.140511394E-01 -1.384986406E-01 -1.145913045E-01
 1.060768457E-01 -9.301781853E-02 -1.389711193E-01
 9.997214744E-02 -4.860717526E-02 -1.985917219E-01
 1.523145797E-01 -9.815355341E-02 -2.030941461E-01
 2.258661976E-01 -6.193717000E-02 -3.219195133E-01
 1.739687109E-01 -1.588806924E-01 -1.664502842E-01
 1.271587007E-01 -2.075008935E-01 -8.996196041E-02
 1.557039176E-01 -5.649920058E-02 -2.576300503E-01
 2.093418783E-01 -1.092568809E-01 -2.497628407E-01
 2.345225622E-01 -1.704534771E-01 -2.035883696E-01
 2.693864311E-01 -1.165905739E-01 -2.874909152E-01
 2.974372669E-01 -1.750304109E-01 -2.280391445E-01
 3.267382692E-01 -1.198758340E-01 -3.080834838E-01
 3.572760630E-01 -1.782625297E-01 -2.394544000E-01
 3.855934199E-01 -1.248841547E-01 -2.978407634E-01
 4.112750504E-01 -1.684652757E-01 -2.328643087E-01
 4.343189475E-01 -6.592437251E-02 -3.669956552E-01
 4.402880011E-01 -1.257135782E-01 -2.675733023E-01
 4.810438607E-01 -1.733047782E-01 -1.879773913E-01
 5.235265788E-01 -5.795358947E-02 -2.145094951E-01
 5.085095235E-01 -1.171067925E-01 -1.915753368E-01
 4.116302466E-01 -2.439841959E-01 -1.604601559E-01
 3.853708368E-01 -4.104867338E-01 -8.262341666E-02
 5.090639776E-01 -3.063172503E-01 -8.757959616E-02
 5.436015912E-01 -1.663992249E-01 -1.178680360E-01
 6.314016500E-01 -5.041455170E-02 -2.173725253E-02
 6.002437441E-01 -4.925530798E-02 -7.104316477E-02
 5.637622699E-01 -1.109679617E-01 -1.175989528E-01
 6.041616616E-01 -1.593345887E-01 -5.671540072E-02
 6.221539242E-01 -1.046467912E-01 -4.065449022E-02
 6.612835392E-01 -1.357781711E-01 4.845470379E-03
 7.364041081E-01 -3.073064747E-02 1.220162898E-01
 7.593775941E-01 -2.596774236E-02 1.515935833E-01
 6.582305319E-01 -2.084039975E-01 -9.032584461E-03
 7.371705998E-01 -2.133930078E-01 5.136918256E-02
 8.428742515E-01 -1.910303695E-02 2.417456307E-01
 8.187245020E-01 -2.030486164E-02 2.191167908E-01
 8.677268506E-01 -1.096550840E-02 2.706068333E-01
 7.433404857E-01 -1.117470095E-01 9.133661656E-02
 7.922057238E-01 -1.557576759E-01 1.049706995E-01
 9.673531279E-01 -9.232297948E-03 2.987942165E-01
 9.406791355E-01 -8.984237748E-03 2.995521243E-01
 8.006373429E-01 -2.726956831E-01 6.674556055E-02
 8.851584416E-01 -2.009539852E-01 1.185093045E-01
 9.089164826E-01 -1.139049803E-01 1.802019328E-01
 9.749039236E-01 -1.598123927E-01 1.472092872E-01
 9.738349058E-01 -2.612176654E-01 9.818954295E-02
 1.089996513E+00 -1.948455342E-01 1.000506146E-01
 8.138513749E-01 -9.012089702E-02 1.572231413E-01
 1.068875549E+00 -7.737772937E-02 1.290182007E-01
 1.163374980E+00 -1.166567159E-01 8.674303812E-02
 1.127542429E+00 -9.508049797E-03 8.487360437E-02
 1.247718632E+00 -2.065288816E-02 5.217458787E-02
 1.212226528E+00 1.079369773E-01 3.915579455E-02
 1.231714697E+00 -2.409028249E-01 5.954935491E-02
 9.598929955E-01 -8.950057425E-02 1.989871805E-01
 6.710941165E-01 -9.060238247E-02 2.048715064E-02
 6.567048351E-01 -4.248284493E-02 1.861595780E-02
 1.380472608E+00 7.042481896E-02 2.298363374E-02
 9.145209018E-01 -6.208658328E-02 2.331548287E-01
 7.674422521E-01 -7.179088107E-02 1.309379753E-01
 1.316290434E+00 2.679589437E-01 -1.200051246E-03
 1.079000867E+00 9.236011246E-02 5.713772279E-02
 9.536337449E-01 2.402351064E-02 2.867325929E-02
 2.987758551E-01 -9.769818064E-02 -3.318726661E-01
 3.147626121E-01 -6.725048230E-02 -3.887780250E-01
 4.755493662E-01 -6.033928176E-01 -3.010435906E-02
 9.524176270E-01 -4.666051592E-02 2.536114112E-01
 9.987176727E-01 -5.660454436E-02 2.064766795E-01
 3.565397134E-01 -1.005161894E-01 -3.459167614E-01
 3.732504554E-01 -6.864380767E-02 -4.058443209E-01
 1.130645735E+00 2.365929647E-01 -2.383698676E-03
 9.876894385E-01 1.934408069E-01 -3.694748157E-02
 9.154214931E-01 1.344720606E-01 -7.791510406E-02
 9.883084508E-01 1.041297915E-01 8.192657306E-03
 8.629882076E-01 -6.962973870E-02 2.046870206E-01
 8.855274184E-01 -4.346127143E-02 2.426533960E-01
 4.141570976E-01 -1.002097862E-01 -3.296655221E-01
 9.334468474E-01 8.058007000E-02 -3.868369920E-02
 8.814884287E-01 7.963601334E-02 -1.111395160E-01
 8.796826471E-01 3.494281020E-02 -1.272656049E-01
 8.439313145E-01 1.336446667E-01 -1.444536146E-01
 8.289873626E-01 8.614377387E-02 -1.673843385E-01
 5.884350312E-01 -8.198419790E-02 -9.079358792E-02
 9.272821010E-01 -3.500668902E-02 2.595472148E-01
 9.219577462E-01 -8.296893009E-03 2.987648853E-01
 8.135950253E-02 7.959373156E-02 -1.948346216E-01
 4.704444911E-01 -1.031954614E-01 -2.637174143E-01
 4.972746748E-01 -6.342628354E-02 -2.637391980E-01
 8.922137759E-01 -8.833588708E-03 2.896655226E-01
 7.565493050E-01 5.211278534E-02 -2.545804426E-01
 7.485204333E-01 6.927958878E-02 -2.557881814E-01
 7.706292949E-01 6.557993890E-02 -2.350571642E-01
 4.958946872E-01 1.028767513E-01 -4.194819828E-01
 9.537465971E-01 -1.007433909E-02 2.963703116E-01
 9.443280821E-01 -2.373520988E-02 2.768513422E-01
 8.947565820E-01 -2.264704467E-02 2.716469061E-01
 2.423104977E-01 -8.527229392E-02 -3.039032876E-01
 2.526121519E-01 -6.680262032E-02 -3.401224525E-01
 8.543772046E-01 -3.876437158E-02 2.295405693E-01
 9.134109188E-01 -1.929756473E-02 2.841095615E-01
 1.062839006E+00 -2.004054364E-02 1.261251222E-01
 1.049753862E+00 3.633617406E-02 1.074743475E-01
 1.000476265E+00 5.341557435E-02 8.782961757E-02
 9.868746999E-01 1.509662309E-02 1.666957186E-01
 -2.769682876E-02 1.939718081E-02 3.992971586E-01
 -2.720167928E-02 -5.795467756E-03 5.848395001E-01
 -1.341328589E-02 -2.643333286E-02 5.365757678E-01
 -6.748930349E-03 3.007283451E-02 3.671375135E-01
 1.016954101E-02 1.716500915E-02 2.032171314E-02
 2.633856204E-03 1.272425136E-02 1.447947355E-01
 5.165428750E-01 7.004341277E-02 -4.560918976E-01
 3.259123240E-01 -6.933113366E-02 -3.924466067E-01
 3.390706815E-01 -8.454917303E-02 -3.686740852E-01
 5.836499060E-02 4.889727195E-02 -1.830207579E-01
 8.751754680E-02 4.573340550E-02 -2.510149763E-01
 9.347443331E-03 4.161117418E-02 9.119398430E-02
 6.145864704E-01 9.672220913E-02 -3.685132572E-01
 5.770548211E-01 1.071410945E-01 -3.847420291E-01
 5.702681539E-01 1.471671295E-01 -3.533155621E-01
 8.923446637E-01 -3.207055362E-01 7.851967560E-02
 1.026947356E+00 -4.143612453E-01 6.243808714E-02
 6.433141951E-01 -7.284587469E-02 -7.758015090E-03
 6.119533901E-01 -6.630736692E-02 -4.996617340E-02
 1.027615858E+00 -2.887685717E-02 2.056195234E-01
 5.343311219E-01 -9.278282223E-02 -1.764997063E-01
 5.580040332E-01 -7.750050900E-02 -1.398470926E-01
 5.128593339E-01 -7.819251112E-02 -2.177030686E-01
 5.471121291E-01 -6.333807646E-02 -1.655926027E-01
 2.876841299E-01 -6.566118556E-02 -3.720852955E-01
 2.828253949E-01 -8.216086718E-02 -3.434989241E-01
 4.773131614E-01 7.096228756E-02 -4.621268150E-01
 4.714665094E-01 8.969093395E-02 -4.335085807E-01
 4.361443717E-01 1.156935273E-01 -4.061816817E-01
 4.063348954E-01 9.964407421E-02 -4.192881646E-01
 4.460390895E-01 8.713050549E-02 -4.398830901E-01
 5.792713397E-01 6.975929103E-02 -4.233923780E-01
 4.920771182E-01 7.686128189E-02 -4.545773027E-01
 5.917815927E-01 6.564138204E-02 -4.168563432E-01
 1.472714051E-01 8.726384590E-02 -2.714939937E-01
 2.634919635E-01 -7.855225670E-02 -3.339564358E-01
 4.084754598E-01 -6.715680423E-02 -3.920441812E-01
 2.642537473E-01 -6.443957719E-02 -3.552558067E-01
 3.517819487E-02 4.575111037E-02 -1.021102838E-01
 7.797088676E-01 4.853715237E-02 -2.321635708E-01
 3.010611553E-01 -7.156098231E-02 -3.714516970E-01
 5.944882437E-01 8.113621375E-02 -3.991274324E-01
 5.112749876E-01 8.674159320E-02 -4.375938882E-01
 5.294478957E-01 8.418945750E-02 -4.349769041E-01
 5.515339996E-01 8.659551746E-02 -4.212214347E-01
 2.368945665E-01 -6.652511220E-02 -3.262586463E-01
 5.841504313E-01 -6.029016702E-02 -9.995242539E-02
 7.157041567E-01 -2.849255601E-01 1.972601663E-02
 4.199698881E-01 -6.542609316E-02 -3.853170903E-01
 3.499875769E-01 -6.907440455E-02 -4.050044244E-01
 2.143301050E-01 -6.223715400E-02 -3.104755772E-01
 2.203704584E-01 -7.801046994E-02 -2.973049156E-01
 2.029406445E-01 -7.416419209E-02 -2.855982332E-01
 1.795746814E-01 -7.499230822E-02 -2.600093533E-01
 5.097226832E-01 -5.907271569E-02 -2.425404379E-01
 7.590294068E-01 8.880307951E-02 -2.395154057E-01
 7.920395242E-01 8.994530575E-02 -2.047646630E-01
 8.577323216E-01 -1.680974141E-02 2.561158065E-01
 8.294072614E-01 -3.183250577E-02 2.169102314E-01
 8.082450445E-01 -3.438123560E-02 1.961461983E-01
 8.796158117E-01 -1.162104198E-02 2.793199058E-01
 9.125738984E-01 -7.423800717E-03 2.983567037E-01
 6.810962484E-01 5.949999720E-02 -3.324909278E-01
 6.442640196E-01 -4.184119856E-02 -1.995533161E-04
 6.143522492E-01 7.579332508E-02 -3.875540927E-01
 6.344269040E-01 7.847129029E-02 -3.672350409E-01
 7.883993798E-01 6.051321029E-02 -2.179346877E-01
 8.076440052E-01 6.029499840E-02 -1.991782383E-01
 8.299292380E-01 -1.588108351E-02 2.329478472E-01
 7.681842367E-01 4.833098779E-02 -2.437318826E-01
 4.581398970E-01 -6.639993472E-02 -3.357314409E-01
 1.789747257E-01 8.892622888E-02 -3.004366919E-01
 1.456173802E-01 6.478013993E-02 -2.982325956E-01
 1.813764927E-01 6.530854870E-02 -3.289502393E-01
 4.366917597E-01 7.462835229E-02 -4.528081872E-01
 4.499204282E-01 7.133343479E-02 -4.577850355E-01
 9.301420907E-01 -1.744064343E-02 2.894743142E-01
 3.846114841E-01 -6.611188306E-02 -4.084321194E-01
 3.884561650E-01 -8.349367166E-02 -3.694255344E-01
 4.454043928E-01 -6.435326748E-02 -3.563141774E-01
 4.426384907E-01 -8.383197771E-02 -3.217561897E-01
 8.184878113E-01 4.183213936E-02 -1.964593342E-01
 8.280529417E-01 5.530504213E-02 -1.795396529E-01
 2.031438499E-01 -5.953979360E-02 -3.037895035E-01
 4.129986394E-01 7.644005518E-02 -4.470158432E-01
 3.984675331E-01 7.635572944E-02 -4.423936351E-01
 6.137254784E-01 6.299140714E-02 -4.011567406E-01
 8.412626990E-01 3.998447351E-02 -1.736124372E-01
 8.509409678E-01 5.785985730E-02 -1.563608370E-01
 8.712052804E-01 4.934825874E-02 -1.332730663E-01
 8.907405526E-01 4.624253457E-02 -1.031805324E-01
 1.577033093E+00 2.605669310E-01 8.000911741E-04
 1.458603990E+00 5.327429041E-01 -2.387849096E-02
 1.429141982E-01 5.122437550E-02 -3.117506157E-01
 8.067269574E-01 -1.773297920E-02 2.088602345E-01
 7.958022924E-01 -2.123670156E-02 1.948712796E-01
 7.909131266E-01 -3.426558423E-02 1.787996818E-01
 7.737598352E-01 -3.864951012E-02 1.595480351E-01
 7.524945322E-01 -4.054456871E-02 1.365345107E-01
 7.324995001E-01 -5.289707116E-02 1.072169094E-01
 7.070815832E-01 -3.301036530E-02 8.534579331E-02
 7.958758358E-01 -5.479738824E-02 1.740000009E-01
 2.560544056E+00 2.056172201E-01 5.278538319E-03
 1.521313025E-01 5.289885536E-02 -3.181038371E-01
 1.569441729E+00 -4.071188056E-02 1.992336103E-02
 6.138288185E-01 -4.574846106E-02 -4.705753640E-02
 9.959876271E-01 -6.857635334E-01 3.506240444E-02
 5.514669261E-01 6.875034205E-02 -4.418752275E-01
 6.559803500E-01 7.917252419E-02 -3.449986476E-01
 1.692106548E-01 -5.881892509E-02 -2.689395366E-01
 1.605227615E-01 -7.105760603E-02 -2.425006458E-01
 1.449137765E-01 -6.694398485E-02 -2.310283591E-01
 1.273625234E-01 -7.171788438E-02 -2.032127082E-01
 9.139626974E-01 4.794781576E-02 -6.651905740E-02
 9.325423136E-01 2.615407686E-02 -2.542141812E-02
 9.423529682E-01 4.698424769E-02 -9.665561824E-04
 9.161481892E-01 2.770609609E-02 -5.897970858E-02
 2.851708643E-03 -3.420575904E-02 2.987810384E-01
 9.308958650E-01 -6.333222544E-03 3.025595317E-01
 7.305718428E-01 6.506657495E-02 -2.768807641E-01
 7.113833378E-01 7.123903400E-02 -2.925694540E-01
 3.614471208E-01 -7.975824418E-02 -3.789388020E-01
 7.079187616E-01 5.468452043E-02 -3.059297668E-01
 5.288038015E-01 6.902920585E-02 -4.545544524E-01
 1.350186006E+00 -1.334207433E-01 4.575639748E-02
 7.300002937E-01 5.157898263E-02 -2.840131614E-01
 6.235579920E-02 -3.953292952E-02 -1.408668570E-01
 1.016243899E+00 -1.115807750E-01 1.665062182E-01
 5.871921287E-01 -4.685663055E-02 -9.312660404E-02
 5.767552105E-01 -4.828690386E-02 -1.127756574E-01
 -1.111717078E-02 1.469305790E-02 5.705777344E-01
 -7.714179523E-04 8.209854550E-03 4.002246830E-01
 -1.631947966E-02 2.858184906E-03 7.607793666E-01
 -6.215209687E-03 2.005304090E-03 9.787501642E-01
 -9.252844800E-03 -9.190732902E-03 7.862536628E-01
 1.181576878E-03 -1.071408498E-02 6.490506979E-01
 -5.395876574E-04 -2.091681912E-02 4.701075158E-01
 -2.653165711E-03 -4.077383947E-03 1.078882142E+00
 -3.131788479E-03 1.397755481E-04 1.326444747E+00
 7.712425099E-02 -7.603684497E-02 -9.517546187E-02
 8.734072660E-01 -2.455603243E-02 2.595256177E-01
 8.256248862E-01 -5.506060337E-02 1.938891848E-01
 9.794453470E-01 -3.351510389E-02 2.381648429E-01
 9.995942128E-01 -2.571818285E-02 3.023137286E-01
 9.849592012E-01 -1.630297746E-02 3.065155025E-01
 1.262365540E-01 6.954887073E-02 -2.677282894E-01
 4.879140538E-01 -8.131849906E-02 -2.598580538E-01