TITLE     = "Visualization of the solution"
VARIABLES = "x"
"y"
"Pressure_Coefficient"
ZONE T="Zone"
 STRANDID=0, SOLUTIONTIME=0
 Nodes=703, Elements=1191, ZONETYPE=FEQuadrilateral
 DATAPACKING=POINT
 DT=(DOUBLE DOUBLE DOUBLE )
 1.000219703E+00 5.110494094E-04 2.463239280E-01
 9.887089133E-01 2.891906770E-03 2.661613441E-01
 9.760340452E-01 5.485474132E-03 1.605518379E-01
 9.590748549E-01 8.967553265E-03 1.028888611E-01
 9.440004230E-01 1.208409760E-02 3.812454899E-02
 9.288074970E-01 1.517379843E-02 1.320859406E-02
 9.169965386E-01 1.756059565E-02 -2.191187924E-02
 9.055696726E-01 1.988000795E-02 -5.187795643E-02
 8.940323591E-01 2.219297178E-02 -8.440230696E-02
 8.824667335E-01 2.448290773E-02 -1.180817237E-01
 8.703469634E-01 2.680994943E-02 -1.371249533E-01
 8.573911786E-01 2.917148359E-02 -1.589014398E-01
 8.449197412E-01 3.146095574E-02 -1.814846764E-01
 8.340849876E-01 3.337134048E-02 -1.981403170E-01
 8.221951723E-01 3.543533385E-02 -2.170688378E-01
 8.095557094E-01 3.757348657E-02 -2.335919871E-01
 7.968194485E-01 3.967241570E-02 -2.513442388E-01
 7.839557528E-01 4.174665734E-02 -2.691273799E-01
 7.716122866E-01 4.369168729E-02 -2.828466895E-01
 7.598553896E-01 4.548938945E-02 -3.003652853E-01
 7.467603087E-01 4.748961702E-02 -3.214913687E-01
 7.328817248E-01 4.951005057E-02 -3.358446247E-01
 7.222234607E-01 5.101986974E-02 -3.551364917E-01
 7.113118768E-01 5.255394801E-02 -3.687934678E-01
 6.995377541E-01 5.411609262E-02 -3.808607349E-01
 6.862313747E-01 5.585909262E-02 -4.024658037E-01
 6.735873222E-01 5.745475367E-02 -4.175310735E-01
 6.635068059E-01 5.865557492E-02 -4.322611334E-01
 6.522181630E-01 5.998965353E-02 -4.467239841E-01
 6.402281523E-01 6.130608544E-02 -4.586548057E-01
 6.285801530E-01 6.255453825E-02 -4.755598918E-01
 6.170344949E-01 6.371495128E-02 -4.895481763E-01
 6.064903736E-01 6.471645087E-02 -5.039761134E-01
 5.941148996E-01 6.581934541E-02 -5.111053693E-01
 5.827353001E-01 6.672980636E-02 -5.180221068E-01
 5.694281459E-01 6.775251776E-02 -5.296195957E-01
 5.572724342E-01 6.858512759E-02 -5.357219194E-01
 5.454092622E-01 6.932568550E-02 -5.400759551E-01
 5.347395539E-01 6.992683560E-02 -5.488132626E-01
 5.236425400E-01 7.051375508E-02 -5.575454165E-01
 5.114914775E-01 7.104770094E-02 -5.554017977E-01
 5.002583861E-01 7.144982368E-02 -5.568042854E-01
 4.873667359E-01 7.187442482E-02 -5.563262871E-01
 4.736484587E-01 7.219417393E-02 -5.543341461E-01
 4.600434899E-01 7.244432718E-02 -5.534775606E-01
 4.469330609E-01 7.259055227E-02 -5.515830666E-01
 4.344644845E-01 7.266534120E-02 -5.544224845E-01
 4.220789373E-01 7.266679406E-02 -5.477293648E-01
 4.097246826E-01 7.257265598E-02 -5.463995907E-01
 3.977746964E-01 7.244957238E-02 -5.441848375E-01
 3.855140209E-01 7.222149521E-02 -5.377369858E-01
 3.740429580E-01 7.195971161E-02 -5.352988159E-01
 3.610853255E-01 7.160028070E-02 -5.323265357E-01
 3.483423889E-01 7.116356492E-02 -5.255924281E-01
 3.351349235E-01 7.063008845E-02 -5.235264689E-01
 3.240828812E-01 7.012986392E-02 -5.159744548E-01
 3.111326396E-01 6.945471466E-02 -5.119196856E-01
 2.980356812E-01 6.871907413E-02 -5.083658705E-01
 2.842291594E-01 6.783369184E-02 -5.037595875E-01
 2.720578909E-01 6.697681546E-02 -4.993431423E-01
 2.602533400E-01 6.606967747E-02 -4.920089927E-01
 2.477547377E-01 6.502592564E-02 -4.876521452E-01
 2.354766876E-01 6.392680854E-02 -4.810400550E-01
 2.229931056E-01 6.270962209E-02 -4.739767213E-01
 2.111784667E-01 6.147509813E-02 -4.677098686E-01
 1.992682666E-01 6.014908850E-02 -4.579205138E-01
 1.867182702E-01 5.864259601E-02 -4.528026036E-01
 1.749572456E-01 5.713966489E-02 -4.452265366E-01
 1.636207551E-01 5.558345467E-02 -4.321903015E-01
 1.518237591E-01 5.384714529E-02 -4.224180642E-01
 1.411195546E-01 5.218614638E-02 -4.098638439E-01
 1.295565963E-01 5.026776716E-02 -3.962474123E-01
 1.183230802E-01 4.827717319E-02 -3.833022598E-01
 1.078046486E-01 4.627731070E-02 -3.685989751E-01
 9.779354930E-02 4.424866289E-02 -3.494269056E-01
 8.694565296E-02 4.189276323E-02 -3.242577164E-01
 7.535351813E-02 3.916222602E-02 -2.987533233E-01
 6.537944078E-02 3.661302105E-02 -2.666474491E-01
 5.542664230E-02 3.385570273E-02 -2.324967758E-01
 4.681311920E-02 3.124384582E-02 -2.002738207E-01
 3.947700188E-02 2.882546745E-02 -1.490575930E-01
 3.286110237E-02 2.643806487E-02 -1.018426944E-01
 2.710853890E-02 2.418706380E-02 -6.110699243E-02
 2.296483889E-02 2.241933346E-02 -1.536586992E-02
 1.890188456E-02 2.054968476E-02 2.107595911E-02
 1.557606552E-02 1.888625883E-02 5.614188897E-02
 1.256374642E-02 1.723865978E-02 1.292537749E-01
 1.029451936E-02 1.589166373E-02 1.507140144E-01
 8.358578198E-03 1.464438345E-02 2.058799041E-01
 6.599016953E-03 1.340879500E-02 2.483631593E-01
 4.307337571E-03 1.159543078E-02 3.364206149E-01
 2.306998009E-03 9.718225338E-03 4.327939589E-01
 6.580621703E-04 7.786313072E-03 6.175414932E-01
 -9.860417340E-04 4.958865233E-03 5.742523851E-01
 -1.589867752E-03 2.896334743E-03 6.465203428E-01
 -1.707678661E-03 1.312816283E-03 9.492680635E-01
 -1.502694446E-03 -3.190599382E-04 6.205463114E-01
 -1.021483797E-03 -1.841363497E-03 1.102713086E+00
 -2.330143616E-05 -3.719961736E-03 4.352985538E-01
 1.391546801E-03 -5.569407716E-03 6.690615772E-01
 3.323069075E-03 -7.481617387E-03 3.355328161E-01
 5.091345869E-03 -8.916625753E-03 4.046439843E-01
 7.075416390E-03 -1.030281466E-02 2.845558798E-02
 8.698875085E-03 -1.132070366E-02 1.154974125E-01
 1.079884451E-02 -1.250919513E-02 3.234132349E-02
 1.314033661E-02 -1.371140126E-02 2.353334131E-02
 1.644973084E-02 -1.524585206E-02 -6.821326652E-02
 1.929849200E-02 -1.643874682E-02 -9.272066276E-02
 2.306052111E-02 -1.788038202E-02 -9.367458780E-02
 2.836178243E-02 -1.970174164E-02 -1.248214147E-01
 3.415598720E-02 -2.148782834E-02 -1.366100525E-01
 4.114868119E-02 -2.342968062E-02 -1.453012268E-01
 4.871963710E-02 -2.533164993E-02 -1.713605362E-01
 5.783929676E-02 -2.740064636E-02 -1.746140103E-01
 6.661565602E-02 -2.922133729E-02 -1.896525020E-01
 7.673040032E-02 -3.115242720E-02 -1.978151296E-01
 8.681406826E-02 -3.293659911E-02 -2.085544276E-01
 9.698498249E-02 -3.461421281E-02 -2.150736758E-01
 1.083419174E-01 -3.636784479E-02 -2.258739445E-01
 1.196408942E-01 -3.800154477E-02 -2.318387773E-01
 1.314950585E-01 -3.960588202E-02 -2.411721725E-01
 1.422474086E-01 -4.097960144E-02 -2.482240955E-01
 1.535950005E-01 -4.235458747E-02 -2.557972955E-01
 1.659484357E-01 -4.376044869E-02 -2.657655942E-01
 1.776874661E-01 -4.501556978E-02 -2.741190710E-01
 1.897118539E-01 -4.622880369E-02 -2.844257598E-01
 2.005797774E-01 -4.725985974E-02 -2.944337521E-01
 2.119873166E-01 -4.827196896E-02 -3.032333334E-01
 2.243611664E-01 -4.929328337E-02 -3.116387987E-01
 2.372544259E-01 -5.027335882E-02 -3.212920414E-01
 2.496431917E-01 -5.114528909E-02 -3.331607895E-01
 2.617405951E-01 -5.189979076E-02 -3.432862486E-01
 2.728781104E-01 -5.253722519E-02 -3.526836697E-01
 2.852990627E-01 -5.314930901E-02 -3.616253981E-01
 2.975370586E-01 -5.366640538E-02 -3.696956475E-01
 3.104983568E-01 -5.410883203E-02 -3.764966859E-01
 3.225027621E-01 -5.443400145E-02 -3.859464269E-01
 3.351174891E-01 -5.465613678E-02 -3.908623915E-01
 3.462072611E-01 -5.476436764E-02 -3.967222189E-01
 3.576430082E-01 -5.476227775E-02 -3.959686179E-01
 3.684817553E-01 -5.470025539E-02 -3.972654091E-01
 3.791588545E-01 -5.452631041E-02 -4.000585195E-01
 3.908142447E-01 -5.422518775E-02 -3.910806630E-01
 4.042535722E-01 -5.375839025E-02 -3.810362515E-01
 4.168977141E-01 -5.319715291E-02 -3.774523390E-01
 4.292817116E-01 -5.249625444E-02 -3.651508063E-01
 4.416398406E-01 -5.169166625E-02 -3.490550782E-01
 4.533195198E-01 -5.081129819E-02 -3.312758700E-01
 4.647991955E-01 -4.984895885E-02 -3.115873327E-01
 4.767987430E-01 -4.874864966E-02 -2.913379606E-01
 4.881058633E-01 -4.763110355E-02 -2.689055609E-01
 5.009547472E-01 -4.627207667E-02 -2.440296664E-01
 5.147622824E-01 -4.473000765E-02 -2.173408630E-01
 5.280767679E-01 -4.314947873E-02 -1.909712953E-01
 5.412251949E-01 -4.152539372E-02 -1.621059506E-01
 5.536121726E-01 -3.997502103E-02 -1.404647965E-01
 5.669626594E-01 -3.822320327E-02 -1.154009293E-01
 5.798771381E-01 -3.653431684E-02 -9.115370654E-02
 5.917459726E-01 -3.494463488E-02 -7.390147176E-02
 6.042136550E-01 -3.324221820E-02 -5.055914882E-02
 6.191077232E-01 -3.122146241E-02 -2.661927671E-02
 6.337404847E-01 -2.921211720E-02 -5.362200770E-03
 6.490609646E-01 -2.709293552E-02 1.998791217E-02
 6.620285511E-01 -2.535851672E-02 3.765273622E-02
 6.753772497E-01 -2.354272641E-02 5.148699638E-02
 6.877128482E-01 -2.186713368E-02 7.274259629E-02
 7.001762986E-01 -2.023050375E-02 8.562085188E-02
 7.144246697E-01 -1.831250265E-02 1.041156049E-01
 7.278766632E-01 -1.660465077E-02 1.223271738E-01
 7.396830320E-01 -1.507408172E-02 1.346092041E-01
 7.533800006E-01 -1.336152758E-02 1.531260324E-01
 7.654522657E-01 -1.190594956E-02 1.655088868E-01
 7.786283493E-01 -1.031699218E-02 1.810527284E-01
 7.905576825E-01 -8.947597817E-03 1.948831546E-01
 8.031575680E-01 -7.492267527E-03 2.115691812E-01
 8.143398166E-01 -6.317440886E-03 2.249573280E-01
 8.256475329E-01 -5.112665705E-03 2.367825607E-01
 8.390371203E-01 -3.840453690E-03 2.523248782E-01
 8.516677618E-01 -2.704978688E-03 2.639706285E-01
 8.639228940E-01 -1.697800704E-03 2.762669691E-01
 8.753768206E-01 -8.443861734E-04 2.885489461E-01
 8.873675466E-01 -8.011913451E-05 2.962661424E-01
 9.000059962E-01 6.214244640E-04 3.036226866E-01
 9.106153846E-01 1.065319055E-03 3.107839596E-01
 9.209248424E-01 1.410654630E-03 3.126402929E-01
 9.304001331E-01 1.630759332E-03 3.173258191E-01
 9.385955334E-01 1.751926960E-03 3.153904174E-01
 9.498624802E-01 1.808885718E-03 3.142889251E-01
 9.618176222E-01 1.737247105E-03 3.183139439E-01
 9.762887955E-01 1.479888102E-03 3.043742612E-01
 9.886221886E-01 1.086122938E-03 3.445681136E-01
 -5.000000000E-01 -1.000000000E+00 3.186673270E-02
 3.500000000E+00 -1.000000000E+00 1.688538542E-02
 3.500000000E+00 1.000000000E+00 -9.091889947E-04
 -5.000000000E-01 1.000000000E+00 -5.757540546E-03
 -5.000000000E-01 5.000000000E-01 2.981229835E-02
 -5.000000000E-01 2.752797990E-12 9.487564899E-02
 -5.000000000E-01 -5.000000000E-01 6.208481241E-02
 -9.421907698E-13 -1.000000000E+00 1.976475175E-02
 5.000000000E-01 -1.000000000E+00 1.096350657E-02
 1.000000000E+00 -1.000000000E+00 1.942738222E-02
 1.500000000E+00 -1.000000000E+00 3.460504068E-02
 2.000000000E+00 -1.000000000E+00 2.963679611E-02
 2.500000000E+00 -1.000000000E+00 2.145623276E-02
 3.000000000E+00 -1.000000000E+00 1.742414462E-02
 3.500000000E+00 -5.000000000E-01 1.933874403E-02
 3.500000000E+00 -2.752797990E-12 1.785690884E-02
 3.500000000E+00 5.000000000E-01 6.676140523E-03
 3.000000000E+00 1.000000000E+00 -3.481831522E-03
 2.500000000E+00 1.000000000E+00 -1.028310864E-02
 2.000000000E+00 1.000000000E+00 -2.682370398E-02
 1.500000000E+00 1.000000000E+00 -6.456908543E-02
 1.000000000E+00 1.000000000E+00 -1.184979556E-01
 5.000000000E-01 1.000000000E+00 -1.113349077E-01
 1.733724275E-12 1.000000000E+00 -3.415290107E-02
 6.843882430E-01 -3.514367089E-02 6.094243626E-02
 7.869379881E-01 -2.102950712E-02 1.830430039E-01
 9.056896219E-01 -8.213353657E-03 2.950230747E-01
 2.806203820E-01 -6.679948818E-02 -3.378774761E-01
 7.113517274E-01 6.606631706E-02 -3.579877108E-01
 9.132917756E-01 2.861625809E-02 -3.579187900E-02
 2.894460455E-01 8.208779532E-02 -4.869561482E-01
 5.759059769E-01 -4.974287137E-02 -9.940889002E-02
 8.176956452E-01 4.823100290E-02 -2.173081218E-01
 1.821642877E-01 -5.907746534E-02 -2.617355695E-01
 6.116187429E-01 7.624511918E-02 -4.806112505E-01
 4.004028223E-01 -6.465590784E-02 -3.652376555E-01
 4.408430472E-01 8.743743294E-02 -5.312268797E-01
 1.833450931E+00 -6.043159521E-01 2.927494873E-02
 1.740146653E+00 5.478419921E-01 -1.675002211E-02
 3.031166138E+00 2.156884242E-01 9.646084954E-03
 7.500000000E-01 -5.669872981E-01 2.123501725E-02
 4.706027168E-01 -6.360393668E-02 -2.799394775E-01
 7.500000000E-01 5.669872981E-01 -1.559878571E-01
 5.168308807E-01 8.298423068E-02 -5.380882740E-01
 3.370670341E-01 6.519168079E-01 -1.391449996E-01
 1.211803862E-01 6.255103154E-02 -3.599364017E-01
 1.830926870E-01 7.061171600E-02 -4.243398308E-01
 3.678621922E-01 8.578060376E-02 -5.129013736E-01
 2.734871116E+00 -5.326684199E-01 1.646940817E-02
 1.166200855E+00 6.153687572E-01 -6.792188387E-02
 9.866574493E-01 3.388946796E-01 -7.066178974E-02
 1.221725370E+00 -6.636456467E-01 4.514355755E-02
 1.504730314E+00 -2.681143730E-01 3.733513278E-02
 2.500000000E-01 -5.669872981E-01 -2.110510636E-02
 8.001757999E-02 -4.125539679E-02 -1.806745728E-01
 2.248473275E+00 -5.894134681E-01 2.019783343E-02
 1.983248520E+00 -2.192502929E-01 1.842965457E-02
 2.413223662E+00 -1.878726297E-01 1.219131340E-02
 2.184698315E+00 1.584096171E-01 4.878341558E-03
 1.800450470E+00 1.384324283E-01 4.449112308E-03
 -2.709632582E-01 -2.473808303E-01 1.123731565E-01
 -1.560496084E-01 -5.626275646E-01 3.777758668E-02
 -2.715672465E-01 2.370066696E-01 8.058669612E-02
 -6.692886554E-02 6.047582402E-01 -3.951900046E-02
 1.085420632E-01 3.644867472E-01 -1.147136345E-01
 6.839122853E-02 4.689384658E-02 -2.480607176E-01
 2.191245858E+00 6.009090179E-01 -7.257501823E-03
 2.738034717E+00 6.038052844E-01 1.628079074E-03
 -2.348214055E-01 2.253811196E-03 1.514508271E-01
 -1.270263752E-01 -1.260251277E-01 1.689187606E-01
 3.537258271E-02 -2.980680294E-02 -8.116437114E-02
 3.226758612E-02 -3.714888978E-01 1.062546152E-02
 2.788990652E-01 -3.158047952E-01 -9.649657203E-02
 3.418539395E-01 -6.582189572E-02 -3.725910523E-01
 -1.197855598E-01 1.418496081E-01 1.370127308E-01
 -6.779614207E-02 3.226580546E-01 -8.422920652E-04
 8.032055759E-03 1.823075615E-01 -4.225313307E-03
 3.287749607E-02 3.239896950E-02 -8.416272048E-02
 1.577644665E-01 2.210083001E-01 -2.222670420E-01
 2.422183658E-01 8.008550407E-02 -4.615424119E-01
 2.160710883E-01 7.590741654E-02 -4.480404291E-01
 2.663475157E-01 7.891509190E-02 -4.790934527E-01
 -3.781152517E-02 9.846097887E-02 2.045509236E-01
 -1.100281027E-01 2.400594001E-02 2.763648556E-01
 -7.018689599E-02 -5.500872984E-02 2.797249856E-01
 3.506164224E-02 1.130730797E-01 -3.329008498E-02
 3.109373480E+00 -2.612545790E-01 1.623791687E-02
 -4.687024235E-02 3.701627372E-02 4.001316374E-01
 -5.052387412E-02 -1.088477677E-02 4.832681920E-01
 -2.787087405E-02 -5.000278518E-02 3.931659023E-01
 1.968557631E-02 -2.285328974E-02 -1.970150226E-02
 -3.570156487E-02 -1.027437073E-01 1.779309366E-01
 3.716985786E-02 -1.157143018E-01 3.657602405E-02
 1.309715895E-01 -5.219144122E-02 -2.247679591E-01
 1.124875545E-01 -4.859273131E-02 -2.040819996E-01
 -1.757951568E-02 -1.897633137E-01 8.052327358E-02
 7.697293315E-02 -1.912317950E-01 -4.508238754E-02
 9.736783970E-02 -1.093736919E-01 -1.054088902E-01
 1.610187007E-01 -1.396528473E-01 -1.467209201E-01
 2.313782166E-01 -6.517271904E-02 -2.992380002E-01
 1.486597534E-01 -2.496110419E-01 -7.274235468E-02
 2.390668776E-01 -1.857116335E-01 -1.777376164E-01
 3.648347984E-01 -2.278312946E-01 -1.680516355E-01
 3.985809477E-01 -3.618014640E-01 -7.825631489E-02
 4.803311603E-01 -2.386194320E-01 -1.225162255E-01
 5.248167882E-01 -5.637417041E-02 -1.875454993E-01
 5.487613459E-01 -5.147764472E-02 -1.452124671E-01
 4.281720617E-01 -1.614464935E-01 -2.094300836E-01
 4.350360597E-01 -6.664559596E-02 -3.282483144E-01
 5.215715138E-01 -1.735414555E-01 -1.239569165E-01
 6.305172854E-01 -4.859431473E-02 -1.276162216E-02
 5.776308972E-01 -2.287378145E-01 -5.603506973E-02
 6.196423407E-01 -1.536383626E-01 -2.902311015E-02
 6.722306684E-01 -2.164447095E-01 1.287994128E-02
 7.297649384E-01 -2.753612117E-02 1.189382598E-01
 7.140549461E-01 -1.439494065E-01 5.733945186E-02
 7.662985434E-01 -2.104827251E-01 7.762043312E-02
 8.430829488E-01 -1.550858713E-02 2.439650210E-01
 8.259580775E-01 -1.636390724E-02 2.285937315E-01
 8.077030324E-01 -1.366197527E-01 1.325758005E-01
 8.513904776E-01 -1.882973257E-01 1.174661649E-01
 9.675200658E-01 -1.149879846E-02 3.034178427E-01
 9.447408530E-01 -7.320083519E-03 3.052686331E-01
 9.027469806E-01 -1.473836452E-01 1.642044302E-01
 9.556786857E-01 -2.072176180E-01 1.272762452E-01
 9.981640571E-01 -1.206702619E-01 1.668046107E-01
 1.046476913E+00 -1.903138592E-01 1.161262692E-01
 1.096783003E+00 -1.188916568E-01 1.255341593E-01
 1.010921186E+00 -3.142976721E-01 9.406821668E-02
 1.165308409E+00 -2.006312103E-01 9.401394723E-02
 1.183626593E+00 -9.187778405E-02 8.025297317E-02
 1.153778543E+00 2.383076473E-02 7.486606634E-02
 1.278612056E+00 2.440870408E-02 4.519275000E-02
 1.204281855E+00 1.589188709E-01 2.835052152E-02
 1.366841566E+00 1.873984303E-01 1.231507665E-02
 3.632765246E-01 -1.483459749E-01 -2.471636651E-01
 8.498572526E-01 -8.810318297E-02 1.826438195E-01
 1.036667294E+00 -6.800955891E-02 1.773724581E-01
 7.561914800E-01 -9.570625445E-02 1.102245710E-01
 9.465618788E-01 -8.053046361E-02 2.177389709E-01
 6.608854746E-01 -1.001307495E-01 1.487205489E-02
 1.237366259E+00 3.435285575E-01 -2.207699737E-02
 1.011781309E+00 1.862127583E-01 -1.367464505E-02
 9.743534063E-01 1.936100793E-02 1.146152613E-01
 1.501463484E+00 -3.209574022E-03 2.601454210E-02
 5.766974145E-01 -1.171724516E-01 -8.193774179E-02
 4.800292276E-01 -1.193107277E-01 -2.035581998E-01
 1.075405970E+00 2.588890793E-02 1.067391790E-01
 5.414717974E-01 -3.392559420E-01 -5.294886895E-02
 5.286076663E-01 -4.975606610E-01 -3.634397108E-02
 8.311270880E-01 -3.253441889E-01 6.860497197E-02
 3.998787189E-01 -1.170344668E-01 -2.798679967E-01
 2.184702047E-01 -1.194701522E-01 -2.332455120E-01
 3.607893999E-01 -1.010001216E-01 -3.158389241E-01
 3.237051030E-01 -1.094952769E-01 -2.959079898E-01
 3.044659745E-01 -6.659384629E-02 -3.534829539E-01
 3.731121878E-01 -6.324191593E-02 -3.812247576E-01
 -8.230578856E-03 6.061064149E-02 2.312247095E-01
 1.034959318E-02 1.844856038E-02 1.515497293E-01
 1.899550797E-02 2.535240281E-02 5.255571850E-02
 3.106831293E-02 7.165533322E-02 -2.620629111E-02
 4.926544476E-02 4.085012905E-02 -1.741537846E-01
 1.422209345E+00 4.332941553E-01 -2.075917647E-02
 3.040261263E-01 -1.615425446E-01 -2.285262713E-01
 1.458765451E-01 -9.557042619E-02 -1.825344575E-01
 1.583147667E-01 -5.664599524E-02 -2.417769587E-01
 1.844805289E-01 -1.002851653E-01 -2.155079110E-01
 2.060063524E-01 -6.231776277E-02 -2.803253746E-01
 1.304750091E+00 -1.875691819E-01 5.686559457E-02
 1.229293556E+00 -3.785336350E-01 6.339804614E-02
 1.005066457E+00 -5.044242478E-01 5.504329020E-02
 3.277824987E-01 -6.629577179E-02 -3.664024443E-01
 3.373837130E-01 -8.322811187E-02 -3.418527754E-01
 3.541983396E-01 -7.780859075E-02 -3.550859014E-01
 3.175257468E-01 -7.907459337E-02 -3.416277488E-01
 2.956114826E-01 -8.367802986E-02 -3.238123844E-01
 2.700456021E-01 -8.411277642E-02 -3.067913509E-01
 2.562749540E-01 -6.600540920E-02 -3.205158374E-01
 2.426152804E-01 -8.588170177E-02 -2.799926459E-01
 2.132175036E-01 -8.132673554E-02 -2.619854768E-01
 2.600244123E-01 -1.243919999E-01 -2.522533851E-01
 3.165550678E-01 -6.410140899E-02 -3.648109556E-01
 2.927067921E-01 -6.477741574E-02 -3.490201009E-01
 1.412315318E-02 -6.670500320E-02 1.473791468E-01
 5.780115909E-02 -7.416027816E-02 -7.560089331E-02
 5.169617190E-02 -3.825748917E-02 -1.157056350E-01
 3.526037543E-01 -6.345948896E-02 -3.795165938E-01
 2.434332137E-01 -6.369569558E-02 -3.142508542E-01
 2.683119287E-01 -6.427093795E-02 -3.330518181E-01
 2.173901111E-01 -6.127649394E-02 -2.936339289E-01
 3.624892249E-01 -6.527124050E-02 -3.771126721E-01
 9.004988102E-02 -7.355968809E-02 -1.438251263E-01
 5.875459023E-02 -5.287332248E-02 -1.014059022E-01
 2.552432953E+00 2.123944719E-01 4.730858344E-03
 -1.942896664E-02 3.136010227E-02 4.065106769E-01
 4.138393810E-03 1.416369974E-02 3.033089460E-01
 -1.958184689E-02 6.266357067E-03 6.819986504E-01
 -9.904064883E-03 -1.324187162E-02 6.060593594E-01
 3.874092214E-01 -9.120713585E-02 -3.258726264E-01
 4.176807412E-01 -9.038477634E-02 -3.065647556E-01
 4.155281894E-01 -7.250293623E-02 -3.403594613E-01
 4.493579313E-01 -9.151000353E-02 -2.755233555E-01
 4.556241798E-01 -7.119976338E-02 -2.948197452E-01
 4.721356834E-01 -8.629297572E-02 -2.519492697E-01
 4.949466444E-01 -5.922530349E-02 -2.439653474E-01
 5.075085999E-01 -9.211357035E-02 -1.987110222E-01
 5.457084898E-01 -8.818747691E-02 -1.347966711E-01
 5.784594556E-01 -8.710102351E-02 -8.816126099E-02
 6.013134180E-01 -4.748291391E-02 -5.557560327E-02
 6.117951959E-01 -9.472008602E-02 -4.033198003E-02
 5.105807188E-01 -5.957704181E-02 -2.141683147E-01
 6.354982362E-01 -7.624804150E-02 -8.504949011E-03
 6.582478459E-01 -3.884731570E-02 2.841190419E-02
 6.449215152E-01 -3.980607294E-02 8.487345276E-03
 6.549140738E-01 -5.911131790E-02 2.068346456E-02
 6.847389429E-01 -7.264721823E-02 5.340400269E-02
 7.116198301E-01 -3.152745934E-02 9.626902632E-02
 6.150192373E-01 -6.403815386E-02 -3.470238484E-02
 6.723473283E-01 -5.025784558E-02 4.451765927E-02
 5.889536044E-01 -4.642327157E-02 -7.701845398E-02
 5.922192377E-01 -6.445996244E-02 -6.979126801E-02
 1.174122574E-01 -7.313165812E-02 -1.721077973E-01
 1.447000129E-01 -6.754905316E-02 -2.166039633E-01
 1.683603665E-01 -7.282520354E-02 -2.326887001E-01
 1.913776591E-01 -7.210290729E-02 -2.566048799E-01
 7.658210433E-04 4.068458608E-02 3.009067076E-01
 1.667391746E-02 4.882509365E-02 1.267859499E-01
 3.625206688E-02 4.630058274E-02 -7.213034956E-02
 2.284339656E-02 3.626188457E-02 8.923568665E-03
 -1.078702343E-01 -2.994571468E-01 6.090504073E-02
 9.586311697E-02 -5.502816487E-02 -1.759003779E-01
 4.861539499E-01 -7.241467468E-02 -2.432906698E-01
 5.043236006E-01 -7.249662261E-02 -2.150625207E-01
 1.697379503E+00 -1.219227452E-01 2.187697378E-02
 5.627040900E-01 -6.487234277E-02 -1.172518337E-01
 1.097684845E+00 -4.109529147E-02 1.138751736E-01
 1.036332964E+00 -1.752228633E-02 1.532102025E-01
 1.003826256E+00 -4.087486685E-02 2.307044856E-01
 3.932340811E-02 -5.131089580E-02 -1.364141475E-02
 7.574626525E-02 2.581209738E-01 -1.045546893E-01
 2.607277303E-01 3.103383881E-01 -2.454222655E-01
 2.711115830E-01 1.981639257E-01 -3.375925806E-01
 3.256175011E-01 8.006214294E-02 -5.059674435E-01
 3.622410219E-01 2.493183908E-01 -3.361919653E-01
 3.547515523E-01 1.658213999E-01 -4.161356664E-01
 4.036483463E-01 8.787697443E-02 -5.240868709E-01
 4.409487916E-01 1.896839202E-01 -4.092351660E-01
 4.807750428E-01 8.350857824E-02 -5.381283973E-01
 4.623955929E-01 2.844314839E-01 -3.231112199E-01
 5.377532735E-01 2.081867242E-01 -3.823479014E-01
 5.629172515E-01 7.978640991E-02 -5.177250439E-01
 5.720315369E-01 3.227041756E-01 -2.904293445E-01
 6.466167000E-01 2.249208370E-01 -3.135183900E-01
 6.583036325E-01 7.259379345E-02 -4.256226958E-01
 6.811026540E-01 7.116845997E-02 -3.962801271E-01
 6.002957134E-01 1.543355754E-01 -4.041465555E-01
 6.853524941E-01 1.588645245E-01 -3.216074780E-01
 7.660198026E-01 5.774161184E-02 -2.853825660E-01
 7.435083929E-01 5.993902277E-02 -3.181543056E-01
 7.953038540E-01 5.461448192E-02 -2.456796167E-01
 7.290942347E-01 2.223553597E-01 -2.516858096E-01
 7.739073801E-01 1.516499395E-01 -2.354717538E-01
 8.648952823E-01 4.162677103E-02 -1.408158467E-01
 8.252504867E-01 2.143446589E-01 -1.716885751E-01
 8.472072963E-01 1.504449592E-01 -1.522969977E-01
 2.027029065E-01 1.601900018E-01 -3.158915761E-01
 1.066122771E-01 1.536257302E-01 -1.981641749E-01
 5.448361484E-01 1.431169106E-01 -4.394512999E-01
 6.810868003E-01 3.380340225E-01 -2.256477648E-01
 6.457220377E-01 1.204102686E-01 -3.940422941E-01
 6.354141422E-01 7.477495199E-02 -4.526984347E-01
 7.220643294E-01 1.183422388E-01 -3.101455946E-01
 9.143526238E-01 2.131028914E-01 -8.948859580E-02
 8.053930012E-01 1.038153998E-01 -2.152749914E-01
 8.604966793E-01 9.211449933E-02 -1.391125795E-01
 8.413967835E-01 4.465982426E-02 -1.828488932E-01
 9.045376100E-01 1.279073730E-01 -7.683023075E-02
 1.001763397E+00 1.092881829E-01 3.553161211E-02
 2.983050779E-01 1.399596060E-01 -4.150954498E-01
 4.059088562E-01 1.399616623E-01 -4.619412275E-01
 4.524939018E-01 1.383081057E-01 -4.658622898E-01
 9.032100454E-01 7.404990201E-02 -7.035634525E-02
 8.955396767E-01 3.573829372E-02 -7.842446074E-02
 8.737385335E-02 1.025436701E-01 -2.095791403E-01
 9.324461867E-02 5.537315625E-02 -3.050370554E-01
 4.395757947E-01 4.288082267E-01 -2.380539138E-01
 1.643905749E-01 1.224314484E-01 -3.233004486E-01
 1.263781594E-01 1.018960889E-01 -2.879134228E-01
 1.536929968E-01 6.700053498E-02 -4.004685086E-01
 3.403206214E-01 1.236293829E-01 -4.570137657E-01
 5.765158015E-01 1.124002161E-01 -4.643279541E-01
 5.868599245E-01 7.604524451E-02 -5.028157890E-01
 6.087380278E-01 1.137085250E-01 -4.361134217E-01
 3.761324850E-01 1.175012215E-01 -4.717793187E-01
 6.447048746E-02 8.023867356E-02 -1.555496409E-01
 1.015601068E-01 7.538431132E-02 -2.803286181E-01
 1.367723440E-01 7.692908149E-02 -3.621965417E-01
 5.484587271E-02 5.591306621E-02 -1.664223470E-01
 3.078019576E-01 1.101486588E-01 -4.569558513E-01
 2.735357206E-01 1.126783188E-01 -4.381503139E-01
 5.442967865E-01 1.125955138E-01 -4.829426783E-01
 5.173684814E-01 1.209754338E-01 -4.834762659E-01
 5.417185256E-01 8.129421038E-02 -5.273184477E-01
 4.977018060E-01 1.548052055E-01 -4.484189081E-01
 8.381185790E-01 3.397814169E-01 -1.502337262E-01
 3.084479307E-01 8.663023408E-02 -4.884855449E-01
 8.282785923E-01 7.895235070E-02 -1.925294068E-01
 4.278099329E-01 1.189125541E-01 -4.884735452E-01
 4.036537446E-01 1.098425766E-01 -4.969038649E-01
 7.662987190E-02 6.091341783E-02 -2.460524513E-01
 5.530742197E-01 7.854528176E-02 -5.245252766E-01
 5.302977705E-01 9.623902310E-02 -5.128181104E-01
 5.005633133E-01 9.633785448E-02 -5.198591055E-01
 1.434340991E-01 6.213811194E-02 -3.954448580E-01
 1.570459369E-01 8.679120788E-02 -3.673465549E-01
 1.835506825E-01 9.181332467E-02 -3.972535321E-01
 2.156240830E-01 1.143256191E-01 -3.925902777E-01
 1.969262701E-01 7.758743028E-02 -4.326789815E-01
 2.511312270E-01 1.382256528E-01 -3.928583709E-01
 2.446771168E-01 1.038593603E-01 -4.304204033E-01
 1.337618408E-01 6.072765158E-02 -3.837130209E-01
 4.169352132E-01 8.314617479E-02 -5.326740565E-01
 3.838940951E-01 9.573242184E-02 -5.086570610E-01
 4.280717455E-01 8.335630481E-02 -5.352092649E-01
 5.294458542E-01 8.019161097E-02 -5.372514141E-01
 7.986762060E-01 7.599337251E-02 -2.323808557E-01
 8.305316117E-01 5.720570903E-02 -1.943037139E-01
 8.536123247E-01 5.842285725E-02 -1.568227726E-01
 8.765407552E-01 5.891896478E-02 -1.149094285E-01
 9.493583533E-01 5.036555715E-01 -1.011990444E-01
 1.068230025E-01 6.205185821E-02 -3.323674284E-01
 8.110609845E-01 6.140903477E-02 -2.190193869E-01
 4.376936939E-01 -1.167759718E-01 -2.516724111E-01
 6.805746969E-01 -4.055796995E-01 1.013040249E-02
 5.990149214E-01 7.462618104E-02 -4.946309439E-01
 5.979717132E-01 9.062410456E-02 -4.758602085E-01
 6.251659203E-01 9.109181981E-02 -4.462949373E-01
 6.469195268E-01 8.635829041E-02 -4.252676983E-01
 6.686177476E-01 8.808081378E-02 -3.978281463E-01
 6.942357374E-01 9.000120523E-02 -3.621314998E-01
 5.752910769E-01 8.672391139E-02 -4.982480709E-01
 6.831984693E-01 1.151398102E-01 -3.600575678E-01
 7.202887920E-01 8.673932518E-02 -3.354764800E-01
 7.561928282E-01 9.803412973E-02 -2.786765492E-01
 7.240332546E-01 7.029553164E-02 -3.379460356E-01
 7.755279554E-01 7.757464626E-02 -2.617293123E-01
 7.398619801E-01 7.604993517E-02 -3.136744122E-01
 7.560943801E-01 6.835283804E-02 -2.933594366E-01
 1.083443668E+00 1.210913254E-01 5.369594302E-02
 4.529213541E-01 1.072187270E-01 -5.058980384E-01
 4.570731100E-01 8.966545424E-02 -5.316252495E-01
 4.819077399E-01 1.186507242E-01 -4.904724557E-01
 1.457139213E+00 6.491262262E-01 -3.462981859E-02
 5.231889128E-01 -7.478548263E-02 -1.801814733E-01
 3.858662757E-01 -6.739872715E-02 -3.668165047E-01
 6.140342638E-01 -4.491581262E-02 -3.591293769E-02
 6.466167234E-01 7.100455496E-02 -4.419084202E-01
 5.617213909E-01 -4.924458307E-02 -1.236491462E-01
 8.060871283E-01 4.830008437E-02 -2.345911721E-01
 3.706441082E-01 -7.765462197E-02 -3.511952331E-01
 6.704778436E-01 -3.463001506E-02 4.383547616E-02
 6.977696554E-01 -3.126621333E-02 8.015507586E-02
 7.007165149E-01 -4.824887045E-02 7.435323082E-02
 7.235886690E-01 -6.757243963E-02 9.299207587E-02
 7.221746992E-01 -4.382651217E-02 1.034140336E-01
 7.441295458E-01 -4.462073313E-02 1.253749391E-01
 7.819759280E-01 -5.967928183E-02 1.537724903E-01
 7.613988101E-01 -2.321879262E-02 1.553583878E-01
 7.492174100E-01 -2.795728782E-02 1.409634354E-01
 7.640314671E-01 -3.996616887E-02 1.505817434E-01
 7.730488236E-01 -2.378183446E-02 1.661162979E-01
 7.818440614E-01 -3.625359641E-02 1.714682718E-01
 8.050915271E-01 -4.827073615E-02 1.860117811E-01
 8.071473265E-01 -8.041400585E-02 1.671214663E-01
 8.412733140E-01 -4.955823225E-02 2.106419987E-01
 8.769608289E-01 -5.796369480E-02 2.285377240E-01
 8.673967602E-01 -1.622423798E-02 2.630824441E-01
 8.664683763E-01 -3.707404091E-02 2.422425030E-01
 8.925022153E-01 -3.572549197E-02 2.540774818E-01
 8.842916831E-01 -1.714347406E-02 2.715656668E-01
 9.176963795E-01 -3.042414967E-02 2.703701156E-01
 9.269991780E-01 -7.561935855E-03 3.017833756E-01
 9.172675835E-01 -6.245434240E-03 3.023191346E-01
 9.357286838E-01 -5.887911316E-03 3.042774216E-01
 9.351055148E-01 -1.801847306E-02 2.902427669E-01
 9.537714625E-01 -1.906998211E-02 2.805946719E-01
 9.717555336E-01 -3.102223374E-02 2.664514355E-01
 9.442887621E-01 -4.185954521E-02 2.573290433E-01
 9.862177895E-01 -1.820833657E-02 2.643647678E-01
 1.005871518E+00 -1.964694260E-02 2.846517285E-01
 8.362427375E-01 -2.836834331E-02 2.277996694E-01
 9.133269465E-01 -5.570211982E-02 2.415138228E-01
 9.835439636E-01 -6.382782170E-02 2.189130831E-01
 8.956351964E-01 -9.176842721E-03 2.897663363E-01
 6.974726555E-01 -1.029888120E-01 5.683379783E-02
 2.763879265E-01 9.003367039E-02 -4.684492173E-01
 6.690236325E-01 6.959067916E-02 -4.143659877E-01
 8.524430620E-01 4.106837838E-02 -1.638623223E-01
 3.133974596E+00 6.339745962E-01 1.159231339E-03
 8.559810729E-01 -1.278690310E-02 2.571949855E-01
 8.011297804E-02 4.884708198E-02 -2.836140023E-01