TITLE     = "Visualization of the solution"
VARIABLES = "x"
"y"
"Pressure_Coefficient"
ZONE T="Zone"
 STRANDID=0, SOLUTIONTIME=0
 Nodes=691, Elements=1167, ZONETYPE=FEQuadrilateral
 DATAPACKING=POINT
 DT=(DOUBLE DOUBLE DOUBLE )
 1.000144243E+00 5.141241127E-04 2.573558082E-01
 9.856755733E-01 3.553889226E-03 2.013838717E-01
 9.717655778E-01 6.473858375E-03 1.336756239E-01
 9.545851350E-01 1.008842327E-02 6.412645134E-02
 9.398288131E-01 1.317014825E-02 3.612257386E-02
 9.264848828E-01 1.591536961E-02 -1.515687766E-03
 9.155984521E-01 1.825018786E-02 -4.242857043E-02
 9.047126770E-01 2.051018365E-02 -6.592593845E-02
 8.931642175E-01 2.281330526E-02 -9.474403942E-02
 8.818816543E-01 2.510318905E-02 -1.219187772E-01
 8.702414036E-01 2.734297700E-02 -1.525592080E-01
 8.583033681E-01 2.965581790E-02 -1.742987550E-01
 8.463858962E-01 3.177645057E-02 -1.812330125E-01
 8.353772759E-01 3.376191854E-02 -2.066030572E-01
 8.240188956E-01 3.578915820E-02 -2.213654382E-01
 8.116286397E-01 3.789304942E-02 -2.338886567E-01
 7.992669344E-01 3.998345137E-02 -2.559045389E-01
 7.869077325E-01 4.203821719E-02 -2.766534888E-01
 7.745574713E-01 4.403327778E-02 -2.917988094E-01
 7.629134059E-01 4.584739730E-02 -3.052061815E-01
 7.498972416E-01 4.785734788E-02 -3.272683577E-01
 7.367038727E-01 4.983185232E-02 -3.432041067E-01
 7.255548835E-01 5.143548921E-02 -3.551581743E-01
 7.140297294E-01 5.305641890E-02 -3.703319913E-01
 7.021354437E-01 5.470250547E-02 -3.906472924E-01
 6.891658306E-01 5.644376576E-02 -4.097833088E-01
 6.762626767E-01 5.807877705E-02 -4.224117184E-01
 6.650128961E-01 5.945460126E-02 -4.358266773E-01
 6.530396938E-01 6.088000163E-02 -4.557889550E-01
 6.415113211E-01 6.219644099E-02 -4.711287943E-01
 6.297370791E-01 6.345335394E-02 -4.826424588E-01
 6.179086566E-01 6.466089934E-02 -4.969674929E-01
 6.074651480E-01 6.567293406E-02 -5.095605260E-01
 5.959432125E-01 6.672458351E-02 -5.215880998E-01
 5.843945742E-01 6.770186126E-02 -5.313143090E-01
 5.710725784E-01 6.873659790E-02 -5.418153859E-01
 5.586606264E-01 6.961391866E-02 -5.472143218E-01
 5.464416742E-01 7.039426267E-02 -5.538463204E-01
 5.353091955E-01 7.104835659E-02 -5.621783579E-01
 5.234253407E-01 7.165945321E-02 -5.621425082E-01
 5.113705397E-01 7.218857855E-02 -5.636684712E-01
 5.006119609E-01 7.261511683E-02 -5.675142963E-01
 4.878761172E-01 7.304323465E-02 -5.675346770E-01
 4.750491083E-01 7.337396592E-02 -5.706257082E-01
 4.621472657E-01 7.364221662E-02 -5.683383025E-01
 4.491886497E-01 7.379839569E-02 -5.651216909E-01
 4.367926717E-01 7.389962673E-02 -5.685310913E-01
 4.243533313E-01 7.393106818E-02 -5.657694324E-01
 4.119317532E-01 7.385696471E-02 -5.576949933E-01
 3.990063071E-01 7.371911407E-02 -5.558709254E-01
 3.868958950E-01 7.354142517E-02 -5.562679216E-01
 3.749072552E-01 7.328823209E-02 -5.539477921E-01
 3.617637157E-01 7.292815298E-02 -5.498146647E-01
 3.489124179E-01 7.248933613E-02 -5.432176485E-01
 3.359577656E-01 7.198318839E-02 -5.423340037E-01
 3.251259327E-01 7.150205225E-02 -5.379920440E-01
 3.127366006E-01 7.087667286E-02 -5.367979115E-01
 2.999677658E-01 7.015800476E-02 -5.305854869E-01
 2.864044607E-01 6.929367781E-02 -5.244283192E-01
 2.742196918E-01 6.842911988E-02 -5.201524666E-01
 2.624714673E-01 6.755191833E-02 -5.191009657E-01
 2.498551607E-01 6.649879366E-02 -5.108795055E-01
 2.374804020E-01 6.537789851E-02 -5.048403207E-01
 2.250458896E-01 6.416402012E-02 -4.959291956E-01
 2.129397392E-01 6.289299577E-02 -4.907847488E-01
 2.006355375E-01 6.151777133E-02 -4.841938122E-01
 1.883774698E-01 6.003508717E-02 -4.754602654E-01
 1.764457375E-01 5.848166347E-02 -4.671189634E-01
 1.645255834E-01 5.683119595E-02 -4.592825828E-01
 1.526348442E-01 5.506468937E-02 -4.492286615E-01
 1.413347572E-01 5.327245966E-02 -4.383917507E-01
 1.296355873E-01 5.129590258E-02 -4.256177567E-01
 1.184632331E-01 4.927035421E-02 -4.115597612E-01
 1.075138748E-01 4.714575782E-02 -3.962815913E-01
 9.719017893E-02 4.501008615E-02 -3.763030146E-01
 8.641301841E-02 4.261564836E-02 -3.558430601E-01
 7.533706725E-02 3.995580599E-02 -3.330843372E-01
 6.560058147E-02 3.742581606E-02 -3.070617818E-01
 5.602775142E-02 3.472031653E-02 -2.660003323E-01
 4.728221893E-02 3.203454614E-02 -2.520292612E-01
 3.970489278E-02 2.949562110E-02 -2.071976728E-01
 3.298172727E-02 2.704049647E-02 -1.640370547E-01
 2.719636261E-02 2.472798713E-02 -1.228295577E-01
 2.289181016E-02 2.285756543E-02 -1.061172798E-01
 1.875794865E-02 2.091088705E-02 -6.119586659E-02
 1.534682699E-02 1.914554462E-02 -4.941151048E-02
 1.228080504E-02 1.740663685E-02 1.952308282E-02
 1.009332761E-02 1.605863124E-02 5.060471006E-02
 8.111957461E-03 1.471784897E-02 5.864207234E-02
 6.277413573E-03 1.334979571E-02 1.093541353E-01
 3.964332398E-03 1.136793010E-02 1.498830496E-01
 2.086496679E-03 9.424745105E-03 2.398756762E-01
 5.984024610E-04 7.467759773E-03 6.854451269E-01
 -8.315304294E-04 4.670279566E-03 8.657227672E-01
 -1.379822032E-03 2.547840588E-03 6.326994984E-01
 -1.500787679E-03 7.913711597E-04 6.879244660E-01
 -1.298889518E-03 -1.146714203E-03 8.346249594E-01
 -7.390817627E-04 -3.140263725E-03 7.637009882E-01
 3.822878643E-04 -5.547324196E-03 6.257808673E-01
 2.033566590E-03 -8.043067530E-03 6.257952312E-01
 4.182415083E-03 -1.056220289E-02 5.047016460E-01
 6.120604929E-03 -1.245869137E-02 5.313035643E-01
 8.351294324E-03 -1.437773369E-02 3.124307460E-01
 1.020892523E-02 -1.581661962E-02 3.039678123E-01
 1.244711131E-02 -1.740746386E-02 2.688563560E-01
 1.492714789E-02 -1.902133785E-02 2.238226932E-01
 1.822712086E-02 -2.097808011E-02 1.434912279E-01
 2.135638706E-02 -2.269095741E-02 6.888397330E-02
 2.525542118E-02 -2.463399246E-02 4.199257529E-02
 3.044952452E-02 -2.700990625E-02 -1.070327581E-02
 3.600832075E-02 -2.930466086E-02 -8.896744762E-02
 4.261696711E-02 -3.178246692E-02 -1.163864256E-01
 5.003556609E-02 -3.431095555E-02 -1.485591905E-01
 5.889185145E-02 -3.703434765E-02 -1.778589270E-01
 6.759607792E-02 -3.948482126E-02 -2.157874531E-01
 7.764532417E-02 -4.205640405E-02 -2.411212045E-01
 8.741763979E-02 -4.436635226E-02 -2.671354434E-01
 9.787147492E-02 -4.664621502E-02 -2.835193127E-01
 1.090430468E-01 -4.889638722E-02 -3.027168317E-01
 1.204407141E-01 -5.103002861E-02 -3.202159111E-01
 1.321944892E-01 -5.305927619E-02 -3.362780549E-01
 1.429014653E-01 -5.479203537E-02 -3.508332755E-01
 1.543498635E-01 -5.652182549E-02 -3.633402097E-01
 1.665012538E-01 -5.823419616E-02 -3.758459191E-01
 1.782227308E-01 -5.976222083E-02 -3.887140007E-01
 1.901742667E-01 -6.121341884E-02 -4.000945298E-01
 2.012141347E-01 -6.245535985E-02 -4.120304717E-01
 2.128094286E-01 -6.366013736E-02 -4.219935307E-01
 2.250045240E-01 -6.482288986E-02 -4.323955280E-01
 2.373039871E-01 -6.589134783E-02 -4.434382132E-01
 2.491011024E-01 -6.680916250E-02 -4.550816813E-01
 2.611462176E-01 -6.764375418E-02 -4.626120268E-01
 2.721833289E-01 -6.831380725E-02 -4.713228654E-01
 2.844821811E-01 -6.896080822E-02 -4.795317586E-01
 2.965625823E-01 -6.948295981E-02 -4.871763059E-01
 3.093087077E-01 -6.989651173E-02 -4.918060949E-01
 3.213045299E-01 -7.020046562E-02 -4.978236924E-01
 3.340154886E-01 -7.036415488E-02 -5.031303652E-01
 3.449530602E-01 -7.040606439E-02 -5.031921838E-01
 3.565429747E-01 -7.032387704E-02 -4.980948632E-01
 3.676170111E-01 -7.017017901E-02 -4.984620057E-01
 3.787613213E-01 -6.987406313E-02 -4.930961045E-01
 3.907936215E-01 -6.945897639E-02 -4.829567461E-01
 4.040334821E-01 -6.884853542E-02 -4.725620285E-01
 4.165873230E-01 -6.814945489E-02 -4.618144311E-01
 4.289143384E-01 -6.730545312E-02 -4.452251358E-01
 4.413043261E-01 -6.635300070E-02 -4.250021459E-01
 4.534159005E-01 -6.530731171E-02 -4.075798384E-01
 4.653364122E-01 -6.416080892E-02 -3.842482074E-01
 4.776796699E-01 -6.286335737E-02 -3.581094828E-01
 4.899528325E-01 -6.149403378E-02 -3.313307102E-01
 5.026527643E-01 -6.000334024E-02 -3.085543338E-01
 5.160997510E-01 -5.829057470E-02 -2.801930469E-01
 5.287073851E-01 -5.662871897E-02 -2.507694332E-01
 5.412033796E-01 -5.493285879E-02 -2.296534863E-01
 5.538148880E-01 -5.313091725E-02 -2.035736176E-01
 5.671760440E-01 -5.118469894E-02 -1.743902546E-01
 5.801019073E-01 -4.926123470E-02 -1.503946018E-01
 5.933750868E-01 -4.726732150E-02 -1.269380178E-01
 6.066533923E-01 -4.519931599E-02 -1.013672008E-01
 6.207417250E-01 -4.301359877E-02 -7.560868133E-02
 6.344262958E-01 -4.085718840E-02 -5.446707458E-02
 6.485611200E-01 -3.861377761E-02 -2.944168135E-02
 6.613528728E-01 -3.658535704E-02 -1.022127256E-02
 6.745238900E-01 -3.447831422E-02 1.172559097E-02
 6.868287921E-01 -3.254820779E-02 2.720739782E-02
 6.987943649E-01 -3.060723096E-02 4.715691146E-02
 7.132699490E-01 -2.832200378E-02 6.877335167E-02
 7.262089849E-01 -2.628754824E-02 8.741296377E-02
 7.377915382E-01 -2.448971197E-02 1.004896780E-01
 7.512261868E-01 -2.232280932E-02 1.249947361E-01
 7.641356587E-01 -2.039943077E-02 1.453248765E-01
 7.776893377E-01 -1.831857488E-02 1.553532406E-01
 7.898062468E-01 -1.650741324E-02 1.796310591E-01
 8.025613427E-01 -1.463883370E-02 1.954961673E-01
 8.136851192E-01 -1.306024753E-02 2.130404614E-01
 8.248559237E-01 -1.148568280E-02 2.257590104E-01
 8.371762633E-01 -9.774743579E-03 2.493497714E-01
 8.499090075E-01 -8.165827021E-03 2.635863386E-01
 8.621188998E-01 -6.648523267E-03 2.784122053E-01
 8.728357553E-01 -5.420965608E-03 2.966876859E-01
 8.837639689E-01 -4.261409864E-03 3.031021042E-01
 8.962685466E-01 -3.044232959E-03 3.224775437E-01
 9.067334533E-01 -2.167645609E-03 3.304202172E-01
 9.176730514E-01 -1.349087572E-03 3.372969444E-01
 9.281896949E-01 -7.010209374E-04 3.433351413E-01
 9.378837347E-01 -2.025324502E-04 3.538902298E-01
 9.501075745E-01 2.522291616E-04 3.464275132E-01
 9.636576772E-01 5.685713841E-04 3.684441830E-01
 9.772511125E-01 6.987518864E-04 3.560381070E-01
 9.895663857E-01 6.544632488E-04 3.094341123E-01
 -5.000000000E-01 -1.000000000E+00 2.753893160E-02
 3.500000000E+00 -1.000000000E+00 1.792170886E-02
 3.500000000E+00 1.000000000E+00 1.064444715E-03
 -5.000000000E-01 1.000000000E+00 -1.981682794E-03
 -5.000000000E-01 5.000000000E-01 3.964868685E-02
 -5.000000000E-01 2.752797990E-12 1.051557476E-01
 -5.000000000E-01 -5.000000000E-01 7.314699967E-02
 -9.421907698E-13 -1.000000000E+00 1.714020358E-02
 5.000000000E-01 -1.000000000E+00 -1.216697380E-02
 1.000000000E+00 -1.000000000E+00 8.292362296E-03
 1.500000000E+00 -1.000000000E+00 3.030091789E-02
 2.000000000E+00 -1.000000000E+00 2.878996485E-02
 2.500000000E+00 -1.000000000E+00 2.170714994E-02
 3.000000000E+00 -1.000000000E+00 1.819903473E-02
 3.500000000E+00 -5.000000000E-01 2.164779022E-02
 3.500000000E+00 -2.752797990E-12 2.136244354E-02
 3.500000000E+00 5.000000000E-01 9.478748286E-03
 3.000000000E+00 1.000000000E+00 -1.501376688E-03
 2.500000000E+00 1.000000000E+00 -7.680706603E-03
 2.000000000E+00 1.000000000E+00 -2.485740795E-02
 1.500000000E+00 1.000000000E+00 -6.418512542E-02
 1.000000000E+00 1.000000000E+00 -1.192072245E-01
 5.000000000E-01 1.000000000E+00 -1.075085870E-01
 1.733724275E-12 1.000000000E+00 -2.876439303E-02
 6.707834130E-01 -4.802807274E-02 2.368981671E-03
 7.735551890E-01 -2.876002772E-02 1.488801920E-01
 8.933679768E-01 -1.641871012E-02 3.037803680E-01
 5.725503234E-01 -6.513787248E-02 -1.623376582E-01
 6.967199798E-01 6.852103132E-02 -3.865368364E-01
 2.794307205E-01 8.341503622E-02 -5.030214017E-01
 9.123080527E-01 2.966158100E-02 -5.126050465E-02
 2.909727227E-01 -8.183812919E-02 -4.602840720E-01
 8.206616868E-01 4.758472984E-02 -2.210369214E-01
 5.934884843E-01 7.999461257E-02 -5.036920817E-01
 3.813576642E-01 8.481022130E-02 -5.420270480E-01
 3.974564712E-01 -7.999923777E-02 -4.549861642E-01
 4.955714074E-01 8.515266516E-02 -5.497113017E-01
 1.832084145E+00 -6.044591270E-01 2.989083574E-02
 1.853860346E+00 6.068161329E-01 -1.852064164E-02
 3.031181113E+00 2.156815386E-01 1.223953169E-02
 7.641286783E-01 -5.546421163E-01 6.513766315E-03
 4.712474639E-01 -7.873945162E-02 -3.501957759E-01
 3.468362619E-01 -6.931139288E-01 -3.059631338E-02
 1.248682673E-01 -6.374558650E-02 -3.013395065E-01
 1.825822978E-01 -7.391733898E-02 -3.710898685E-01
 7.541366098E-01 6.558197196E-01 -1.535959956E-01
 2.870278253E-01 6.817615533E-01 -1.309174410E-01
 1.213558839E-01 6.397914140E-02 -3.858719190E-01
 1.845871982E-01 7.363338597E-02 -4.498426189E-01
 2.734833505E+00 -5.327059123E-01 1.794829233E-02
 1.248952725E+00 6.836847365E-01 -6.127237411E-02
 9.501359432E-01 3.529400839E-01 -9.338406088E-02
 1.231489869E+00 -6.682502062E-01 3.995169176E-02
 1.521395983E+00 -2.402608009E-01 3.705431507E-02
 2.248212503E+00 -5.894890584E-01 2.087095517E-02
 1.983331831E+00 -2.205088850E-01 1.940684995E-02
 2.413153155E+00 -1.881782676E-01 1.314610425E-02
 2.184569969E+00 1.581100635E-01 7.277121421E-03
 1.819551404E+00 9.399156528E-02 9.785550693E-03
 -2.346348047E-01 -2.184727584E-01 1.367906799E-01
 -1.448626479E-01 -6.299259194E-01 2.905251924E-02
 1.689606363E-01 -3.382262063E-01 -9.674066887E-02
 -2.717233071E-01 2.375052383E-01 9.684478459E-02
 -6.690968229E-02 6.047587731E-01 -3.681925528E-02
 1.082893079E-01 3.656427203E-01 -1.205594011E-01
 6.747618380E-02 4.803050832E-02 -2.769387484E-01
 2.221257049E+00 5.742700049E-01 -4.485292280E-03
 2.743043140E+00 5.993625495E-01 3.888575722E-03
 -2.507509812E-01 7.656465741E-04 1.729651314E-01
 -1.219538318E-01 1.425148305E-01 1.461369373E-01
 -6.825124795E-02 3.235640591E-01 5.869370153E-03
 3.858382901E-03 1.835210100E-01 -1.673390292E-03
 3.375534884E-02 3.364125046E-02 -1.216390680E-01
 1.585881458E-01 2.222772938E-01 -2.356795914E-01
 2.323794710E-01 7.683098322E-02 -4.833983344E-01
 2.111539342E-01 7.390095950E-02 -4.730958313E-01
 -3.665565376E-02 9.970683675E-02 2.274173433E-01
 -1.084728308E-01 2.538452171E-02 3.214068878E-01
 3.640347328E-02 1.144403003E-01 -5.270196789E-02
 3.109352376E+00 -2.612873235E-01 1.860967179E-02
 -4.995074858E-02 4.069440513E-02 3.366610310E-01
 -6.728251364E-03 6.196053639E-02 2.358030920E-01
 9.599440164E-03 1.940181389E-02 1.291006735E-01
 1.817901041E-02 2.610015829E-02 2.440641992E-02
 3.191522740E-02 7.416477881E-02 -7.699144390E-02
 4.947615203E-02 4.047225078E-02 -2.199285975E-01
 -1.741572741E-02 2.884785737E-02 5.108250192E-01
 -2.690779752E-02 -1.541100460E-03 6.887763550E-01
 4.060103275E-03 1.534090117E-02 3.143806714E-01
 2.558221578E+00 2.070868197E-01 6.454417547E-03
 3.305932565E-03 3.969056944E-02 2.317804067E-01
 2.183448028E-02 5.315847961E-02 2.519514003E-02
 2.132183558E-02 3.915154020E-02 -4.336367979E-03
 7.050124829E-02 2.595256824E-01 -9.671016694E-02
 2.605762199E-01 3.114660155E-01 -2.578080474E-01
 3.312774827E-01 8.587866462E-02 -5.231975130E-01
 2.724583614E-01 1.994609556E-01 -3.536781207E-01
 3.626105375E-01 2.511142851E-01 -3.456531705E-01
 4.427581201E-01 8.727737441E-02 -5.472626061E-01
 4.715397941E-01 9.062405057E-02 -5.452045777E-01
 4.148272185E-01 8.883651654E-02 -5.427787238E-01
 3.572736280E-01 1.666033285E-01 -4.323318040E-01
 4.425255058E-01 1.934185651E-01 -4.209693300E-01
 5.402580388E-01 8.328330084E-02 -5.388600895E-01
 5.656203066E-01 7.983833661E-02 -5.278151487E-01
 4.618881469E-01 2.887998171E-01 -3.305316209E-01
 5.392435734E-01 2.141579212E-01 -3.825270851E-01
 5.628764291E-01 2.986592566E-01 -3.106788866E-01
 6.499057324E-01 2.332528083E-01 -3.225384860E-01
 7.580544083E-01 5.753161790E-02 -3.067792534E-01
 7.336023505E-01 6.304500825E-02 -3.408426300E-01
 7.824102539E-01 5.342111670E-02 -2.764683523E-01
 6.527364270E-01 7.770668016E-02 -4.380645169E-01
 6.245424647E-01 7.679545437E-02 -4.754912002E-01
 6.713300685E-01 6.729945282E-02 -4.225701502E-01
 6.041819890E-01 1.598317350E-01 -4.060932657E-01
 6.993640088E-01 1.633449641E-01 -3.097880794E-01
 7.367456837E-01 2.436129690E-01 -2.425062469E-01
 7.800123279E-01 1.559925840E-01 -2.335430047E-01
 8.662455862E-01 3.868433322E-02 -1.511701612E-01
 2.046157392E-01 1.619765956E-01 -3.355409782E-01
 1.242943881E-01 1.445544536E-01 -2.618665515E-01
 8.180077528E-01 2.216635791E-01 -1.801753987E-01
 8.589090861E-01 1.575373642E-01 -1.450790484E-01
 9.672381925E-01 2.239313379E-02 9.605970223E-02
 8.269681412E-01 1.124518441E-01 -1.937945584E-01
 8.808295975E-01 9.478108354E-02 -1.142643717E-01
 9.255703814E-01 1.388914025E-01 -5.637694585E-02
 9.304174720E-01 7.789088413E-02 -2.894581950E-02
 9.882541873E-01 9.963349206E-02 2.962824781E-02
 9.850492840E-01 1.671965943E-01 -1.767688055E-02
 1.063902659E+00 1.411670530E-01 3.982913997E-02
 1.051517199E+00 7.508929671E-02 9.654865660E-02
 1.129529252E+00 8.875570683E-02 8.658827857E-02
 1.112174877E+00 -4.249098879E-03 1.178600135E-01
 2.988448544E-01 1.392343474E-01 -4.345441709E-01
 3.051927060E-01 8.672207068E-02 -5.114390899E-01
 5.469022488E-01 1.481371394E-01 -4.464514608E-01
 6.753045078E-01 3.752793014E-01 -2.253582194E-01
 7.414261618E-01 1.186852696E-01 -3.012689676E-01
 6.532869311E-01 1.292510218E-01 -3.901837355E-01
 4.133516385E-01 1.416350889E-01 -4.768168355E-01
 4.626768186E-01 1.393328314E-01 -4.792749552E-01
 1.682575941E-01 1.244062053E-01 -3.454337037E-01
 8.794081591E-02 1.105517297E-01 -2.291404633E-01
 9.528918277E-02 5.687052026E-02 -3.438516562E-01
 1.293632860E-01 1.040064812E-01 -3.152740297E-01
 1.543201034E-01 6.835069121E-02 -4.239230018E-01
 3.446421160E-01 1.223596813E-01 -4.804646730E-01
 3.561197055E-01 8.558892926E-02 -5.305509770E-01
 8.412202299E-01 7.560184500E-02 -1.799129667E-01
 8.414872655E-01 4.388854682E-02 -1.883166773E-01
 4.537228381E-01 4.405577857E-01 -2.354612225E-01
 3.794448816E-01 1.216288796E-01 -4.897261671E-01
 8.972016269E-01 6.500938487E-02 -8.807561220E-02
 8.881269736E-01 3.296759460E-02 -1.043329742E-01
 5.818384698E-01 1.217055191E-01 -4.634593442E-01
 6.139783201E-01 1.140471729E-01 -4.411638005E-01
 9.493510684E-01 2.576638872E-02 4.198823278E-02
 9.633554710E-01 3.826642212E-02 6.638528208E-02
 9.843478311E-01 3.590432370E-02 1.182372399E-01
 9.380018086E-01 4.424393939E-02 1.031943566E-02
 9.824763886E-01 1.861022017E-02 1.416791277E-01
 1.004908994E+00 2.283696753E-02 1.898277160E-01
 1.043695209E+00 2.427857329E-01 -2.410060965E-02
 1.173825340E+00 1.860386568E-01 3.061083102E-02
 1.270519897E+00 5.653603677E-02 4.614527771E-02
 1.217563640E+00 -9.023908230E-02 8.351436244E-02
 1.120811308E+00 -1.310849063E-01 1.274877034E-01
 9.580154847E-01 -1.307117518E-02 3.386745792E-01
 9.268316854E-01 -9.973692476E-03 3.379390610E-01
 1.225139549E+00 -1.999192512E-01 8.406053428E-02
 1.086028229E+00 -2.607519478E-01 1.087392980E-01
 9.735044758E-01 -1.609728792E-01 1.709772134E-01
 8.338212447E-01 -2.492607347E-02 2.280968003E-01
 8.580564247E-01 -1.878067299E-02 2.621621482E-01
 1.342266388E+00 2.415288070E-01 1.601426986E-02
 9.075962371E-01 -2.702067462E-01 1.051498319E-01
 8.283087321E-01 -1.925407026E-01 1.087975244E-01
 7.273168148E-01 -3.787173379E-02 8.536113645E-02
 8.888077970E-01 -1.196395013E-01 1.891839513E-01
 1.053973571E+00 -6.840190626E-02 1.744999530E-01
 1.485305376E+00 2.098858768E-02 2.532260154E-02
 1.010211089E+00 -4.558488440E-01 6.028606431E-02
 7.511762205E-01 -3.731067575E-01 1.123695536E-02
 6.707813035E-01 -2.345598219E-01 -1.691273991E-02
 1.052459796E+00 -1.570638770E-02 1.548947717E-01
 1.016773969E+00 -4.208572575E-02 2.481378425E-01
 9.875859074E-01 -1.212713453E-02 3.971580634E-01
 8.068770688E-01 8.609446114E-02 -2.236610896E-01
 9.354905250E-01 2.529192505E-02 1.096503356E-02
 8.703702297E-01 6.562843954E-02 -1.384665890E-01
 5.530275634E-01 -5.094060294E-01 -4.513099963E-02
 9.183854941E-01 2.317591843E-01 -9.557562647E-02
 6.256370846E-02 7.904741999E-02 -1.801255013E-01
 1.020993591E-01 7.686178926E-02 -3.143807666E-01
 6.144967596E-02 5.850856907E-02 -2.216960200E-01
 1.370764231E-01 7.782771642E-02 -3.866358635E-01
 6.918597845E-01 -7.459441737E-01 -1.859826143E-02
 5.487539459E-01 1.134771992E-01 -4.945099644E-01
 5.089321652E-01 1.221131017E-01 -4.940377753E-01
 5.178310200E-01 8.469446061E-02 -5.455422787E-01
 5.000560624E-01 1.634319118E-01 -4.482663806E-01
 1.146975612E+00 3.581103281E-01 -3.294356852E-02
 1.370473866E+00 4.715781611E-01 -2.610802642E-02
 4.342253059E-01 1.186355363E-01 -5.052296001E-01
 4.112819601E-01 1.108082520E-01 -5.135421948E-01
 3.978633566E-01 9.333832811E-02 -5.313874559E-01
 7.690356767E-01 5.441528615E-02 -2.928357389E-01
 7.699797165E-01 7.017470155E-02 -2.840522672E-01
 7.843523795E-01 1.096598887E-01 -2.484103494E-01
 7.489894051E-01 7.103588138E-02 -3.133776785E-01
 7.269207118E-01 8.202388353E-02 -3.340714072E-01
 6.973720965E-01 1.068065388E-01 -3.564739241E-01
 6.670225050E-01 9.716278826E-02 -4.041464173E-01
 6.367940777E-01 9.379206590E-02 -4.408955720E-01
 6.092901095E-01 8.866206303E-02 -4.785891868E-01
 7.454494556E-01 5.786034154E-02 -3.278699424E-01
 7.948754688E-01 5.176628169E-02 -2.543015431E-01
 7.920316035E-01 6.873535941E-02 -2.542947415E-01
 6.835531384E-01 6.802668809E-02 -4.073604445E-01
 8.786520189E-01 3.468009727E-02 -1.290605426E-01
 9.127615259E-01 4.641889833E-02 -4.665659979E-02
 8.538438241E-01 4.253473219E-02 -1.703451031E-01
 5.517519504E-01 7.981634625E-02 -5.377690960E-01
 6.614530327E-01 6.968220927E-02 -4.320848765E-01
 3.463709884E-01 -4.036154347E-01 -1.107233019E-01
 2.603299382E-01 -2.517112872E-01 -1.989752351E-01
 3.514272995E-01 -8.166275753E-02 -4.778307995E-01
 2.300489767E-01 -7.939691683E-02 -4.135119022E-01
 4.279699424E-01 -2.835456907E-01 -1.651445775E-01
 9.632252267E-02 -2.120551982E-01 -8.122795686E-02
 2.190952336E-02 -3.297942980E-02 1.255291721E-01
 5.067568268E-02 -4.441966529E-02 -1.036236401E-01
 7.848078470E-02 -5.467971320E-02 -2.021870444E-01
 1.909482322E-01 -1.736293353E-01 -2.323245314E-01
 3.394651751E-01 -1.940530746E-01 -2.801020303E-01
 -1.418605126E-02 -3.361563545E-01 3.491406664E-02
 -4.042168165E-02 -1.692792515E-01 1.380664615E-01
 4.626711751E-02 -1.421766127E-01 6.883821012E-03
 5.486740066E-01 -3.026267027E-01 -1.122525720E-01
 5.432913497E-01 -1.971954584E-01 -1.446132128E-01
 5.121164594E-01 -7.142830647E-02 -2.800549993E-01
 5.360501024E-01 -6.696635403E-02 -2.348110656E-01
 6.296434385E-01 -1.498815786E-01 -5.406920238E-02
 6.306502325E-01 -5.496712536E-02 -6.130153912E-02
 4.530403316E-01 -1.676550612E-01 -2.674331198E-01
 4.363574829E-01 -8.102744222E-02 -4.077969701E-01
 3.966591218E-01 -1.486268763E-01 -3.359087366E-01
 3.403390453E-01 -1.329721790E-01 -3.767303929E-01
 2.865629523E-01 -1.693185052E-01 -2.987735342E-01
 2.388605667E-01 -1.333715776E-01 -3.379518088E-01
 2.957320417E-01 -1.217872897E-01 -3.938696235E-01
 3.150433870E-01 -8.043717543E-02 -4.724756927E-01
 2.630978046E-01 -1.009728878E-01 -4.041670336E-01
 2.538230540E-01 -8.130973740E-02 -4.322520727E-01
 3.723439350E-01 -1.117177975E-01 -4.126070658E-01
 3.735297422E-01 -8.162941117E-02 -4.694721185E-01
 4.091756467E-01 -1.087569257E-01 -3.897267328E-01
 4.519214650E-01 -1.211224368E-01 -3.264949138E-01
 4.194578412E-01 -9.063167276E-02 -4.124734784E-01
 5.019113515E-01 -1.432002048E-01 -2.265947246E-01
 5.664226144E-01 -1.272698583E-01 -1.511388916E-01
 5.273332800E-01 -1.032493117E-01 -2.308743810E-01
 4.906415574E-01 -1.074258377E-01 -2.834346793E-01
 5.557462657E-01 -9.393287754E-02 -1.858591127E-01
 6.088332787E-01 -1.019009619E-01 -9.716231999E-02
 6.019344039E-01 -5.966522269E-02 -1.097569382E-01
 6.480513094E-01 -9.716586080E-02 -3.682775769E-02
 6.829712830E-01 -1.438455602E-01 7.320206497E-04
 6.911400417E-01 -8.724032474E-02 2.125605593E-02
 6.938814788E-01 -4.362571180E-02 3.669752122E-02
 7.323860667E-01 -1.182430766E-01 5.923841993E-02
 7.299910194E-01 -7.713656187E-02 7.460150631E-02
 7.728308843E-01 -9.465618228E-02 1.126927090E-01
 7.458681452E-01 -3.952157623E-02 1.091995909E-01
 7.095641295E-01 -4.215651065E-02 5.904987998E-02
 7.050178515E-01 -6.061256635E-02 4.656247508E-02
 7.422899577E-01 -1.839241344E-01 4.727256861E-02
 4.971522950E-01 -7.356509128E-02 -3.070775336E-01
 5.069301188E-01 -8.718992591E-02 -2.717617597E-01
 6.430067559E-01 -4.997991204E-02 -3.991904768E-02
 7.707734356E-01 -2.580546129E-01 5.244380024E-02
 7.615095847E-01 -5.797186350E-02 1.217102917E-01
 7.992117772E-01 -6.680283545E-02 1.592969415E-01
 8.082797911E-01 -2.360786242E-02 1.969085422E-01
 8.187940790E-01 -1.029706559E-01 1.558721449E-01
 8.555848704E-01 -7.070228077E-02 2.130926558E-01
 8.973128918E-01 -6.023036145E-02 2.520580873E-01
 8.741143190E-01 -4.552176883E-02 2.479931395E-01
 7.983137657E-01 -2.529548742E-02 1.846548965E-01
 7.853699970E-01 -2.826575669E-02 1.675269389E-01
 7.811405087E-01 -4.375908945E-02 1.540811149E-01
 6.847912176E-01 -5.845239830E-02 2.092386237E-02
 6.660270188E-01 -6.772468757E-02 -1.063266228E-02
 6.148336179E-01 -5.909206390E-02 -8.853415037E-02
 6.252473642E-01 -7.672017379E-02 -7.029676377E-02
 5.246729719E-01 -7.985982604E-02 -2.429464009E-01
 5.572527869E-01 -7.403718735E-02 -1.843323528E-01
 7.629058789E-01 -3.545579950E-02 1.315848061E-01
 7.785495749E-01 -1.435351841E-01 1.033034255E-01
 2.684011633E-01 -8.247330589E-02 -4.438272507E-01
 2.407951005E-01 -9.468277477E-02 -3.963060048E-01
 2.165522778E-01 -9.622454886E-02 -3.708008652E-01
 2.059052519E-01 -7.696440522E-02 -3.924329146E-01
 1.923588714E-01 -9.309310905E-02 -3.517699592E-01
 1.690833806E-01 -8.936825601E-02 -3.239774863E-01
 1.460663606E-01 -6.663144597E-02 -3.298600555E-01
 1.996695739E-01 -1.316353213E-01 -2.973433048E-01
 1.460824504E-01 -1.475653604E-01 -1.957667241E-01
 1.356839371E-01 -1.052276776E-01 -2.444128776E-01
 1.595853436E-01 -6.999997081E-02 -3.442637478E-01
 1.498554137E-01 -8.116714299E-02 -3.123575588E-01
 2.180640918E-01 -7.621377963E-02 -4.061984595E-01
 2.796779619E-01 -7.990767471E-02 -4.567344374E-01
 2.422144441E-01 -7.761798786E-02 -4.298348274E-01
 6.821617583E-01 -4.342654097E-02 1.943986896E-02
 8.085861942E-01 4.809419050E-02 -2.374124347E-01
 1.944469645E-01 -7.352872639E-02 -3.842556091E-01
 6.370642739E-01 7.478879907E-02 -4.622477183E-01
 4.224469451E-01 -7.730387348E-02 -4.338213255E-01
 4.800165546E-01 1.135961600E-01 -5.150366243E-01
 4.101631041E-01 -7.939402675E-02 -4.437335477E-01
 3.678595956E-01 1.003212369E-01 -5.156250402E-01
 3.850044874E-01 -9.465467769E-02 -4.350277955E-01
 5.079170402E-01 9.554122788E-02 -5.320367208E-01
 5.287350917E-01 9.668347703E-02 -5.241988648E-01
 8.269866443E-01 -4.867904644E-02 2.032041151E-01
 4.293421402E-01 8.494394974E-02 -5.504236298E-01
 5.235293339E-01 -6.663475604E-02 -2.587070614E-01
 1.338554835E-01 -7.621361729E-02 -2.972928449E-01
 1.144777633E-01 -7.746871716E-02 -2.585998796E-01
 1.027097700E-01 -6.088086710E-02 -2.609472055E-01
 8.643241123E-02 -6.996234445E-02 -1.951631374E-01
 1.143079123E-01 -6.040431732E-02 -2.884829585E-01
 8.190828037E-01 -2.742833679E-02 2.085770046E-01
 8.488121212E-01 -3.730264041E-02 2.387115566E-01
 8.754022430E-01 -2.518916205E-02 2.724388493E-01
 8.948271290E-01 -3.380023085E-02 2.806811164E-01
 9.056569546E-01 -2.026023252E-02 3.023479954E-01
 9.240103093E-01 -3.002300975E-02 3.002686319E-01
 9.376049956E-01 -8.049638757E-02 2.441824249E-01
 9.410317152E-01 -1.674415744E-02 3.300302899E-01
 9.574591879E-01 -3.927614108E-02 3.035223687E-01
 9.898311339E-01 -7.703007407E-02 2.393064508E-01
 1.571282373E-01 8.890561021E-02 -3.904002898E-01
 1.825387359E-01 9.590809690E-02 -4.109580198E-01
 2.146288862E-01 1.155543493E-01 -4.139292795E-01
 2.521411937E-01 1.507283314E-01 -4.016516019E-01
 2.598325223E-01 1.179146843E-01 -4.443584025E-01
 2.526415486E-01 8.040789368E-02 -4.935040329E-01
 2.886389367E-01 1.013596022E-01 -4.792109048E-01
 3.192067749E-01 1.024131598E-01 -4.971851919E-01
 7.219181461E-01 6.271195245E-02 -3.541393136E-01
 7.114079789E-01 6.743480106E-02 -3.659790104E-01
 7.042433625E-01 8.192853010E-02 -3.668529214E-01
 2.833286440E-01 -9.375129300E-02 -4.317697019E-01
 3.024722793E-01 -9.476108852E-02 -4.414044835E-01
 3.217846463E-01 -1.022648878E-01 -4.327172978E-01
 3.312506673E-01 -8.805981221E-02 -4.658771557E-01
 1.701990464E+00 -1.238757861E-01 2.814401464E-02
 1.358054101E+00 -1.537872357E-01 5.536588813E-02
 1.296268014E+00 -3.515020935E-01 6.314922651E-02
 9.744976485E-01 6.170706239E-02 5.045041420E-02
 5.916273729E-01 9.652371818E-02 -4.847729392E-01
 4.535929777E-01 1.049343215E-01 -5.241920740E-01
 3.650517690E-01 -9.090092309E-02 -4.532197253E-01
 1.514056471E+00 -5.042996740E-01 3.683767345E-02
 6.709133537E-01 7.858342102E-02 -4.139774923E-01
 8.038383639E-01 -3.915403239E-02 1.817493336E-01
 5.798304055E-01 8.138469176E-02 -5.149354362E-01
 8.485157765E-01 5.839577974E-02 -1.716020247E-01
 9.628660404E-01 -7.013775087E-01 2.488794530E-02
 8.450878980E-01 -1.970708056E-02 2.475421606E-01
 2.663064870E-01 9.394779363E-02 -4.814670971E-01
 1.046242173E+00 2.440431272E-02 1.505902696E-01
 1.615842776E+00 3.582374626E-01 -4.040432479E-03
 6.450023568E-01 -6.721825806E-02 -3.822034410E-02
 2.924227517E-01 8.134267514E-02 -5.117993414E-01
 4.839736536E-01 8.420001539E-02 -5.530274495E-01
 4.402465025E-01 -9.822499596E-02 -3.761411475E-01
 4.549442885E-01 -8.620820375E-02 -3.704914987E-01
 1.068135025E-01 6.292515842E-02 -3.616649166E-01
 4.867874138E-01 -8.693478166E-02 -3.109180803E-01
 -1.416716471E-01 -9.228621634E-02 1.887350086E-01
 -4.676006905E-02 -5.931422515E-02 4.077091899E-01
 8.892464355E-03 -2.060340587E-02 2.672733529E-01
 5.399016325E-03 -9.459636594E-02 1.271460758E-01
 5.437633457E-02 -8.831885624E-02 -3.834422715E-02
 5.934203251E-02 -6.111420758E-02 -1.212233302E-01
 9.886824727E-01 -3.618784055E-02 2.534133319E-01
 -1.735542381E-03 -4.950659485E-02 2.986159883E-01
 -5.583004141E-03 -1.718635903E-02 5.346314167E-01
 1.836832656E-01 -2.443955138E-01 -1.796134779E-01
 9.220272264E-02 -1.047638296E-01 -1.535180535E-01
 5.692416011E-01 9.814689622E-02 -5.005117455E-01
 9.893967017E-01 5.786911088E-01 -9.453136566E-02
 8.300456979E-01 4.574776648E-01 -1.373250745E-01
 6.557889229E-01 -5.135834418E-02 -2.025652462E-02
 8.332127347E-01 5.488685380E-02 -1.976792074E-01
 1.711950013E-01 -7.025639656E-02 -3.637452786E-01