TITLE     = "Visualization of the solution"
VARIABLES = "x"
"y"
"Pressure_Coefficient"
ZONE T="Zone"
 STRANDID=0, SOLUTIONTIME=0
 Nodes=697, Elements=1179, ZONETYPE=FEQuadrilateral
 DATAPACKING=POINT
 DT=(DOUBLE DOUBLE DOUBLE )
 9.998738766E-01 5.107899196E-04 1.995661137E-01
 9.853997827E-01 3.393509192E-03 2.546899167E-01
 9.718272686E-01 6.109978072E-03 9.731783430E-02
 9.549801946E-01 9.491335601E-03 8.511451814E-02
 9.407572746E-01 1.243855339E-02 1.204808557E-02
 9.271717668E-01 1.509342622E-02 -1.060659184E-03
 9.154970646E-01 1.737499610E-02 -2.936459797E-02
 9.039870501E-01 1.964864694E-02 -6.145888906E-02
 8.923594952E-01 2.195273340E-02 -9.228611467E-02
 8.805378675E-01 2.421581373E-02 -1.247478627E-01
 8.686202168E-01 2.645163983E-02 -1.433681002E-01
 8.561870456E-01 2.866309136E-02 -1.573495481E-01
 8.444463611E-01 3.074270301E-02 -1.812869097E-01
 8.335099816E-01 3.265801072E-02 -1.989509440E-01
 8.220518827E-01 3.458733112E-02 -2.096368662E-01
 8.099329472E-01 3.658658639E-02 -2.308426326E-01
 7.978752255E-01 3.858097643E-02 -2.525671516E-01
 7.855376005E-01 4.050830007E-02 -2.613190504E-01
 7.730967402E-01 4.239999130E-02 -2.748691845E-01
 7.617119551E-01 4.414238781E-02 -2.955605521E-01
 7.488725185E-01 4.604651406E-02 -3.097136121E-01
 7.358005643E-01 4.791169986E-02 -3.248094130E-01
 7.248994112E-01 4.945043474E-02 -3.434057354E-01
 7.135201693E-01 5.101175979E-02 -3.600202804E-01
 7.017713785E-01 5.256372318E-02 -3.720420872E-01
 6.888611317E-01 5.420055613E-02 -3.868659155E-01
 6.761977673E-01 5.577138811E-02 -4.014437957E-01
 6.649489403E-01 5.709998682E-02 -4.192992987E-01
 6.531182528E-01 5.847422034E-02 -4.374000977E-01
 6.415141821E-01 5.972801894E-02 -4.452402697E-01
 6.295750141E-01 6.094918773E-02 -4.596988643E-01
 6.177873015E-01 6.212289259E-02 -4.717592949E-01
 6.071088314E-01 6.309931725E-02 -4.815174077E-01
 5.954516530E-01 6.413435936E-02 -4.950510496E-01
 5.837572217E-01 6.509400159E-02 -5.009997939E-01
 5.702368617E-01 6.610240042E-02 -5.120200312E-01
 5.577785969E-01 6.697446108E-02 -5.202244250E-01
 5.452364683E-01 6.774587184E-02 -5.305475547E-01
 5.339693427E-01 6.839767843E-02 -5.366998528E-01
 5.217404366E-01 6.899486482E-02 -5.389180990E-01
 5.095447898E-01 6.952576339E-02 -5.398715459E-01
 4.985376000E-01 6.992658228E-02 -5.434494272E-01
 4.859010577E-01 7.034703344E-02 -5.450631756E-01
 4.730099440E-01 7.064389437E-02 -5.418823951E-01
 4.599497318E-01 7.090108097E-02 -5.470939730E-01
 4.470772743E-01 7.107648998E-02 -5.459099945E-01
 4.345489442E-01 7.115349174E-02 -5.459414019E-01
 4.217680395E-01 7.116083056E-02 -5.442768701E-01
 4.093262851E-01 7.108315080E-02 -5.376537319E-01
 3.964251578E-01 7.093082368E-02 -5.367468942E-01
 3.842365742E-01 7.073799521E-02 -5.359800803E-01
 3.723145425E-01 7.046816498E-02 -5.328692455E-01
 3.592375517E-01 7.009526342E-02 -5.297568142E-01
 3.464947939E-01 6.964943558E-02 -5.212039842E-01
 3.336223960E-01 6.912736595E-02 -5.208607155E-01
 3.227507174E-01 6.864471734E-02 -5.174367032E-01
 3.104584217E-01 6.800568849E-02 -5.110252132E-01
 2.978016734E-01 6.728560477E-02 -5.081414631E-01
 2.841943800E-01 6.642879546E-02 -5.048737916E-01
 2.719326317E-01 6.556466967E-02 -4.985175199E-01
 2.601565123E-01 6.465989351E-02 -4.911893618E-01
 2.476918846E-01 6.362584978E-02 -4.854477646E-01
 2.352731675E-01 6.251897663E-02 -4.803313890E-01
 2.229053676E-01 6.132402644E-02 -4.735231633E-01
 2.109532505E-01 6.007803231E-02 -4.642408019E-01
 1.987857223E-01 5.871713534E-02 -4.557527218E-01
 1.865829080E-01 5.727237836E-02 -4.491113762E-01
 1.746153682E-01 5.575368181E-02 -4.423240515E-01
 1.626550406E-01 5.413538590E-02 -4.372795285E-01
 1.507538557E-01 5.241235346E-02 -4.229328649E-01
 1.395254135E-01 5.066782981E-02 -4.103880767E-01
 1.279240698E-01 4.876232892E-02 -4.008578022E-01
 1.167986393E-01 4.681793600E-02 -3.865169466E-01
 1.058257893E-01 4.476142675E-02 -3.730031608E-01
 9.554263204E-02 4.270850867E-02 -3.586109222E-01
 8.467512578E-02 4.038187489E-02 -3.412251443E-01
 7.369977236E-02 3.785284236E-02 -3.246285520E-01
 6.387061626E-02 3.539695591E-02 -3.058321716E-01
 5.460510030E-02 3.290266544E-02 -2.840133671E-01
 4.592426866E-02 3.035367280E-02 -2.635647417E-01
 3.837271780E-02 2.793357708E-02 -2.332100509E-01
 3.166533262E-02 2.558045834E-02 -2.070570976E-01
 2.587978169E-02 2.336427569E-02 -1.656657201E-01
 2.159334533E-02 2.157630958E-02 -1.413711498E-01
 1.755953021E-02 1.973888651E-02 -1.153133784E-01
 1.427506935E-02 1.810311899E-02 -7.908177416E-02
 1.135377306E-02 1.651126333E-02 -4.194078212E-02
 9.243216366E-03 1.524058171E-02 -7.757689310E-03
 7.336246315E-03 1.399983745E-02 -5.005719841E-03
 5.542948842E-03 1.270237286E-02 1.996946062E-01
 3.259598743E-03 1.080736797E-02 1.323992046E-01
 1.439304790E-03 8.957715705E-03 2.190327948E-01
 5.505638455E-06 7.108687423E-03 4.196262188E-01
 -1.332720509E-03 4.543578252E-03 7.419963533E-01
 -1.876475289E-03 2.539038658E-03 5.876915776E-01
 -2.007171046E-03 8.824294200E-04 1.297525843E+00
 -1.826803084E-03 -9.863482555E-04 1.687842411E+00
 -1.271407702E-03 -2.996391617E-03 1.107673066E+00
 -1.757120335E-04 -5.341043230E-03 1.212280356E+00
 1.461673412E-03 -7.794355508E-03 8.630154895E-01
 3.577246331E-03 -1.024992019E-02 5.509581246E-01
 5.540987011E-03 -1.216423791E-02 5.029584592E-01
 7.785582449E-03 -1.407096535E-02 4.560634973E-01
 9.625932202E-03 -1.548106875E-02 3.386188527E-01
 1.181993261E-02 -1.702111587E-02 2.749587214E-01
 1.429997291E-02 -1.862168871E-02 1.660496035E-01
 1.757756434E-02 -2.055049129E-02 1.221116721E-01
 2.072165720E-02 -2.224727161E-02 5.458846419E-02
 2.460945025E-02 -2.417186089E-02 1.757549204E-02
 2.973370440E-02 -2.648822218E-02 -4.167676768E-02
 3.523428738E-02 -2.874181420E-02 -9.636646204E-02
 4.175835103E-02 -3.116854839E-02 -1.460381502E-01
 4.916633666E-02 -3.366052732E-02 -1.787202592E-01
 5.792159215E-02 -3.634183481E-02 -2.025260335E-01
 6.669463962E-02 -3.877770156E-02 -2.408140327E-01
 7.677596807E-02 -4.133990034E-02 -2.549556461E-01
 8.652776480E-02 -4.362447187E-02 -2.824095323E-01
 9.718970954E-02 -4.592027143E-02 -2.972940138E-01
 1.084252968E-01 -4.815337434E-02 -3.128957266E-01
 1.200070605E-01 -5.029488727E-02 -3.249725721E-01
 1.318731904E-01 -5.232785270E-02 -3.394818633E-01
 1.427313834E-01 -5.405417085E-02 -3.508482073E-01
 1.542716175E-01 -5.578020960E-02 -3.617783755E-01
 1.664097309E-01 -5.746338889E-02 -3.738189420E-01
 1.780450493E-01 -5.896737799E-02 -3.877751431E-01
 1.900677979E-01 -6.041473895E-02 -4.003200290E-01
 2.011423707E-01 -6.165966019E-02 -4.106216040E-01
 2.128425241E-01 -6.286396086E-02 -4.205866613E-01
 2.251166850E-01 -6.402482092E-02 -4.317454288E-01
 2.372196764E-01 -6.507506967E-02 -4.454205781E-01
 2.490759492E-01 -6.598473340E-02 -4.549590173E-01
 2.612461448E-01 -6.682825089E-02 -4.626131685E-01
 2.725235820E-01 -6.751494110E-02 -4.729897212E-01
 2.849887609E-01 -6.817349046E-02 -4.817343622E-01
 2.970464528E-01 -6.869709492E-02 -4.914898853E-01
 3.097347915E-01 -6.911811978E-02 -4.971565674E-01
 3.217219710E-01 -6.940906495E-02 -5.054503697E-01
 3.341728747E-01 -6.956800818E-02 -5.052196916E-01
 3.449383378E-01 -6.961935014E-02 -5.062558361E-01
 3.566081226E-01 -6.956631690E-02 -5.074148141E-01
 3.676597774E-01 -6.940808147E-02 -5.062378674E-01
 3.788622916E-01 -6.914688647E-02 -5.024210904E-01
 3.909455836E-01 -6.874291599E-02 -4.968104147E-01
 4.039150476E-01 -6.815639883E-02 -4.846576150E-01
 4.162265956E-01 -6.745701283E-02 -4.712952183E-01
 4.287849069E-01 -6.663192809E-02 -4.559664341E-01
 4.409132898E-01 -6.569252163E-02 -4.392074640E-01
 4.529944956E-01 -6.463790685E-02 -4.148099420E-01
 4.649393559E-01 -6.351302564E-02 -3.907266155E-01
 4.771014750E-01 -6.224475056E-02 -3.677290170E-01
 4.893030822E-01 -6.088566408E-02 -3.402005734E-01
 5.014955997E-01 -5.946533382E-02 -3.179507488E-01
 5.146663189E-01 -5.780569836E-02 -2.912549796E-01
 5.271876454E-01 -5.615823716E-02 -2.616331362E-01
 5.392208099E-01 -5.448642746E-02 -2.317063081E-01
 5.520308614E-01 -5.272019282E-02 -2.075567847E-01
 5.650169253E-01 -5.081222579E-02 -1.847102174E-01
 5.778753757E-01 -4.890733212E-02 -1.534551618E-01
 5.910117030E-01 -4.693115875E-02 -1.308015552E-01
 6.040221453E-01 -4.493405670E-02 -1.084300221E-01
 6.174255610E-01 -4.284036160E-02 -8.122640176E-02
 6.310049295E-01 -4.073093832E-02 -6.020876502E-02
 6.447837353E-01 -3.853822127E-02 -3.556500932E-02
 6.573880911E-01 -3.654894605E-02 -1.237624813E-02
 6.707203388E-01 -3.445508331E-02 4.816825448E-03
 6.831624508E-01 -3.249236941E-02 2.290238115E-02
 6.954985261E-01 -3.052214719E-02 4.345504591E-02
 7.098275423E-01 -2.824988216E-02 6.679950360E-02
 7.228302956E-01 -2.623280138E-02 8.347908496E-02
 7.343676686E-01 -2.442018315E-02 9.946923265E-02
 7.480200529E-01 -2.229457907E-02 1.234999335E-01
 7.610067129E-01 -2.034084685E-02 1.396220177E-01
 7.745667696E-01 -1.827894151E-02 1.587026796E-01
 7.871919274E-01 -1.644431241E-02 1.779383919E-01
 8.001238108E-01 -1.456905436E-02 1.911404992E-01
 8.110863566E-01 -1.297683362E-02 2.134657116E-01
 8.222907186E-01 -1.141288225E-02 2.345545196E-01
 8.350894451E-01 -9.736323729E-03 2.470306010E-01
 8.474679589E-01 -8.139929734E-03 2.644878105E-01
 8.600319624E-01 -6.634893361E-03 2.827683969E-01
 8.705272079E-01 -5.414314568E-03 2.988481599E-01
 8.818381429E-01 -4.246073309E-03 3.120261996E-01
 8.940989971E-01 -3.041341901E-03 3.256206699E-01
 9.045347571E-01 -2.168103820E-03 3.398185946E-01
 9.159792066E-01 -1.341466792E-03 3.454152399E-01
 9.269778132E-01 -6.737565855E-04 3.547998432E-01
 9.375007749E-01 -1.653337677E-04 3.555979274E-01
 9.498628974E-01 2.906741283E-04 3.660571728E-01
 9.637422562E-01 5.961148418E-04 3.616112103E-01
 9.770146608E-01 7.126636920E-04 3.885077651E-01
 9.890351295E-01 6.648221752E-04 4.142603957E-01
 -5.000000000E-01 -1.000000000E+00 2.542498978E-02
 3.500000000E+00 -1.000000000E+00 1.757077193E-02
 3.500000000E+00 1.000000000E+00 1.530828035E-03
 -5.000000000E-01 1.000000000E+00 -1.697840378E-03
 -5.000000000E-01 5.000000000E-01 3.738332645E-02
 -5.000000000E-01 2.752797990E-12 1.067318897E-01
 -5.000000000E-01 -5.000000000E-01 6.331695015E-02
 -9.421907698E-13 -1.000000000E+00 1.754067295E-02
 5.000000000E-01 -1.000000000E+00 -1.362300586E-02
 1.000000000E+00 -1.000000000E+00 4.074933809E-03
 1.500000000E+00 -1.000000000E+00 2.928331438E-02
 2.000000000E+00 -1.000000000E+00 2.806955279E-02
 2.500000000E+00 -1.000000000E+00 2.111308630E-02
 3.000000000E+00 -1.000000000E+00 1.781214733E-02
 3.500000000E+00 -5.000000000E-01 2.071768305E-02
 3.500000000E+00 -2.752797990E-12 2.047686211E-02
 3.500000000E+00 5.000000000E-01 9.606965826E-03
 3.000000000E+00 1.000000000E+00 -1.238148453E-03
 2.500000000E+00 1.000000000E+00 -7.822023450E-03
 2.000000000E+00 1.000000000E+00 -2.401171073E-02
 1.500000000E+00 1.000000000E+00 -5.974277457E-02
 1.000000000E+00 1.000000000E+00 -1.147891042E-01
 5.000000000E-01 1.000000000E+00 -1.046954458E-01
 1.733724275E-12 1.000000000E+00 -2.969178318E-02
 6.788783710E-01 -4.593300000E-02 1.337473624E-02
 7.848853140E-01 -3.056031689E-02 1.643956997E-01
 9.109853386E-01 -1.150098663E-02 3.281992792E-01
 5.862325762E-01 -6.230408508E-02 -1.371487258E-01
 6.841188995E-01 6.871455354E-02 -3.826196382E-01
 2.830911688E-01 7.868438051E-02 -4.851184670E-01
 9.103473347E-01 2.761125813E-02 -4.526513301E-02
 2.894350916E-01 -8.036962264E-02 -4.609852655E-01
 7.819901569E-01 5.056070432E-02 -2.609389897E-01
 5.847356151E-01 7.737939259E-02 -4.851292612E-01
 3.906705836E-01 7.999197235E-02 -5.248304825E-01
 4.792581893E-01 8.755760951E-02 -5.215328890E-01
 4.478623417E-01 -7.557200891E-02 -4.027674810E-01
 1.832453721E+00 -6.052530988E-01 2.794309210E-02
 1.766063251E+00 5.599975996E-01 -1.353769172E-02
 3.031175016E+00 2.156843762E-01 1.185844784E-02
 7.309532518E-01 -6.503959239E-01 -4.477356578E-03
 2.863268135E-01 -6.890244131E-01 -3.880583553E-02
 1.239897836E-01 -6.113017286E-02 -3.057905578E-01
 1.828724615E-01 -6.952584015E-02 -3.733968930E-01
 3.740112559E-01 -8.168405844E-02 -4.719253919E-01
 7.338300978E-01 5.423756472E-01 -1.594998460E-01
 2.888788503E-01 6.441730070E-01 -1.222715304E-01
 1.202422880E-01 5.767589617E-02 -3.651514274E-01
 1.752972444E-01 6.652025351E-02 -4.260085806E-01
 2.734848505E+00 -5.326908893E-01 1.714107557E-02
 1.166259085E+00 6.153351381E-01 -6.583633926E-02
 9.867725118E-01 3.445546221E-01 -5.879562934E-02
 8.388333508E-01 4.405850229E-02 -1.837318459E-01
 1.269896591E+00 -6.159049997E-01 4.141096463E-02
 1.500660904E+00 -2.507644843E-01 3.780052789E-02
 2.248287248E+00 -5.896008527E-01 1.991163323E-02
 1.982063684E+00 -2.214659485E-01 1.973024334E-02
 2.412970357E+00 -1.883230394E-01 1.300044094E-02
 2.184620526E+00 1.582297330E-01 6.771601749E-03
 1.783714686E+00 1.340770745E-01 6.914044295E-03
 -2.711962443E-01 -2.368197765E-01 1.235793310E-01
 -6.849991761E-02 -6.053864917E-01 1.494696358E-02
 1.066645172E-01 -3.653097999E-01 -4.219273587E-02
 -2.740531903E-01 2.320724699E-01 9.585730588E-02
 -1.076964553E-01 6.244831451E-01 -2.382006815E-02
 2.434355163E-02 3.302077229E-01 -5.192399891E-02
 4.530983007E-02 4.005046930E-02 -2.164382327E-01
 2.191365341E+00 6.008400346E-01 -4.663686939E-03
 2.738058435E+00 6.037920928E-01 3.909937505E-03
 -2.354678171E-01 -4.459745502E-03 1.690918084E-01
 -1.286154079E-01 1.268309969E-01 1.558862266E-01
 -1.099287886E-01 -1.272761853E-01 1.941012346E-01
 6.969587329E-02 -4.808322489E-02 -1.996062102E-01
 4.364105259E-02 -4.095732788E-02 -1.066289726E-01
 -6.704485122E-02 -3.206697728E-01 5.078325734E-02
 -4.414552370E-03 -1.820407957E-01 7.132167499E-02
 1.603400845E-01 -2.266748465E-01 -1.501227524E-01
 2.422234735E-01 -7.769026880E-02 -4.265988489E-01
 2.662060607E-01 -7.921214360E-02 -4.447442351E-01
 2.152728755E-01 -7.622814612E-02 -3.991313205E-01
 -3.043753610E-02 -9.728909882E-02 2.400990077E-01
 2.054824008E-02 -2.900231521E-02 1.000688580E-01
 -1.098757102E-01 -2.327663592E-02 3.181777646E-01
 -7.138748838E-02 5.551259403E-02 3.071192971E-01
 2.236574611E-02 2.748121159E-02 -1.140750622E-01
 3.453946930E-02 -1.107603710E-01 4.395069598E-02
 3.109360774E+00 -2.612741563E-01 1.791258014E-02
 -5.100616265E-02 -3.889372308E-02 3.723704302E-01
 -5.164180992E-02 1.170462051E-02 5.192852103E-01
 -2.489147263E-02 4.933857983E-02 3.266092625E-01
 -3.720286211E-02 1.019314342E-01 1.704407403E-01
 3.077171557E-02 1.127446458E-01 -2.161365594E-02
 8.959954554E-02 5.475102142E-02 -3.114900718E-01
 -3.016301488E-04 1.886591688E-01 1.330381315E-02
 8.291746790E-02 1.411198432E-01 -1.553790851E-01
 1.923664638E-01 2.925016042E-01 -2.098586853E-01
 2.260516398E-01 7.309934992E-02 -4.573337360E-01
 1.919614638E-01 1.806918878E-01 -2.883402733E-01
 3.276589877E-01 8.212964830E-02 -5.005436364E-01
 3.524800746E-01 8.090790147E-02 -5.101908481E-01
 3.022439226E-01 8.172228939E-02 -4.898225440E-01
 1.426381557E-01 4.569005821E-01 -1.050848538E-01
 -1.170179592E-01 2.658850446E-01 4.584215955E-02
 7.471948876E-02 9.699515140E-02 -1.892525549E-01
 1.424467241E-01 1.366256004E-01 -2.803297718E-01
 3.029760172E-01 4.058172508E-01 -2.181573151E-01
 3.023379669E-01 2.878230253E-01 -2.879216675E-01
 4.209018120E-01 2.972281487E-01 -3.070761814E-01
 2.921848546E-01 1.631326185E-01 -3.868462701E-01
 3.982911427E-01 2.004830848E-01 -3.920077099E-01
 4.393384134E-01 8.458354838E-02 -5.270060920E-01
 4.167352262E-01 8.507169949E-02 -5.227253611E-01
 5.180091180E-01 2.244938253E-01 -3.614674292E-01
 5.431359326E-01 7.921208877E-02 -5.115340950E-01
 5.120034017E-01 7.959382589E-02 -5.249070022E-01
 5.689497622E-01 7.861640639E-02 -4.966984682E-01
 5.511594510E-01 3.411040957E-01 -2.665167241E-01
 6.298059369E-01 2.348362494E-01 -3.083784378E-01
 6.364480530E-01 7.518666221E-02 -4.362816504E-01
 3.493969385E-01 1.576575969E-01 -4.148913168E-01
 5.747206308E-01 1.674535902E-01 -3.911237227E-01
 6.673571963E-01 1.637251161E-01 -3.273629247E-01
 7.319114668E-01 6.224102070E-02 -3.241442463E-01
 7.085280009E-01 6.562366511E-02 -3.531443682E-01
 7.188656775E-01 2.227554598E-01 -2.515208857E-01
 7.506730316E-01 1.522284995E-01 -2.566601668E-01
 8.074832163E-01 1.960040204E-01 -1.855475070E-01
 8.340323833E-01 1.322677484E-01 -1.693616286E-01
 8.764666005E-01 3.667487022E-02 -1.225470239E-01
 6.817486967E-01 3.548820915E-01 -2.190186510E-01
 4.752937244E-01 1.550242021E-01 -4.379710379E-01
 8.859026335E-01 1.982339629E-01 -1.055187712E-01
 9.645343301E-01 2.196223818E-02 7.320562387E-02
 9.226855779E-01 1.232199960E-01 -5.630316164E-02
 9.920858010E-01 1.960277490E-01 -2.879502988E-02
 1.117400393E+00 2.353666332E-01 2.691580959E-03
 9.976329909E-01 1.110329654E-01 3.095118929E-02
 6.221756374E-01 1.289697947E-01 -3.971885750E-01
 8.703356275E-01 9.056309122E-02 -1.225701898E-01
 7.040127206E-01 1.158011672E-01 -3.235825596E-01
 9.535136795E-01 7.309907865E-02 1.248039831E-02
 9.370981904E-01 2.845692536E-02 1.254132824E-02
 7.844545159E-01 1.127141066E-01 -2.329335568E-01
 1.003470144E+00 5.865386654E-02 9.822232391E-02
 1.057184748E+00 7.518119888E-02 9.494499653E-02
 4.519156390E-01 4.714094987E-01 -2.153078269E-01
 9.829093563E-01 1.659575170E-02 2.041710106E-01
 8.389540098E-01 3.064943603E-01 -1.604220719E-01
 9.779171788E-01 3.799591241E-02 9.414104349E-02
 9.518252798E-01 4.013263819E-02 3.416624377E-02
 9.297916949E-01 4.724054046E-02 -1.494074679E-02
 1.333101044E-02 -7.096336913E-02 1.509455867E-01
 -1.121290066E-02 -4.148838399E-02 4.446830448E-01
 9.498390539E-01 2.249633814E-02 5.031194364E-02
 1.145645845E-01 9.642321874E-02 -2.832134470E-01
 1.456345777E-01 6.159956895E-02 -3.970299828E-01
 8.281944729E-03 7.119729458E-02 6.879963920E-02
 -3.015545516E-02 -1.538007273E-02 6.358118407E-01
 8.994232572E-01 3.171267927E-02 -7.291439822E-02
 9.214528778E-01 2.996434852E-02 -2.467696283E-02
 4.425140600E-02 7.495206777E-02 -1.118202226E-01
 6.603447320E-02 4.740516965E-02 -2.680277044E-01
 2.870003512E-02 4.849995661E-02 -7.601996945E-02
 5.484480836E-03 4.449011735E-02 1.817950782E-01
 7.113641787E-03 1.650350746E-02 1.103259192E-01
 9.974717731E-03 3.046564185E-02 1.201192897E-01
 -8.988838993E-03 3.000796011E-02 2.931781235E-01
 1.217155020E-03 1.128757894E-02 2.109738676E-01
 1.106671837E-02 1.900622367E-02 -1.897072487E-02
 6.349266092E-03 2.159068730E-02 2.194854426E-01
 -1.824576731E-02 1.026827036E-02 7.561513284E-01
 1.474062760E-02 2.256601135E-02 -5.255139033E-02
 9.089566146E-01 4.358526019E-02 -5.470148892E-02
 9.063161442E-01 6.948919173E-02 -6.516146540E-02
 8.912325159E-01 4.615851501E-02 -9.203596645E-02
 8.734082191E-01 5.940777248E-02 -1.224308044E-01
 8.366356616E-01 8.390797800E-02 -1.730543951E-01
 8.056042128E-01 5.333512341E-02 -2.305047958E-01
 8.050331110E-01 7.902850815E-02 -2.181919946E-01
 8.617104722E-01 4.569141656E-02 -1.433998127E-01
 8.513182308E-01 6.003114072E-02 -1.583261822E-01
 8.262665859E-01 5.717025076E-02 -1.986314691E-01
 8.186169011E-01 4.510601515E-02 -2.134287797E-01
 7.930071307E-01 5.002342604E-02 -2.497846207E-01
 2.552392700E+00 2.122598948E-01 6.421323035E-03
 3.311853000E-02 3.397227776E-02 -1.676835581E-01
 4.177668334E-02 -7.537984350E-02 5.630732397E-03
 8.859980593E-02 -1.125086126E-01 -1.376944124E-01
 9.802719854E-02 -5.845433856E-02 -2.555779223E-01
 7.695359275E-01 7.850011449E-02 -2.667092331E-01
 7.563217493E-01 5.938000326E-02 -2.924485015E-01
 5.517425237E-01 6.761564768E-01 -1.658520729E-01
 1.493462514E-01 9.524875938E-02 -3.452654866E-01
 1.855244257E-01 1.170778914E-01 -3.602055104E-01
 2.086613439E-01 7.014873867E-02 -4.478875327E-01
 1.596833985E-01 7.533301344E-02 -3.867373652E-01
 1.289778481E-01 7.804953303E-02 -3.476722340E-01
 2.368476511E-01 1.408889324E-01 -3.764796302E-01
 2.798567867E-01 1.229424781E-01 -4.243037841E-01
 3.187209507E-01 1.216823995E-01 -4.454777014E-01
 2.477768175E-01 1.101364526E-01 -4.206899671E-01
 2.535459041E-01 7.698388889E-02 -4.703225559E-01
 2.184315293E-01 1.035745090E-01 -4.062094057E-01
 3.587676651E-01 1.167607852E-01 -4.700665337E-01
 3.942153554E-01 1.376420889E-01 -4.531134860E-01
 4.353688988E-01 1.248467114E-01 -4.747380115E-01
 1.767834331E-01 8.802599827E-02 -3.891299538E-01
 3.858110356E-01 1.103021884E-01 -4.850225090E-01
 4.075067065E-01 1.041590829E-01 -4.959091545E-01
 4.605547023E-01 1.061214335E-01 -4.939771102E-01
 5.063808171E-01 1.318242724E-01 -4.588187241E-01
 3.721138186E-01 9.580938697E-02 -4.983388060E-01
 3.382513229E-01 9.746439564E-02 -4.853580609E-01
 3.156006258E-01 9.469446504E-02 -4.788628784E-01
 2.935152134E-01 9.967707347E-02 -4.653460157E-01
 4.574911635E-01 8.442988034E-02 -5.263934393E-01
 4.255394748E-01 9.449043007E-02 -5.118029854E-01
 4.892534533E-01 1.117354315E-01 -4.880073775E-01
 4.979947961E-01 9.010676492E-02 -5.159559817E-01
 5.160384909E-01 9.977830650E-02 -4.945189199E-01
 5.386878331E-01 1.302223924E-01 -4.469970052E-01
 5.409483267E-01 1.029250501E-01 -4.874182959E-01
 5.722946262E-01 1.164840738E-01 -4.456686786E-01
 5.995137254E-01 9.759185414E-02 -4.490758258E-01
 6.138031711E-01 7.035432714E-02 -4.669921790E-01
 6.024244302E-01 7.410061643E-02 -4.723949813E-01
 5.774237064E-01 9.231428871E-02 -4.730495434E-01
 6.248413662E-01 9.294247975E-02 -4.281490616E-01
 6.199746576E-02 -2.567628047E-01 -2.719123008E-02
 2.595630313E-01 -3.134441130E-01 -1.549047280E-01
 2.728417811E-01 -1.963861190E-01 -2.669636626E-01
 3.635425982E-01 -2.535004549E-01 -2.151767265E-01
 5.223356867E-01 -6.960412503E-02 -2.621899881E-01
 4.981095721E-01 -7.281848201E-02 -3.106376134E-01
 3.587775555E-01 -1.657636668E-01 -3.253034788E-01
 4.106765077E-01 -7.846881916E-02 -4.518815070E-01
 3.266621975E-01 -7.896138821E-02 -4.833967403E-01
 4.487384301E-01 -1.930607164E-01 -2.441783752E-01
 4.665337653E-01 -2.969272127E-01 -1.527625678E-01
 5.493193502E-01 -2.144400253E-01 -1.314632356E-01
 5.764090316E-01 -3.067464685E-01 -9.327871203E-02
 6.630941169E-01 -2.280890362E-01 -2.617614028E-02
 7.312216863E-01 -3.435798696E-02 9.294863976E-02
 6.251287960E-01 -1.506573897E-01 -7.086796950E-02
 6.407847826E-01 -4.936178824E-02 -4.533891535E-02
 7.315837676E-01 -1.620333908E-01 4.452145468E-02
 8.556463631E-01 -2.232026290E-02 2.599079530E-01
 8.292626719E-01 -2.203078854E-02 2.284017395E-01
 8.076763871E-01 -2.532781777E-02 1.991017954E-01
 8.775711697E-01 -1.460846483E-02 2.938540558E-01
 7.628369473E-01 -2.327338330E-01 4.593714442E-02
 8.291484047E-01 -1.540025154E-01 1.282696855E-01
 9.704746310E-01 -1.029758673E-02 3.644327859E-01
 9.428169800E-01 -1.209387047E-02 3.436691053E-01
 8.638622582E-01 -2.626738732E-01 9.081174263E-02
 9.408876424E-01 -1.555698419E-01 1.683678255E-01
 9.828864956E-01 -2.859915003E-01 1.028531545E-01
 1.061842310E+00 -1.589546277E-01 1.380621902E-01
 8.856118676E-01 -9.794656975E-02 2.059074999E-01
 9.625315992E-01 -8.913123239E-02 2.293738358E-01
 8.131452848E-01 -9.400041926E-02 1.596683811E-01
 1.113052715E+00 -2.653880045E-01 9.469572181E-02
 1.200365022E+00 -1.650708191E-01 8.667215047E-02
 1.141081147E+00 -5.916506500E-02 1.077930343E-01
 1.265379372E+00 -4.608346978E-02 6.705661102E-02
 1.086832774E+00 -4.356076137E-01 6.202297713E-02
 5.596927803E-01 -1.400608513E-01 -1.523940889E-01
 1.166885543E+00 8.496029784E-02 5.902475402E-02
 1.362262710E+00 9.226220692E-02 3.165695100E-02
 6.814020771E-01 -1.155775125E-01 3.399284978E-03
 1.985539159E-01 -1.583294735E-01 -2.538588195E-01
 9.190542026E-01 -6.176353370E-02 2.603315298E-01
 1.070365968E+00 3.049853864E-03 1.401522301E-01
 1.048373153E+00 -7.007307363E-02 1.912244689E-01
 8.509159193E-01 -6.484242046E-02 2.110958058E-01
 3.014853641E-01 -1.410366193E-01 -3.523061240E-01
 7.087090538E-01 -3.604979184E-01 -4.749943675E-03
 4.110071723E-01 -1.394507385E-01 -3.425735667E-01
 4.746157114E-01 -1.331312293E-01 -2.822251841E-01
 5.977008082E-01 -1.013255149E-01 -1.121210038E-01
 5.562022970E-01 -9.257317575E-02 -1.801251009E-01
 5.615878594E-01 -6.712650274E-02 -1.826768735E-01
 1.282476564E+00 -3.177239197E-01 6.027703713E-02
 1.032731110E+00 3.158848268E-02 1.487806375E-01
 3.399113226E-01 -1.179965362E-01 -4.044976294E-01
 3.515386347E-01 -8.255273621E-02 -4.751990686E-01
 3.795485191E-01 -1.170520833E-01 -3.896265900E-01
 4.872270169E-01 -4.494284220E-01 -7.679553706E-02
 4.416864587E-01 -1.145800575E-01 -3.539424169E-01
 1.003324158E+00 2.440613935E-02 1.419471895E-01
 1.017051043E+00 -3.037905347E-03 2.357576866E-01
 4.689386447E-01 -1.003103939E-01 -3.261054816E-01
 5.207135757E-01 -1.119496873E-01 -2.281342615E-01
 4.718898681E-01 -7.926244571E-02 -3.558572834E-01
 4.307251212E-01 -9.125347268E-02 -4.082010342E-01
 8.410099983E-01 -1.931551014E-02 2.455865885E-01
 8.389797977E-01 -3.675643168E-02 2.284051047E-01
 8.189534656E-01 -3.434168302E-02 2.075533408E-01
 8.009851827E-01 -3.745410901E-02 1.807895228E-01
 7.824805058E-01 -4.961516304E-02 1.544247683E-01
 7.561685040E-01 -3.231375174E-02 1.280454730E-01
 1.352310872E-01 -1.467659702E-01 -1.951061069E-01
 1.685175195E-01 -1.228215155E-01 -2.643107867E-01
 1.567410919E-01 -7.019108424E-02 -3.381805135E-01
 1.282164453E-01 -1.025211966E-01 -2.315205399E-01
 2.076866204E-01 -1.134250111E-01 -3.290637739E-01
 2.499546003E-01 -1.391379609E-01 -3.331665199E-01
 7.445822441E-01 -3.620071983E-02 1.105357357E-01
 7.353647406E-01 -5.082298768E-02 9.040944429E-02
 7.039911306E-01 -4.440713933E-02 5.166502267E-02
 7.580635183E-01 -5.010997701E-02 1.205046261E-01
 7.438200648E-01 -7.447259076E-02 9.389348802E-02
 7.143867795E-01 -6.355595031E-02 5.938216468E-02
 7.821591942E-01 -7.474126905E-02 1.347691877E-01
 7.724227756E-01 -1.134210974E-01 1.055987422E-01
 7.226332566E-01 -1.010158892E-01 5.843456302E-02
 6.820366321E-01 -7.976866717E-02 8.929090410E-03
 6.428550440E-01 -9.729610602E-02 -4.525397549E-02
 6.114085113E-01 -5.804493780E-02 -9.359776175E-02
 3.070362029E-01 -1.126388620E-01 -4.061146872E-01
 1.452406874E+00 -7.141116598E-02 3.745900272E-02
 6.535860259E-01 -4.896251900E-02 -2.192201468E-02
 7.961725244E-01 -2.487112209E-02 1.815415235E-01
 3.154656004E-01 -8.009037844E-02 -4.754554675E-01
 3.970179105E-01 -8.086475185E-02 -4.612813059E-01
 4.067891771E-01 -9.867845716E-02 -4.092627763E-01
 3.845688406E-01 -9.268389450E-02 -4.457013728E-01
 3.634737626E-01 -9.719411787E-02 -4.452500797E-01
 7.196036958E-01 -4.127112464E-02 7.480242005E-02
 5.467474660E-01 -6.961403193E-02 -2.111811017E-01
 5.791483536E-01 -7.719434201E-02 -1.492272428E-01
 5.992329829E-01 -7.118118769E-02 -1.134316797E-01
 5.319923285E-01 -8.228594255E-02 -2.333011342E-01
 8.152043229E-01 -5.715077933E-02 1.799846723E-01
 8.617762479E-01 -4.142623780E-02 2.478199893E-01
 8.663738797E-01 -1.543398480E-02 2.813023152E-01
 3.015186943E-01 -7.857153550E-02 -4.723943052E-01
 6.260249695E-01 -5.343571227E-02 -6.721118660E-02
 6.210873198E-01 -7.448804201E-02 -7.625474547E-02
 4.243824720E-01 -7.600435484E-02 -4.440160036E-01
 9.911963569E-01 -6.278543356E-01 3.301348092E-02
 6.477762810E-01 -6.626213017E-02 -3.417182350E-02
 6.696815232E-01 -5.849146366E-02 -9.662288362E-04
 6.900995431E-01 -5.585594941E-02 2.844180452E-02
 5.338268645E-01 -6.623364015E-02 -2.373715675E-01
 5.739722181E-01 -6.126889755E-02 -1.606397332E-01
 1.665157982E+00 -1.095185107E-01 2.445265879E-02
 4.854174848E-01 -7.299977644E-02 -3.358903767E-01
 4.927647303E-01 -9.156685190E-02 -2.992805127E-01
 5.121972767E-01 -8.321807122E-02 -2.709566841E-01
 2.430830129E-01 -1.100403511E-01 -3.700519934E-01
 2.042133825E-01 -8.980475665E-02 -3.629399156E-01
 2.754519376E-01 -1.120282653E-01 -3.907596099E-01
 8.178539200E-01 -2.121800104E-02 2.169452559E-01
 1.266777107E+00 2.205346947E-01 1.294137004E-02
 1.485529756E+00 2.976482188E-01 1.281277897E-03
 1.455888045E+00 5.640978861E-01 -2.250977721E-02
 2.289911393E-01 -9.093539794E-02 -3.884922514E-01
 2.548278865E-01 -9.192137200E-02 -4.122870325E-01
 5.136257117E-01 -1.570498914E-01 -2.133055175E-01
 1.727603593E-01 -8.942636194E-02 -3.261914981E-01
 8.732822619E-01 -2.784496394E-02 2.742411691E-01
 8.915318668E-01 -2.606054892E-02 2.939193642E-01
 8.859460455E-01 -4.854100756E-02 2.564874712E-01
 1.054553099E+00 1.508146121E-01 3.303258426E-02
 5.011267706E-01 -6.972121898E-01 -4.507480309E-02
 2.768434181E-01 -9.054176394E-02 -4.303895701E-01
 2.983391017E-01 -9.287309142E-02 -4.386017218E-01
 2.660440319E-01 9.310753116E-02 -4.564120300E-01
 6.906965238E-01 -4.216707961E-02 3.244200739E-02
 7.695285541E-01 -3.353649951E-02 1.436804389E-01
 6.150264514E-01 8.150977465E-02 -4.524021131E-01
 6.497218378E-01 9.248435180E-02 -4.045095323E-01
 6.603066486E-01 7.196815691E-02 -4.103950067E-01
 6.738826788E-01 8.806518188E-02 -3.777283951E-01
 6.979599701E-01 8.179087523E-02 -3.568348056E-01
 7.207489312E-01 8.115797300E-02 -3.278502884E-01
 7.433990998E-01 7.360492759E-02 -3.014946386E-01
 6.482217949E-01 7.156828204E-02 -4.271900090E-01
 6.718909869E-01 6.832385345E-02 -3.980809620E-01
 7.454707044E-01 1.023344647E-01 -2.854602992E-01
 8.915273175E-01 4.828535492E-01 -1.147573792E-01
 8.456187898E-01 7.234608879E-01 -1.290333269E-01
 7.148511434E-02 -7.823093954E-02 -1.131319290E-01
 8.236009381E-02 -6.189117980E-02 -2.234185511E-01
 9.805401451E-02 -8.143352518E-02 -2.141410618E-01
 1.421685705E-01 -8.130446522E-02 -2.901195152E-01
 5.135299916E-02 -5.752318942E-02 -9.671797126E-02
 3.289041994E-02 -5.348308026E-02 1.258492026E-02
 3.123467649E-02 -3.509859597E-02 -1.543107630E-02
 1.665577409E-02 -4.382465122E-02 1.795244139E-01
 8.094083736E-03 -2.913375117E-02 3.650884301E-01
 2.974747101E-03 -1.344033055E-02 6.283274239E-01
 -1.014200000E-02 -1.200207450E-02 9.151533762E-01
 8.960160301E-03 -1.840870697E-02 4.250432528E-01
 -2.556892850E-03 -5.025465179E-03 8.259719022E-01
 -1.411817155E-03 -2.044341144E-02 4.849241853E-01
 1.503361310E-02 -2.299403749E-02 1.853838653E-01
 -2.926040162E-03 -1.205163044E-02 8.930436978E-01
 5.579827983E-01 8.958612897E-02 -4.885024387E-01
 6.653787630E-01 1.193361521E-01 -3.643065814E-01