TITLE     = "Visualization of the solution"
VARIABLES = "x"
"y"
"Pressure_Coefficient"
ZONE T="Zone"
 STRANDID=0, SOLUTIONTIME=0
 Nodes=685, Elements=1155, ZONETYPE=FEQuadrilateral
 DATAPACKING=POINT
 DT=(DOUBLE DOUBLE DOUBLE )
 1.000093937E+00 5.083169090E-04 2.243537630E-01
 9.862654805E-01 3.245814703E-03 2.290152463E-01
 9.730240703E-01 5.936270114E-03 1.167268855E-01
 9.558836818E-01 9.297305718E-03 8.551790108E-02
 9.413900375E-01 1.225253567E-02 2.536002935E-02
 9.272564054E-01 1.498660073E-02 2.824095897E-03
 9.155950546E-01 1.729640737E-02 -3.093025103E-02
 9.038705826E-01 1.958885044E-02 -6.043476937E-02
 8.922174573E-01 2.186405286E-02 -8.597138271E-02
 8.804821372E-01 2.408042923E-02 -1.145393360E-01
 8.688240051E-01 2.628709562E-02 -1.375693022E-01
 8.566061258E-01 2.848139033E-02 -1.565382827E-01
 8.450330496E-01 3.056739457E-02 -1.800819920E-01
 8.340963125E-01 3.247724473E-02 -1.933738347E-01
 8.226423264E-01 3.441765904E-02 -2.137877904E-01
 8.105778694E-01 3.645217419E-02 -2.288803974E-01
 7.980101705E-01 3.847658262E-02 -2.447207208E-01
 7.857688069E-01 4.045069218E-02 -2.643600704E-01
 7.732540369E-01 4.239185899E-02 -2.827657507E-01
 7.616171837E-01 4.417165369E-02 -2.983248162E-01
 7.482725978E-01 4.611921683E-02 -3.118142380E-01
 7.350645661E-01 4.802303389E-02 -3.315719714E-01
 7.242312431E-01 4.954796657E-02 -3.456904564E-01
 7.127696872E-01 5.110265687E-02 -3.616945234E-01
 7.009463310E-01 5.267162621E-02 -3.777695912E-01
 6.879872084E-01 5.432260409E-02 -3.897338134E-01
 6.750596166E-01 5.590004474E-02 -4.084135859E-01
 6.643522382E-01 5.719070509E-02 -4.215988806E-01
 6.524792910E-01 5.852272362E-02 -4.388576336E-01
 6.410459876E-01 5.979192257E-02 -4.535100317E-01
 6.292209029E-01 6.098252907E-02 -4.608049746E-01
 6.174950004E-01 6.213557720E-02 -4.754925916E-01
 6.069815755E-01 6.311155856E-02 -4.854845294E-01
 5.951559544E-01 6.414116174E-02 -5.012773312E-01
 5.838258862E-01 6.507518142E-02 -5.086521263E-01
 5.704997182E-01 6.604846567E-02 -5.141010843E-01
 5.582476258E-01 6.688760966E-02 -5.261261285E-01
 5.461118817E-01 6.764564663E-02 -5.336137419E-01
 5.347373486E-01 6.825899333E-02 -5.368368920E-01
 5.230132937E-01 6.883428991E-02 -5.395551140E-01
 5.108448267E-01 6.934920698E-02 -5.422119095E-01
 4.998724759E-01 6.975562871E-02 -5.492150135E-01
 4.870764017E-01 7.016636431E-02 -5.453006502E-01
 4.738803804E-01 7.045390457E-02 -5.404500488E-01
 4.606913626E-01 7.068654895E-02 -5.429184063E-01
 4.475783408E-01 7.084412873E-02 -5.416565824E-01
 4.351668656E-01 7.090956718E-02 -5.414449372E-01
 4.225821197E-01 7.091191411E-02 -5.407410228E-01
 4.102357030E-01 7.082734257E-02 -5.366042722E-01
 3.976785839E-01 7.067463547E-02 -5.346805148E-01
 3.855561316E-01 7.045922428E-02 -5.305587142E-01
 3.734282851E-01 7.017263770E-02 -5.278087764E-01
 3.604097366E-01 6.980567425E-02 -5.231742813E-01
 3.477013111E-01 6.935419887E-02 -5.201556339E-01
 3.349219561E-01 6.884942949E-02 -5.198643586E-01
 3.240187168E-01 6.834849715E-02 -5.120741328E-01
 3.114161491E-01 6.768791378E-02 -5.067453111E-01
 2.985157967E-01 6.695260853E-02 -5.022130457E-01
 2.847905457E-01 6.607896835E-02 -4.960546007E-01
 2.725287974E-01 6.521178782E-02 -4.904984599E-01
 2.606944442E-01 6.431362033E-02 -4.867576866E-01
 2.481756657E-01 6.328665465E-02 -4.790222948E-01
 2.357029468E-01 6.216201931E-02 -4.734426824E-01
 2.234212607E-01 6.099531427E-02 -4.676549950E-01
 2.114108354E-01 5.974328145E-02 -4.598776716E-01
 1.992849708E-01 5.840568617E-02 -4.506627649E-01
 1.868740916E-01 5.693240464E-02 -4.407824959E-01
 1.749948859E-01 5.543155968E-02 -4.333829799E-01
 1.632004231E-01 5.383569375E-02 -4.224155186E-01
 1.512937397E-01 5.211797729E-02 -4.148323757E-01
 1.402886063E-01 5.044218525E-02 -4.045089677E-01
 1.285671741E-01 4.852602258E-02 -3.914448535E-01
 1.173088998E-01 4.656080902E-02 -3.788741585E-01
 1.064220443E-01 4.453864694E-02 -3.701493360E-01
 9.632028639E-02 4.253496975E-02 -3.515735589E-01
 8.537223935E-02 4.020587355E-02 -3.344558053E-01
 7.414108515E-02 3.763691336E-02 -3.147742336E-01
 6.429202110E-02 3.518934920E-02 -2.899049698E-01
 5.468410626E-02 3.260290623E-02 -2.657929925E-01
 4.603569582E-02 3.007641062E-02 -2.429092054E-01
 3.848329931E-02 2.766029350E-02 -2.003032507E-01
 3.178784251E-02 2.532860637E-02 -1.769825668E-01
 2.606042288E-02 2.314575389E-02 -1.346276316E-01
 2.182416990E-02 2.138280123E-02 -1.058250567E-01
 1.782412454E-02 1.957143098E-02 -7.479302123E-02
 1.456249505E-02 1.796188578E-02 -1.853216583E-02
 1.162439212E-02 1.637760177E-02 -5.203997436E-03
 9.488033131E-03 1.510715578E-02 6.059654167E-02
 7.595185656E-03 1.389159169E-02 7.904592795E-02
 5.823248997E-03 1.263453066E-02 1.620817705E-01
 3.537513781E-03 1.077433489E-02 2.433663431E-01
 1.680305926E-03 8.950915188E-03 3.863093018E-01
 2.149008797E-04 7.121775299E-03 6.713423000E-01
 -1.174972975E-03 4.557536449E-03 5.600413058E-01
 -1.733480836E-03 2.587836003E-03 1.166273921E+00
 -1.873418805E-03 9.433956002E-04 8.735242014E-01
 -1.697154483E-03 -8.468623273E-04 1.036651633E+00
 -1.171546872E-03 -2.707183361E-03 1.132222398E+00
 -1.011302302E-04 -4.922472872E-03 7.311770810E-01
 1.441633329E-03 -7.166266441E-03 8.117760824E-01
 3.499967745E-03 -9.472468868E-03 5.125879445E-01
 5.405621137E-03 -1.124628354E-02 4.545355119E-01
 7.592360023E-03 -1.302290522E-02 3.934503833E-01
 9.413240477E-03 -1.434552018E-02 3.004875471E-01
 1.161536016E-02 -1.581081748E-02 2.263830775E-01
 1.405702624E-02 -1.729888842E-02 1.061863899E-01
 1.739436761E-02 -1.914691739E-02 7.830774853E-02
 2.050294355E-02 -2.071290463E-02 5.118006845E-02
 2.438747138E-02 -2.251831442E-02 1.318582571E-02
 2.964108437E-02 -2.471955307E-02 -5.677028632E-02
 3.529238701E-02 -2.687460557E-02 -9.929159478E-02
 4.200155288E-02 -2.917917259E-02 -1.444861838E-01
 4.957623780E-02 -3.154088557E-02 -1.749548302E-01
 5.840317905E-02 -3.402264789E-02 -2.014556835E-01
 6.723863631E-02 -3.629680350E-02 -2.305734415E-01
 7.734945416E-02 -3.867047653E-02 -2.456508947E-01
 8.727661520E-02 -4.081111774E-02 -2.635789633E-01
 9.764028341E-02 -4.288362339E-02 -2.799960776E-01
 1.088807210E-01 -4.495482519E-02 -2.948445233E-01
 1.202770174E-01 -4.690738395E-02 -3.069159747E-01
 1.322573572E-01 -4.882260039E-02 -3.184290022E-01
 1.431491077E-01 -5.043673888E-02 -3.311325156E-01
 1.546273828E-01 -5.203694850E-02 -3.400550338E-01
 1.668847352E-01 -5.362061411E-02 -3.530715694E-01
 1.787307113E-01 -5.504538119E-02 -3.634798757E-01
 1.907821000E-01 -5.639550835E-02 -3.744611866E-01
 2.017870247E-01 -5.753494054E-02 -3.874347483E-01
 2.134029269E-01 -5.864715576E-02 -3.948665471E-01
 2.257509530E-01 -5.974093080E-02 -4.051615834E-01
 2.381378561E-01 -6.073013321E-02 -4.163336692E-01
 2.501843274E-01 -6.159155071E-02 -4.255366920E-01
 2.625142038E-01 -6.237543002E-02 -4.340609318E-01
 2.738148272E-01 -6.300803274E-02 -4.452913720E-01
 2.861124277E-01 -6.358088553E-02 -4.516913252E-01
 2.982607186E-01 -6.404075027E-02 -4.576739993E-01
 3.109767437E-01 -6.441352516E-02 -4.632210656E-01
 3.228161633E-01 -6.466032565E-02 -4.718197516E-01
 3.354586065E-01 -6.478075683E-02 -4.739555170E-01
 3.462444544E-01 -6.479356438E-02 -4.748654808E-01
 3.577106893E-01 -6.469541043E-02 -4.727663569E-01
 3.687529564E-01 -6.452175975E-02 -4.725870897E-01
 3.799186051E-01 -6.423104554E-02 -4.716765367E-01
 3.916142583E-01 -6.378813088E-02 -4.606531516E-01
 4.047129452E-01 -6.318549812E-02 -4.497573026E-01
 4.169551134E-01 -6.245910004E-02 -4.367603527E-01
 4.294116199E-01 -6.163505465E-02 -4.177934677E-01
 4.416100979E-01 -6.067858636E-02 -4.005661107E-01
 4.535303116E-01 -5.964760482E-02 -3.804896417E-01
 4.652908146E-01 -5.851038918E-02 -3.564151677E-01
 4.777241051E-01 -5.723177269E-02 -3.314134190E-01
 4.896388054E-01 -5.591993406E-02 -3.095669400E-01
 5.020072460E-01 -5.443644524E-02 -2.780232503E-01
 5.155363083E-01 -5.278514698E-02 -2.501646199E-01
 5.284256339E-01 -5.111454427E-02 -2.270604255E-01
 5.410836339E-01 -4.941207170E-02 -1.983969406E-01
 5.537155271E-01 -4.768614098E-02 -1.753064260E-01
 5.669605732E-01 -4.578453675E-02 -1.479078429E-01
 5.797026753E-01 -4.393705726E-02 -1.185453433E-01
 5.924895406E-01 -4.207159951E-02 -9.559011309E-02
 6.056853533E-01 -4.012094811E-02 -7.344247128E-02
 6.197469831E-01 -3.804349154E-02 -5.035588386E-02
 6.339052916E-01 -3.594142199E-02 -3.158145746E-02
 6.479809284E-01 -3.379123285E-02 -5.502001642E-03
 6.609591246E-01 -3.186783567E-02 1.679309566E-02
 6.742724776E-01 -2.988100424E-02 3.164575557E-02
 6.866816282E-01 -2.803549543E-02 4.970311576E-02
 6.990451217E-01 -2.621299773E-02 6.754741535E-02
 7.135384679E-01 -2.408783324E-02 8.519238991E-02
 7.263396382E-01 -2.218697034E-02 1.096821975E-01
 7.384147644E-01 -2.050276287E-02 1.239047810E-01
 7.520065308E-01 -1.856361702E-02 1.360462233E-01
 7.644680738E-01 -1.683610305E-02 1.553956522E-01
 7.778574228E-01 -1.496852376E-02 1.740425021E-01
 7.900055647E-01 -1.335957740E-02 1.921090834E-01
 8.027822375E-01 -1.170156151E-02 2.061934920E-01
 8.136807084E-01 -1.030679792E-02 2.210531132E-01
 8.250624537E-01 -8.913200349E-03 2.377995159E-01
 8.382179737E-01 -7.403225638E-03 2.502077092E-01
 8.505924940E-01 -6.018674001E-03 2.661692815E-01
 8.628948331E-01 -4.733507056E-03 2.830681274E-01
 8.737130165E-01 -3.670509439E-03 2.982116429E-01
 8.850480914E-01 -2.685698448E-03 3.095800654E-01
 8.979181051E-01 -1.685037278E-03 3.169303969E-01
 9.081269503E-01 -9.910301305E-04 3.315967249E-01
 9.192674160E-01 -3.625305835E-04 3.349479674E-01
 9.298198819E-01 1.126259958E-04 3.365267629E-01
 9.396008253E-01 4.589928431E-04 3.459498268E-01
 9.515410066E-01 7.518211496E-04 3.398387642E-01
 9.645136595E-01 9.090346866E-04 3.471553716E-01
 9.774578214E-01 9.058721480E-04 3.552573863E-01
 9.892897010E-01 7.593150949E-04 3.254024106E-01
 -5.000000000E-01 -1.000000000E+00 2.593917254E-02
 3.500000000E+00 -1.000000000E+00 1.717993663E-02
 3.500000000E+00 1.000000000E+00 4.895554218E-04
 -5.000000000E-01 1.000000000E+00 -1.451264279E-03
 -5.000000000E-01 5.000000000E-01 3.386947254E-02
 -5.000000000E-01 2.752797990E-12 1.009991150E-01
 -5.000000000E-01 -5.000000000E-01 6.335475802E-02
 -9.421907698E-13 -1.000000000E+00 1.610442971E-02
 5.000000000E-01 -1.000000000E+00 -6.832918037E-03
 1.000000000E+00 -1.000000000E+00 9.589859839E-03
 1.500000000E+00 -1.000000000E+00 3.070737221E-02
 2.000000000E+00 -1.000000000E+00 2.933195195E-02
 2.500000000E+00 -1.000000000E+00 2.144721163E-02
 3.000000000E+00 -1.000000000E+00 1.764517903E-02
 3.500000000E+00 -5.000000000E-01 2.066432884E-02
 3.500000000E+00 -2.752797990E-12 2.014458078E-02
 3.500000000E+00 5.000000000E-01 8.538720854E-03
 3.000000000E+00 1.000000000E+00 -1.925972059E-03
 2.500000000E+00 1.000000000E+00 -8.419569781E-03
 2.000000000E+00 1.000000000E+00 -2.482756625E-02
 1.500000000E+00 1.000000000E+00 -5.962662487E-02
 1.000000000E+00 1.000000000E+00 -1.151301711E-01
 5.000000000E-01 1.000000000E+00 -1.088866013E-01
 1.733724275E-12 1.000000000E+00 -3.069329735E-02
 6.831191869E-01 -4.250730002E-02 4.149750557E-02
 7.855366713E-01 -2.415338711E-02 1.790164766E-01
 9.050290378E-01 -1.503905156E-02 3.031790710E-01
 5.895972205E-01 -5.933204504E-02 -1.028383777E-01
 4.976042368E-01 -6.849601621E-02 -2.785603504E-01
 6.972487659E-01 6.811830144E-02 -3.677950657E-01
 2.794001521E-01 -7.619991606E-02 -4.232834771E-01
 2.743027384E-01 7.759954605E-02 -4.749360588E-01
 9.111031891E-01 3.334606747E-02 -4.431840143E-02
 7.938565739E-01 5.113988320E-02 -2.468670257E-01
 5.914672013E-01 7.744564575E-02 -4.841082526E-01
 3.736209167E-01 -7.663378587E-02 -4.441529495E-01
 3.793923974E-01 8.518035136E-02 -5.106196927E-01
 4.938048242E-01 8.025383722E-02 -5.309622088E-01
 1.786401549E+00 -5.309820504E-01 2.745765375E-02
 1.766076205E+00 5.558407169E-01 -1.420011551E-02
 3.031177451E+00 2.156831849E-01 1.128285380E-02
 7.467340705E-01 -5.299712208E-01 1.270531595E-02
 3.110644256E-01 -6.394552048E-01 -3.574203618E-02
 1.252889992E-01 -6.229836977E-02 -2.822604506E-01
 1.834423970E-01 -6.865449425E-02 -3.516450484E-01
 7.725576786E-01 5.644677016E-01 -1.467423120E-01
 4.021004236E-01 6.585688219E-01 -1.531523064E-01
 1.209449392E-01 6.029331303E-02 -3.556611336E-01
 1.796386106E-01 6.643887314E-02 -4.198090386E-01
 2.734842938E+00 -5.326965653E-01 1.709667717E-02
 1.161049399E+00 6.887803117E-01 -7.452890994E-02
 9.759814386E-01 3.343538300E-01 -7.518501397E-02
 8.519031869E-01 4.221539241E-02 -1.617137046E-01
 1.252828990E+00 -6.262159912E-01 4.352808985E-02
 1.504756371E+00 -2.685057951E-01 3.786231963E-02
 2.240607011E+00 -5.772298283E-01 1.995843386E-02
 2.022652607E+00 -1.943662226E-01 1.755490424E-02
 2.420173523E+00 -1.843267861E-01 1.329848388E-02
 2.184602650E+00 1.581850612E-01 5.386299882E-03
 1.784632454E+00 1.268841291E-01 7.386754295E-03
 -2.709760267E-01 -2.367412799E-01 1.141132313E-01
 -6.876248339E-02 -6.055565522E-01 1.838901511E-02
 1.061348036E-01 -3.646634031E-01 -3.856260989E-02
 -2.535404642E-01 2.500000000E-01 8.657763188E-02
 -1.187505032E-01 6.352966562E-01 -2.596610217E-02
 2.472875643E-02 3.301642524E-01 -6.217726893E-02
 4.769792803E-02 3.874108790E-02 -2.055592209E-01
 2.191395005E+00 6.008229076E-01 -5.598302595E-03
 2.738064597E+00 6.037887186E-01 3.291715531E-03
 -2.471893696E-01 3.102058085E-04 1.683927028E-01
 -1.211532250E-01 -1.409842358E-01 1.738990973E-01
 7.038610505E-02 -4.561063796E-02 -1.920101319E-01
 4.444114822E-02 -3.886729588E-02 -1.101442749E-01
 -6.883994432E-02 -3.225875513E-01 5.001291964E-02
 3.591053113E-03 -1.843134566E-01 6.415243638E-02
 1.644006788E-01 -2.321493395E-01 -1.322131708E-01
 2.314716629E-01 -7.335533939E-02 -3.873544360E-01
 -3.713545619E-02 -9.801839547E-02 2.530653103E-01
 2.080289307E-02 -2.577309442E-02 9.953088279E-02
 -1.094322368E-01 -2.329857181E-02 2.820468895E-01
 3.776449542E-02 -1.120323636E-01 2.432072408E-02
 3.109357683E+00 -2.612792005E-01 1.762048168E-02
 1.411253235E-02 -7.159236768E-02 1.518967907E-01
 8.091300147E-03 -1.786571328E-02 4.538666811E-01
 -4.210303637E-02 -2.845516126E-02 4.856016123E-01
 -9.047232836E-03 -4.871427743E-02 3.556735571E-01
 2.553594056E+00 2.129109767E-01 6.048181390E-03
 4.274996254E-02 -7.378667531E-02 -1.244288611E-02
 8.763003937E-02 -1.028680992E-01 -1.291379898E-01
 1.004908360E-01 -5.590498260E-02 -2.454325902E-01
 1.607309626E-02 -4.385142753E-02 1.775199569E-01
 3.142143251E-02 -3.337582372E-02 -2.148629235E-02
 6.903480424E-02 -7.596989860E-02 -1.073128827E-01
 5.242081809E-02 -5.505622496E-02 -9.807906873E-02
 3.353649833E-02 -5.275496918E-02 1.481219907E-02
 6.660956658E-02 -2.604770553E-01 -2.392525331E-02
 2.555413171E-01 -3.005132533E-01 -1.441997893E-01
 4.371315088E-01 -7.485759886E-02 -3.834911731E-01
 2.979351352E-01 -2.027567819E-01 -2.331267155E-01
 3.800918931E-01 -2.558534112E-01 -1.995157798E-01
 3.277713087E-01 -7.718352122E-02 -4.445716357E-01
 3.659219043E-01 -1.732839711E-01 -2.804934131E-01
 4.529204824E-01 -1.949627810E-01 -2.096642413E-01
 4.745347998E-01 -2.992570316E-01 -1.235435032E-01
 5.515690187E-01 -2.277224488E-01 -1.066039519E-01
 5.263148432E-01 -1.478149262E-01 -1.703378142E-01
 5.468443412E-01 -6.215652587E-02 -1.837909419E-01
 5.225143502E-01 -6.587071651E-02 -2.284953019E-01
 6.108376921E-01 -1.566398888E-01 -6.313312622E-02
 6.415964126E-01 -4.831268298E-02 -1.917446979E-02
 6.421443056E-01 -2.243613402E-01 -2.454649268E-02
 7.049838384E-01 -1.603252439E-01 2.978848664E-02
 8.454843551E-01 -1.807441352E-02 2.477316848E-01
 8.191161775E-01 -2.216965115E-02 2.189168817E-01
 8.690265056E-01 -1.631747272E-02 2.765403247E-01
 7.326298805E-01 -3.511359037E-02 1.069747760E-01
 7.355672088E-01 -2.345202578E-01 3.945430691E-02
 8.204887234E-01 -1.660251513E-01 1.168514271E-01
 9.714475829E-01 -1.097214397E-02 3.258092500E-01
 9.451649037E-01 -1.011249595E-02 3.216646308E-01
 9.258291037E-01 -1.038245763E-02 3.235076009E-01
 8.455413991E-01 -2.420875264E-01 9.526311073E-02
 9.101579952E-01 -1.652749040E-01 1.580194102E-01
 9.530436185E-01 -2.595398209E-01 1.110417114E-01
 1.059641354E+00 -1.723902916E-01 1.344941810E-01
 8.617759615E-01 -1.015097678E-01 1.884943482E-01
 9.511312438E-01 -8.896120576E-02 2.228166046E-01
 8.017097300E-01 -9.902585136E-02 1.473033289E-01
 1.091670575E+00 -2.711698729E-01 9.662122349E-02
 1.183078711E+00 -1.797010063E-01 8.765703090E-02
 1.121123466E+00 -6.366854147E-02 1.177151011E-01
 1.276080693E+00 -6.029578170E-02 6.170202685E-02
 1.187166564E+00 6.103324008E-02 6.082759185E-02
 1.337014618E+00 8.644316178E-02 3.074704886E-02
 1.221854074E+00 2.070344538E-01 1.329897506E-02
 1.010188217E+00 -4.381164132E-01 6.444200293E-02
 2.083963157E-01 -1.570824973E-01 -2.444356849E-01
 9.018356106E-01 -6.847740833E-02 2.368620412E-01
 3.141614337E-01 -1.428033151E-01 -3.224413782E-01
 6.544957747E-01 -1.102908394E-01 -1.065429251E-02
 7.243146332E-01 -9.716481587E-02 7.258968014E-02
 4.608737812E-01 -1.325545547E-01 -2.654781463E-01
 1.261494029E+00 -3.370484784E-01 6.353708911E-02
 8.327158002E-01 -6.645633664E-02 1.921766616E-01
 5.695641131E-01 -1.113675137E-01 -1.268736504E-01
 6.342226166E-01 -3.318088630E-01 -3.038891399E-02
 3.562624834E-01 -1.207400253E-01 -3.612915160E-01
 3.520165294E-01 -7.766532814E-02 -4.455686318E-01
 1.465337440E+00 2.649303714E-01 5.143041035E-03
 6.831885463E-01 -8.336671949E-02 2.729896027E-02
 7.088919150E-01 -3.494566875E-02 7.790085363E-02
 4.079858985E-01 -1.326504918E-01 -3.208345486E-01
 4.125903697E-01 -7.481851082E-02 -4.130471677E-01
 4.999222219E-01 -1.095126938E-01 -2.344913613E-01
 4.737703751E-01 -7.167302676E-02 -3.186429070E-01
 5.327655734E-01 -1.022480687E-01 -1.859439797E-01
 7.964712940E-01 -5.902219222E-02 1.649539618E-01
 7.591262144E-01 -3.271547792E-02 1.413760352E-01
 5.160821623E-01 -4.720483090E-01 -5.711195584E-02
 1.074018684E+00 3.360846604E-02 1.148307384E-01
 9.853603686E-01 1.621364558E-02 1.997164855E-01
 1.094254325E+00 1.427640772E-01 3.866449838E-02
 1.004152753E+00 8.866242820E-02 6.124831689E-02
 9.955957100E-01 1.897705803E-01 -1.854266810E-02
 9.423293308E-01 1.147450775E-01 -3.429870542E-02
 9.016854150E-01 1.978850164E-01 -9.239743120E-02
 8.718707640E-01 1.223171314E-01 -1.243794763E-01
 8.058038728E-01 1.673669583E-01 -1.902151580E-01
 7.424511180E-01 5.899712686E-02 -3.137020552E-01
 7.205246042E-01 6.212056197E-02 -3.430188505E-01
 8.362044003E-01 2.779177463E-01 -1.544003589E-01
 7.327605709E-01 2.384700406E-01 -2.392271918E-01
 6.353744086E-01 7.286095797E-02 -4.424940883E-01
 7.167515430E-01 1.463514428E-01 -2.941465013E-01
 6.426956011E-01 1.920460779E-01 -3.296555140E-01
 5.389230580E-01 8.188799785E-02 -5.144398690E-01
 5.677063319E-01 8.033868632E-02 -4.987189109E-01
 6.432881717E-01 2.763364753E-01 -2.808208220E-01
 5.491309381E-01 2.409374113E-01 -3.395960954E-01
 4.284070652E-01 8.418265948E-02 -5.234284689E-01
 4.594727409E-01 8.476113786E-02 -5.231949965E-01
 5.478381056E-01 3.583832041E-01 -2.580126160E-01
 4.344203299E-01 2.991322945E-01 -3.061642215E-01
 4.479555782E-01 1.956242847E-01 -3.921508376E-01
 3.323867760E-01 8.111032625E-02 -4.990520684E-01
 3.469918162E-01 2.253951248E-01 -3.467965836E-01
 5.213060452E-01 1.654190402E-01 -4.215498658E-01
 3.012692353E-01 3.212234058E-01 -2.640177435E-01
 7.723513001E-01 1.069713641E-01 -2.529314095E-01
 8.221319686E-01 9.447304010E-02 -1.878302073E-01
 8.226293031E-01 4.881808953E-02 -2.059332142E-01
 6.601563696E-01 1.322687951E-01 -3.582664945E-01
 3.806567379E-01 1.564536736E-01 -4.209846183E-01
 3.009204314E-01 1.684312328E-01 -3.800251218E-01
 2.278418451E-01 7.657819766E-02 -4.475521399E-01
 2.011374098E-01 7.129463679E-02 -4.317024153E-01
 2.664094435E-01 2.147145655E-01 -3.286832921E-01
 2.155013263E-01 1.673469522E-01 -3.197438335E-01
 4.699647359E-01 1.424284343E-01 -4.493953694E-01
 9.011243298E-01 8.131876264E-02 -7.624478316E-02
 8.755344880E-01 3.968855716E-02 -1.195747940E-01
 9.544137094E-01 7.110085718E-02 1.380395086E-02
 9.379613918E-01 2.425468873E-02 1.836558628E-02
 2.566171058E-01 1.336381792E-01 -3.932494800E-01
 2.554248120E-01 8.028239303E-02 -4.603754969E-01
 3.361249225E-01 1.315447383E-01 -4.381764890E-01
 3.520639714E-01 8.548195965E-02 -4.995122899E-01
 1.750498210E-01 2.409303912E-01 -2.143858627E-01
 1.203431390E-01 1.632542879E-01 -2.013198965E-01
 1.659236785E-01 1.287928394E-01 -3.078384889E-01
 7.320165242E-01 9.798830382E-02 -3.036616064E-01
 5.153630189E-01 1.194562969E-01 -4.729542232E-01
 5.175022627E-01 8.108859213E-02 -5.242613296E-01
 5.514994432E-01 1.314328622E-01 -4.445077789E-01
 4.209649088E-01 4.425734780E-01 -2.274787027E-01
 7.200145483E-01 3.689576989E-01 -2.013923847E-01
 1.908754786E-01 4.764689137E-01 -1.219296400E-01
 8.636194577E-01 7.875300092E-02 -1.345481500E-01
 7.573391810E-01 5.790467845E-02 -2.949318817E-01
 7.514749668E-01 7.754228970E-02 -2.917600691E-01
 7.717675087E-01 7.127604506E-02 -2.672454337E-01
 5.789922102E-01 1.624385131E-01 -3.931802197E-01
 7.950502268E-01 7.018358435E-02 -2.350672956E-01
 3.827527296E-01 -1.051121110E-01 -3.825085720E-01
 7.691394010E-01 5.442167205E-02 -2.818741324E-01
 3.969353157E-01 -7.583046608E-02 -4.281502748E-01
 4.050822893E-01 -9.653886370E-02 -3.805184034E-01
 9.511942005E-01 2.331715545E-02 5.262543580E-02
 3.217301201E-01 -1.109596509E-01 -3.763807733E-01
 3.032145151E-01 -7.608300610E-02 -4.358414090E-01
 2.868625708E-01 -1.121930811E-01 -3.623051732E-01
 7.612158440E-01 -7.997698474E-02 1.219439816E-01
 9.689028412E-01 1.846331908E-02 9.073943679E-02
 9.738196410E-01 4.167589921E-02 9.069925478E-02
 1.006914628E+00 3.039558541E-02 1.474600131E-01
 3.150124889E-01 -7.443342473E-02 -4.449849830E-01
 8.208828550E-01 -3.393406837E-01 5.466974277E-02
 6.572748829E-01 -4.561046049E-02 5.718760787E-03
 6.524370738E-01 -6.885216203E-02 -5.547683446E-03
 6.290487451E-01 -6.388615922E-02 -3.926426015E-02
 6.155076905E-01 -5.287778294E-02 -5.917610758E-02
 6.073294927E-01 -7.243468564E-02 -7.166739104E-02
 5.829804931E-01 -8.222194825E-02 -1.101302642E-01
 6.745202986E-01 -5.706056261E-02 2.671938820E-02
 5.714855851E-01 -6.458950913E-02 -1.326454938E-01
 5.567808913E-01 -7.964560055E-02 -1.578367376E-01
 5.116364630E-01 -8.157443479E-02 -2.374647702E-01
 6.279610246E-01 -4.781230773E-02 -4.007025207E-02
 6.036966378E-01 -1.059416595E-01 -7.019981610E-02
 4.249218560E-01 -8.651992521E-02 -3.762571462E-01
 4.457715278E-01 -9.064569189E-02 -3.341664262E-01
 4.732832768E-01 -9.640157385E-02 -2.935884852E-01
 4.557697018E-01 -7.320206739E-02 -3.560563782E-01
 1.028218117E+00 -9.214356437E-02 1.881152697E-01
 1.057403083E+00 -2.930418936E-02 1.647837201E-01
 7.324097033E-01 7.228172396E-02 -3.196710605E-01
 7.132666531E-01 7.971721997E-02 -3.403494105E-01
 6.898916323E-01 8.823449247E-02 -3.624804756E-01
 6.626565162E-01 6.791472427E-02 -4.140756359E-01
 6.801095825E-01 7.338941228E-02 -3.888453595E-01
 6.671864773E-01 8.326609050E-02 -3.947507375E-01
 6.505142072E-01 7.204090167E-02 -4.276091110E-01
 6.469249500E-01 9.505653468E-02 -4.050795000E-01
 6.136365629E-01 7.439123335E-02 -4.645190549E-01
 6.207113314E-01 1.248013352E-01 -4.027840914E-01
 6.254817302E-01 8.637065607E-02 -4.371479336E-01
 6.045047426E-01 9.264252614E-02 -4.538773749E-01
 5.823726271E-01 9.153793104E-02 -4.749234002E-01
 6.022186658E-01 7.398610442E-02 -4.770765905E-01
 6.242934704E-01 7.107279477E-02 -4.576702658E-01
 3.818585267E-01 -3.763039844E-01 -1.078890584E-01
 2.356208835E-01 -4.652923386E-01 -4.415673610E-02
 1.022189905E+00 -6.412814767E-03 2.248522491E-01
 1.000599651E+00 -4.925055602E-02 2.502603666E-01
 9.565788159E-01 -5.154429917E-02 2.685636159E-01
 9.947831291E-01 -2.294336430E-02 3.779054689E-01
 9.308285419E-01 -4.455868484E-02 2.734648167E-01
 8.993551191E-01 -3.649950740E-02 2.756922397E-01
 8.701919736E-01 -5.175032909E-02 2.361632098E-01
 4.242020936E-01 -7.205803792E-02 -4.054197456E-01
 2.613113620E-01 -1.537466895E-01 -2.848096240E-01
 2.422761610E-01 -1.132796496E-01 -3.283499199E-01
 2.553282583E-01 -7.527682356E-02 -4.046601063E-01
 1.991748033E-01 -1.109612198E-01 -3.007272468E-01
 1.604380438E-01 -1.374947745E-01 -2.238608831E-01
 2.071066412E-01 -7.136949002E-02 -3.668046803E-01
 9.317534790E-02 -1.614971479E-01 -1.010994494E-01
 1.282166149E-01 -1.057813247E-01 -2.020614062E-01
 1.568733014E-01 -6.570956611E-02 -3.185094520E-01
 1.439277059E+00 5.631949055E-01 -2.695978437E-02
 1.344449492E+00 -1.819169690E-01 5.650487020E-02
 1.496837656E+00 -6.403378336E-02 3.104140563E-02
 7.814727591E-01 5.497728931E-02 -2.631505169E-01
 7.081948404E-01 6.196116399E-02 -3.582823002E-01
 5.341772885E-01 -6.130362202E-02 -2.070006806E-01
 7.309362470E-01 5.819408265E-02 -3.304391536E-01
 1.726705396E+00 -1.575208952E-01 2.308430705E-02
 5.412499550E-01 1.034189790E-01 -4.837213272E-01
 5.035506152E-01 9.399579546E-02 -5.125224146E-01
 4.737279912E-01 1.064921910E-01 -4.947333619E-01
 4.382122104E-01 1.194307853E-01 -4.771469140E-01
 4.017165192E-01 1.225424975E-01 -4.707834411E-01
 4.033812989E-01 8.402398255E-02 -5.178084413E-01
 3.680984877E-01 1.077616968E-01 -4.784053229E-01
 4.789746312E-01 8.716968425E-02 -5.215139427E-01
 5.621985217E-01 9.950577885E-02 -4.732263844E-01
 9.241865438E-01 5.584998361E-02 -2.668666668E-02
 9.591936681E-01 -1.262169986E-02 3.374016330E-01
 9.498370617E-01 -2.876052257E-02 3.092441128E-01
 9.739328703E-01 -2.702780053E-02 2.795264824E-01
 9.354399464E-01 -2.026901001E-02 3.064922742E-01
 7.603044955E-01 -1.370523504E-01 9.322482454E-02
 7.285291016E-01 -6.612564632E-02 9.101106809E-02
 8.453978305E-01 -4.351680718E-02 2.238411902E-01
 8.207480117E-01 -4.391307217E-02 2.041550860E-01
 8.047634224E-01 -3.171247363E-02 1.939501802E-01
 4.882824417E-01 -8.217149290E-02 -2.764138036E-01
 9.686624660E-01 -6.829065434E-01 3.377135963E-02
 3.917987803E-01 9.788678283E-02 -4.974326184E-01
 7.711331466E-01 -4.874119043E-02 1.469134332E-01
 7.450322167E-01 -4.915102685E-02 1.139739022E-01
 4.302465005E-01 -1.109095961E-01 -3.298559296E-01
 5.740218005E-01 -6.880228027E-01 -2.350709466E-02
 8.820864698E-01 5.949290746E-02 -1.041440127E-01
 8.406960675E-01 6.123631245E-02 -1.756691641E-01
 8.173057403E-01 6.457492826E-02 -2.069098982E-01
 9.003650040E-01 4.935288924E-02 -6.866815845E-02
 7.020461535E-01 -6.043428624E-02 5.929506970E-02
 5.791743529E-01 7.608918204E-02 -4.956135203E-01
 8.641401352E-01 5.245316692E-02 -1.380339868E-01
 7.454419214E-01 -3.120929501E-02 1.256689741E-01
 5.739147843E-01 5.353732062E-01 -1.920204327E-01
 8.339749667E-01 -3.036513994E-02 2.262353201E-01
 8.589473897E-01 -3.017527067E-02 2.516987570E-01
 8.785127757E-01 -2.841163466E-02 2.717579929E-01
 8.896962002E-01 -1.793355039E-02 2.927311811E-01
 5.258674891E-01 9.283463659E-02 -5.043183774E-01
 7.746872924E-01 -2.992648533E-02 1.629853552E-01
 5.098597209E-01 -6.463255194E-02 -2.542675507E-01
 9.158066407E-01 -1.001699274E-02 3.185178278E-01
 9.187147316E-01 -2.279428403E-02 3.025535917E-01
 8.796847266E-01 -1.316465060E-02 2.902521470E-01
 7.194308327E-01 -3.343212246E-02 9.302854984E-02
 2.664573316E-01 -8.952245287E-02 -3.892061630E-01
 2.429794315E-01 -8.647617724E-02 -3.769202921E-01
 2.193184896E-01 -8.713911193E-02 -3.527196055E-01
 1.958817217E-01 -8.153530008E-02 -3.444658055E-01
 1.711319269E-01 -8.396827541E-02 -2.998273305E-01
 2.901190208E-01 -8.707653993E-02 -4.087166133E-01
 6.980668321E-01 -3.997023531E-02 6.330882282E-02
 3.116662336E-01 -9.013909350E-02 -4.123235408E-01
 3.390638760E-01 -9.222155960E-02 -4.158847587E-01
 3.638163534E-01 -9.070339520E-02 -4.154182167E-01
 2.914213669E-01 -7.339621958E-02 -4.348412822E-01
 6.735474446E-01 6.400939575E-02 -4.040989379E-01
 9.353695258E-01 -8.650646980E-03 3.308511486E-01
 3.401109550E-01 -7.532894603E-02 -4.504436444E-01
 8.371581228E-01 4.285586418E-02 -1.857109069E-01
 8.634015882E-01 3.782512049E-02 -1.429254920E-01
 9.687272805E-01 5.283869491E-01 -9.358381612E-02
 6.294015448E-01 -8.428110115E-02 -4.586228959E-02
 6.700291941E-01 -4.138543261E-02 2.393401531E-02
 8.899802062E-01 3.718717361E-02 -9.149273828E-02
 8.062383140E-01 5.160754036E-02 -2.289776891E-01
 3.133974596E+00 6.339745962E-01 2.649990144E-03
 3.843536250E-01 -7.386273877E-02 -4.437591787E-01
 8.574669157E-01 -1.581841571E-02 2.658793251E-01
 6.021218595E-01 -5.336741225E-02 -7.959829082E-02
 4.173306405E-01 9.832824668E-02 -5.009815315E-01
 4.426433146E-01 9.653509100E-02 -5.078130796E-01
 7.968705266E-01 -2.291122058E-02 1.901453673E-01
 4.854039928E-01 -6.709844853E-02 -3.050002686E-01
 4.277011563E-01 1.472959351E-01 -4.470514881E-01
 2.675029546E-01 -7.327653105E-02 -4.178262750E-01
 5.051150009E-01 7.888861210E-02 -5.313412368E-01
 3.133974596E+00 -6.339745962E-01 1.673245715E-02
 5.524062290E-01 8.328078305E-02 -5.043303729E-01
 1.714126144E-01 -6.539966621E-02 -3.418077271E-01
 3.631834890E-01 -7.484393588E-02 -4.499390640E-01
 3.664508450E-01 8.108596455E-02 -5.082478881E-01
 5.280086904E-01 7.858090196E-02 -5.235229835E-01
 8.324941159E-01 -1.763946509E-02 2.350274786E-01
 4.415743356E-01 8.141640077E-02 -5.272836306E-01
 1.957999769E-01 -6.709794665E-02 -3.631936141E-01
 1.972873194E+00 3.596140463E-01 -5.159971247E-03
 2.436203073E-01 -7.148600482E-02 -4.013762756E-01
 2.194101347E-01 -7.005040558E-02 -3.795356425E-01
 9.269835951E-01 3.155200858E-02 -8.465402618E-03
 1.058655300E-01 -7.429414912E-02 -2.213190228E-01
 1.388967315E-01 -7.710891195E-02 -2.790580434E-01
 8.359732905E-02 -5.940077158E-02 -2.057830701E-01
 6.565855701E-03 -3.004964494E-02 3.174153084E-01
 1.448418178E-02 -2.122831485E-02 1.553803587E-01
 -1.042201133E-02 -1.873485011E-02 6.373921096E-01
 -3.973601256E-03 -8.212898217E-03 9.418647633E-01
 2.276603183E-03 -1.213022647E-02 5.982535953E-01
 8.546970693E-01 4.148167852E-01 -1.315919199E-01
 1.132750827E-01 -5.460257899E-02 -2.709425934E-01
 4.163873655E-01 8.165482908E-02 -5.239224837E-01
 3.915414514E-01 8.083739382E-02 -5.178007854E-01
 -1.536381791E-01 1.153415952E-01 1.542163672E-01