TITLE     = "Visualization of the solution"
VARIABLES = "x"
"y"
"Pressure_Coefficient"
ZONE T="Zone"
 STRANDID=0, SOLUTIONTIME=0
 Nodes=714, Elements=1213, ZONETYPE=FEQuadrilateral
 DATAPACKING=POINT
 DT=(DOUBLE DOUBLE DOUBLE )
 1.000317931E+00 5.153864040E-04 2.435483634E-01
 9.879481196E-01 2.993909176E-03 2.239475908E-01
 9.749634862E-01 5.492984317E-03 1.324697044E-01
 9.587278366E-01 8.645657450E-03 8.046010706E-02
 9.443948865E-01 1.148900669E-02 3.211564045E-02
 9.299858212E-01 1.419184729E-02 8.770904966E-04
 9.188831449E-01 1.638928242E-02 -3.414665556E-02
 9.068645239E-01 1.866962947E-02 -6.522120565E-02
 8.954277039E-01 2.083548903E-02 -1.009405867E-01
 8.834520578E-01 2.301290445E-02 -1.154696686E-01
 8.708238602E-01 2.517809905E-02 -1.348862688E-01
 8.587826490E-01 2.729774453E-02 -1.574824806E-01
 8.464536071E-01 2.935103513E-02 -1.761240290E-01
 8.354514837E-01 3.119117022E-02 -1.941010762E-01
 8.237219453E-01 3.305274993E-02 -2.028138705E-01
 8.110778332E-01 3.503430635E-02 -2.244878156E-01
 7.984210253E-01 3.701679036E-02 -2.402975959E-01
 7.860470414E-01 3.884347528E-02 -2.478316306E-01
 7.737808228E-01 4.064480215E-02 -2.703439229E-01
 7.621301413E-01 4.234903678E-02 -2.800230001E-01
 7.489627600E-01 4.416421428E-02 -2.954383841E-01
 7.355422974E-01 4.604352266E-02 -3.184672252E-01
 7.247764468E-01 4.747331887E-02 -3.291846482E-01
 7.136389017E-01 4.891362041E-02 -3.434350000E-01
 7.019172907E-01 5.040049180E-02 -3.570191771E-01
 6.884388328E-01 5.204897746E-02 -3.763271408E-01
 6.755138636E-01 5.358958617E-02 -3.898589288E-01
 6.652668118E-01 5.473055691E-02 -3.995108159E-01
 6.537237167E-01 5.600883812E-02 -4.189989651E-01
 6.421673298E-01 5.722267181E-02 -4.253982000E-01
 6.302608848E-01 5.838433281E-02 -4.363535558E-01
 6.189092994E-01 5.948554352E-02 -4.538969891E-01
 6.082407832E-01 6.044837460E-02 -4.642559064E-01
 5.958806872E-01 6.149361283E-02 -4.761470153E-01
 5.842343569E-01 6.240574643E-02 -4.826186248E-01
 5.708267689E-01 6.337104738E-02 -4.915311968E-01
 5.583279133E-01 6.420300901E-02 -5.039777483E-01
 5.461066365E-01 6.494788826E-02 -5.122157213E-01
 5.349364281E-01 6.553354859E-02 -5.131180426E-01
 5.232654214E-01 6.608384848E-02 -5.153600645E-01
 5.106676221E-01 6.661380827E-02 -5.214243868E-01
 4.994083941E-01 6.701751798E-02 -5.243218270E-01
 4.861054718E-01 6.740682572E-02 -5.204951559E-01
 4.725206196E-01 6.769803911E-02 -5.213342457E-01
 4.584017992E-01 6.795375049E-02 -5.247612618E-01
 4.447525442E-01 6.807552278E-02 -5.206458839E-01
 4.317953289E-01 6.812752038E-02 -5.182418376E-01
 4.189136326E-01 6.809247285E-02 -5.190058336E-01
 4.065392017E-01 6.801017374E-02 -5.141943176E-01
 3.938575387E-01 6.781961769E-02 -5.086601124E-01
 3.817192912E-01 6.759906560E-02 -5.090021427E-01
 3.701224923E-01 6.732248515E-02 -5.028347488E-01
 3.569005132E-01 6.692693383E-02 -5.008875928E-01
 3.443394005E-01 6.649150699E-02 -4.946570523E-01
 3.311904967E-01 6.594302505E-02 -4.906634593E-01
 3.203507662E-01 6.545145810E-02 -4.880809765E-01
 3.076436818E-01 6.479812413E-02 -4.833159563E-01
 2.944786549E-01 6.404518336E-02 -4.756865690E-01
 2.805258036E-01 6.315071136E-02 -4.715872435E-01
 2.682661414E-01 6.230804697E-02 -4.684304904E-01
 2.561656237E-01 6.138448045E-02 -4.587793483E-01
 2.438230515E-01 6.036988273E-02 -4.536075723E-01
 2.313852906E-01 5.927818641E-02 -4.492613549E-01
 2.191483676E-01 5.811399966E-02 -4.414558331E-01
 2.073980570E-01 5.691414699E-02 -4.347188178E-01
 1.959286034E-01 5.567427352E-02 -4.294457794E-01
 1.836436093E-01 5.426019430E-02 -4.221936474E-01
 1.718629450E-01 5.279797688E-02 -4.140349121E-01
 1.605351418E-01 5.131138116E-02 -4.052787442E-01
 1.489021182E-01 4.967718944E-02 -3.961918499E-01
 1.383739412E-01 4.811850935E-02 -3.855144578E-01
 1.269779056E-01 4.632582143E-02 -3.735882627E-01
 1.158426031E-01 4.445323721E-02 -3.618784627E-01
 1.053446159E-01 4.257402197E-02 -3.509519897E-01
 9.579278529E-02 4.075810313E-02 -3.370536509E-01
 8.499491215E-02 3.855869547E-02 -3.153191890E-01
 7.352581620E-02 3.604069352E-02 -3.043170766E-01
 6.379199028E-02 3.372732550E-02 -2.868047756E-01
 5.402045324E-02 3.120524622E-02 -2.567185131E-01
 4.530130699E-02 2.873880789E-02 -2.294168343E-01
 3.777323291E-02 2.642843500E-02 -1.952408295E-01
 3.110070899E-02 2.417902276E-02 -1.589172251E-01
 2.537780255E-02 2.207137272E-02 -1.523936864E-01
 2.117848955E-02 2.037898265E-02 -9.640136897E-02
 1.714682207E-02 1.860399917E-02 -6.291998594E-02
 1.411139127E-02 1.714957878E-02 2.661353863E-02
 1.133271307E-02 1.568994857E-02 5.185477999E-02
 9.302445687E-03 1.453108061E-02 5.049131712E-02
 7.511375472E-03 1.342345774E-02 9.829968866E-02
 5.866952706E-03 1.230817288E-02 1.464972747E-01
 3.727173898E-03 1.066054497E-02 2.870796365E-01
 1.887098886E-03 8.972945623E-03 4.472631081E-01
 3.557468299E-04 7.220664527E-03 5.292734068E-01
 -1.112585189E-03 4.796898458E-03 9.623441205E-01
 -1.724570175E-03 2.979806159E-03 1.146109442E+00
 -1.917205518E-03 1.499100588E-03 1.137287216E+00
 -1.820551581E-03 -1.329622610E-04 1.258151922E+00
 -1.378759625E-03 -1.833872055E-03 9.172177222E-01
 -4.235180095E-04 -3.842789447E-03 8.438276721E-01
 1.023675082E-03 -5.899760406E-03 6.519386264E-01
 3.064584220E-03 -8.062806912E-03 4.545445324E-01
 4.897997715E-03 -9.650474414E-03 2.972525649E-01
 6.978122052E-03 -1.120769139E-02 2.037794356E-01
 8.651168086E-03 -1.232571900E-02 1.762301934E-01
 1.075132005E-02 -1.360521559E-02 1.694738037E-01
 1.314117201E-02 -1.493108831E-02 1.489331228E-01
 1.643064618E-02 -1.658817753E-02 4.068454189E-02
 1.945503615E-02 -1.796721481E-02 -1.341947275E-02
 2.332489565E-02 -1.958335750E-02 -4.303455230E-02
 2.877743356E-02 -2.162450179E-02 -4.997845442E-02
 3.464724869E-02 -2.360076271E-02 -9.872802223E-02
 4.182161763E-02 -2.578343824E-02 -1.347406547E-01
 4.949278384E-02 -2.788071521E-02 -1.553457070E-01
 5.843657628E-02 -3.010358475E-02 -1.836993135E-01
 6.730253249E-02 -3.210943192E-02 -2.007635444E-01
 7.754213363E-02 -3.424371406E-02 -2.136121357E-01
 8.751185238E-02 -3.616589680E-02 -2.289730384E-01
 9.787920117E-02 -3.800670058E-02 -2.400333051E-01
 1.088742688E-01 -3.983665258E-02 -2.470647266E-01
 1.203945428E-01 -4.162746668E-02 -2.581067157E-01
 1.321054548E-01 -4.332802445E-02 -2.674609816E-01
 1.427678466E-01 -4.477728158E-02 -2.773492578E-01
 1.540011764E-01 -4.622538388E-02 -2.867643279E-01
 1.660017073E-01 -4.767530411E-02 -2.956590931E-01
 1.776532978E-01 -4.898732901E-02 -3.067795620E-01
 1.896833777E-01 -5.026270077E-02 -3.170856064E-01
 2.004230767E-01 -5.133223161E-02 -3.294262679E-01
 2.116797715E-01 -5.236928165E-02 -3.372528865E-01
 2.240544260E-01 -5.344244838E-02 -3.471948061E-01
 2.367724627E-01 -5.443743616E-02 -3.594720661E-01
 2.491098344E-01 -5.531840026E-02 -3.689623945E-01
 2.616208196E-01 -5.612118542E-02 -3.801406411E-01
 2.727232277E-01 -5.674632639E-02 -3.897700787E-01
 2.855535448E-01 -5.738826469E-02 -3.966874445E-01
 2.980214059E-01 -5.790920556E-02 -4.075141742E-01
 3.108991683E-01 -5.833552778E-02 -4.152325637E-01
 3.226079643E-01 -5.862259865E-02 -4.224932507E-01
 3.352616131E-01 -5.882390216E-02 -4.274543932E-01
 3.460975289E-01 -5.889032409E-02 -4.309260388E-01
 3.576126993E-01 -5.887342989E-02 -4.318216771E-01
 3.685044050E-01 -5.874686688E-02 -4.306523499E-01
 3.793734610E-01 -5.855431035E-02 -4.297284188E-01
 3.909892738E-01 -5.820474774E-02 -4.257346002E-01
 4.040278196E-01 -5.768809468E-02 -4.139761827E-01
 4.164520204E-01 -5.707623065E-02 -4.072756472E-01
 4.292834103E-01 -5.629798770E-02 -3.922333304E-01
 4.417903125E-01 -5.541381240E-02 -3.734855953E-01
 4.541316628E-01 -5.443658307E-02 -3.567802705E-01
 4.662148952E-01 -5.335085467E-02 -3.363681330E-01
 4.785043299E-01 -5.214456841E-02 -3.117918811E-01
 4.901097417E-01 -5.090742186E-02 -2.861504819E-01
 5.026987195E-01 -4.949867353E-02 -2.597112797E-01
 5.164826512E-01 -4.787074775E-02 -2.335489860E-01
 5.300459862E-01 -4.617734998E-02 -2.062202897E-01
 5.432110429E-01 -4.445289820E-02 -1.761774704E-01
 5.562773347E-01 -4.273413494E-02 -1.518355094E-01
 5.694485903E-01 -4.091535136E-02 -1.279022497E-01
 5.824688077E-01 -3.910505772E-02 -1.005487941E-01
 5.947192907E-01 -3.737364337E-02 -7.923226323E-02
 6.072065830E-01 -3.558710590E-02 -5.613022688E-02
 6.213554144E-01 -3.356480971E-02 -3.201426928E-02
 6.358066797E-01 -3.149804845E-02 -1.070012739E-02
 6.500886083E-01 -2.943462133E-02 1.193186405E-02
 6.632393599E-01 -2.755387314E-02 3.332815138E-02
 6.767872572E-01 -2.564362064E-02 4.926147438E-02
 6.891400814E-01 -2.390258387E-02 6.591117466E-02
 7.015386820E-01 -2.217355184E-02 8.279851400E-02
 7.160376906E-01 -2.015271597E-02 1.014515030E-01
 7.289370894E-01 -1.837864146E-02 1.209606892E-01
 7.408394814E-01 -1.679872535E-02 1.359870409E-01
 7.538517714E-01 -1.510285679E-02 1.466207793E-01
 7.657866478E-01 -1.351949386E-02 1.666017193E-01
 7.787827849E-01 -1.188422181E-02 1.851317193E-01
 7.905484438E-01 -1.045132242E-02 1.968147222E-01
 8.034961820E-01 -8.944171481E-03 2.093775376E-01
 8.145920038E-01 -7.697650697E-03 2.214934170E-01
 8.259713650E-01 -6.436459720E-03 2.361257692E-01
 8.384506702E-01 -5.126214121E-03 2.532762856E-01
 8.509773612E-01 -3.917791881E-03 2.676817922E-01
 8.629465699E-01 -2.837661188E-03 2.791675484E-01
 8.745096922E-01 -1.899353578E-03 2.897831562E-01
 8.862013817E-01 -1.054533292E-03 3.003559775E-01
 8.992145061E-01 -2.550889913E-04 3.067921237E-01
 9.091456532E-01 2.606040216E-04 3.158520900E-01
 9.194511771E-01 6.878461572E-04 3.190929141E-01
 9.289234877E-01 9.845878230E-04 3.231030143E-01
 9.379608631E-01 1.184854424E-03 3.260498385E-01
 9.498308301E-01 1.335154520E-03 3.216426307E-01
 9.625486135E-01 1.353023341E-03 3.214653696E-01
 9.767298698E-01 1.198481885E-03 3.329910148E-01
 9.893497825E-01 9.081577300E-04 2.942982546E-01
 -5.000000000E-01 -1.000000000E+00 2.963960396E-02
 3.500000000E+00 -1.000000000E+00 1.607252570E-02
 3.500000000E+00 1.000000000E+00 1.200484814E-05
 -5.000000000E-01 1.000000000E+00 -6.285999180E-03
 -5.000000000E-01 5.000000000E-01 3.347145384E-02
 -5.000000000E-01 2.752797990E-12 9.176066151E-02
 -5.000000000E-01 -5.000000000E-01 5.963332056E-02
 -9.421907698E-13 -1.000000000E+00 1.680834165E-02
 5.000000000E-01 -1.000000000E+00 2.992792372E-03
 1.000000000E+00 -1.000000000E+00 1.217771511E-02
 1.500000000E+00 -1.000000000E+00 3.248511101E-02
 2.000000000E+00 -1.000000000E+00 2.793627053E-02
 2.500000000E+00 -1.000000000E+00 2.049961626E-02
 3.000000000E+00 -1.000000000E+00 1.673392394E-02
 3.500000000E+00 -5.000000000E-01 1.903510210E-02
 3.500000000E+00 -2.752797990E-12 1.849865823E-02
 3.500000000E+00 5.000000000E-01 7.666683087E-03
 3.000000000E+00 1.000000000E+00 -2.450607081E-03
 2.500000000E+00 1.000000000E+00 -8.453829339E-03
 2.000000000E+00 1.000000000E+00 -2.253727892E-02
 1.500000000E+00 1.000000000E+00 -6.165625010E-02
 1.000000000E+00 1.000000000E+00 -1.113893270E-01
 5.000000000E-01 1.000000000E+00 -1.035116893E-01
 1.733724275E-12 1.000000000E+00 -3.275620074E-02
 6.840686071E-01 -3.813567605E-02 5.531241700E-02
 7.872542475E-01 -2.497789897E-02 1.832507906E-01
 9.058118139E-01 -9.867177135E-03 2.978053301E-01
 6.945289741E-01 6.057583240E-02 -3.578247906E-01
 2.777176799E-01 -6.637630220E-02 -3.766524741E-01
 2.722597095E-01 7.332162281E-02 -4.568806136E-01
 3.627350834E-01 7.862080817E-02 -4.886863291E-01
 9.162523569E-01 3.093275719E-02 -4.226825524E-02
 7.927969634E-01 5.447716081E-02 -2.366799347E-01
 5.768890492E-01 -5.325010283E-02 -1.107505935E-01
 6.051804501E-01 7.217341084E-02 -4.513411952E-01
 4.107698098E-01 -6.814183615E-02 -3.880914756E-01
 5.072134156E-01 8.006851146E-02 -5.035752747E-01
 1.843854808E+00 -5.909086791E-01 2.785379352E-02
 1.773500602E+00 6.377796703E-01 -1.931777878E-02
 3.031176751E+00 2.156834656E-01 1.029656905E-02
 7.215088609E-01 -6.410898506E-01 7.768453468E-03
 4.849815407E-01 -6.394827192E-02 -2.825601613E-01
 7.415737531E-01 5.047023044E-01 -1.580502994E-01
 2.478007290E-01 6.866724240E-01 -1.017447817E-01
 1.186697829E-01 5.451711971E-02 -3.419856284E-01
 1.758208616E-01 6.817833671E-02 -3.916534219E-01
 2.734844997E+00 -5.326945833E-01 1.636809084E-02
 1.166291562E+00 6.066610491E-01 -6.090177391E-02
 9.964781703E-01 3.388932043E-01 -6.152216533E-02
 8.558971273E-01 4.047434500E-02 -1.549146055E-01
 1.256308571E+00 -6.404793670E-01 4.201587641E-02
 1.494392603E+00 -2.352641638E-01 3.717383241E-02
 2.215442195E-01 -5.874769194E-01 -2.755930485E-02
 8.137260693E-02 -4.548669908E-02 -1.913257755E-01
 1.359682982E-01 -5.379138476E-02 -2.551608277E-01
 1.956269114E-01 -5.932126793E-02 -3.097916225E-01
 2.250184362E+00 -5.872146730E-01 1.935521556E-02
 1.986676221E+00 -2.067461574E-01 1.670984820E-02
 2.414052092E+00 -1.854802568E-01 1.168129844E-02
 2.184610293E+00 1.582012755E-01 6.080955003E-03
 1.797552571E+00 1.347406315E-01 8.188268922E-03
 -2.710200435E-01 -2.547541756E-01 1.072552606E-01
 -1.601531911E-01 -5.728505991E-01 3.165354429E-02
 -2.559965428E-01 2.353891074E-01 7.799876469E-02
 -1.298937534E-01 6.784438554E-01 -2.632562108E-02
 2.593590872E-02 3.297010544E-01 -5.448583532E-02
 4.654058116E-02 3.785117218E-02 -1.946420840E-01
 2.224965078E+00 5.668411219E-01 -5.035281288E-03
 2.743659386E+00 5.981251958E-01 2.376749611E-03
 -2.509534698E-01 -9.558942102E-04 1.546425992E-01
 -1.421241986E-01 -1.290908965E-01 1.589110066E-01
 3.230409110E-02 -3.714320362E-01 1.081029311E-02
 2.810308325E-01 -3.196968099E-01 -1.058508638E-01
 3.534212164E-01 -6.994973561E-02 -4.083749779E-01
 3.178492262E-01 -7.013677302E-02 -3.975524527E-01
 -1.345135869E-01 1.180393094E-01 1.482209996E-01
 -1.058583518E-01 3.207609574E-03 2.663004368E-01
 -5.445707376E-02 -6.590795802E-02 2.830827966E-01
 4.456793707E-02 -3.352625567E-02 -1.010870761E-01
 2.517605351E-02 -2.691901955E-02 2.231265443E-03
 -4.972905137E-02 -1.501733846E-01 1.205793790E-01
 3.658303542E-03 -9.434151426E-02 1.320837237E-01
 2.739466664E-02 -1.994905997E-01 2.207922832E-02
 -1.681505879E-02 -5.117997212E-02 3.419211814E-01
 1.051690881E-02 -1.729517845E-02 2.419114664E-01
 -5.490790127E-02 -1.249912033E-02 4.237435516E-01
 6.807442583E-02 -1.152088604E-01 -5.851143812E-02
 1.144146630E-01 -1.565225864E-01 -1.012885121E-01
 1.150166360E-01 -9.999922894E-02 -1.584947961E-01
 1.105783491E-01 -5.288573140E-02 -2.243799578E-01
 1.723911039E-01 -1.153785560E-01 -2.118743390E-01
 2.419171925E-01 -6.714492637E-02 -3.463803464E-01
 1.871886495E-01 -1.806293544E-01 -1.651900076E-01
 2.289067049E-01 -1.371991487E-01 -2.460985448E-01
 1.229181148E-01 -2.564427141E-01 -7.074862190E-02
 2.113800782E-01 -1.001430288E-01 -2.752855030E-01
 2.164622746E-01 -6.474518896E-02 -3.232527535E-01
 3.109358855E+00 -2.612775180E-01 1.636690694E-02
 1.848183771E-02 -5.808202960E-02 1.466703298E-01
 4.827603271E-02 -7.548596492E-02 -1.565019071E-02
 5.922325415E-02 -4.065594411E-02 -1.410305047E-01
 2.523877796E-01 -1.030473411E-01 -3.039038713E-01
 2.810334840E-01 -1.397871687E-01 -2.744427503E-01
 2.536461071E-01 -2.034268797E-01 -1.966705861E-01
 3.291549933E-01 -2.005966472E-01 -2.174018595E-01
 3.995794540E-01 -2.615692805E-01 -1.587256688E-01
 4.418325388E-01 -1.999896592E-01 -1.841836270E-01
 4.478390305E-01 -6.706178260E-02 -3.429515249E-01
 5.022469675E-01 -2.750761903E-01 -1.132957077E-01
 5.447788458E-01 -1.780367289E-01 -1.156250352E-01
 6.273071667E-01 -4.763367518E-02 -2.673250349E-02
 5.391908708E-01 -5.531583201E-02 -1.803855821E-01
 6.122026903E-01 -2.352925050E-01 -4.028226287E-02
 6.484388778E-01 -1.545587896E-01 -1.065213754E-02
 7.350851320E-01 -2.735863864E-02 1.234772263E-01
 7.101162424E-01 -2.513149769E-01 3.656511813E-02
 7.515297209E-01 -1.563501761E-01 7.873724075E-02
 8.106125870E-01 -2.215878292E-01 9.090634250E-02
 9.696365005E-01 -1.212101463E-02 2.995837422E-01
 8.469023518E-01 -1.321692969E-02 2.518656628E-01
 8.224453237E-01 -1.595542675E-02 2.249024766E-01
 8.551945847E-01 -1.662812687E-01 1.355733469E-01
 9.154481707E-01 -2.279973888E-01 1.133015144E-01
 9.627415234E-01 -1.325503534E-01 1.702061669E-01
 1.011212224E+00 -1.929116751E-01 1.266270591E-01
 1.067124459E+00 -1.294812998E-01 1.383301406E-01
 1.132746368E+00 -2.108570271E-01 9.697286450E-02
 1.145239642E+00 -1.038871475E-01 9.578869214E-02
 9.919420435E-01 -3.356804252E-01 7.989747612E-02
 1.103201216E+00 1.572895827E-03 1.003275391E-01
 1.229545175E+00 1.174065353E-02 5.482039568E-02
 1.144097252E+00 1.097443443E-01 5.175720857E-02
 1.313069039E+00 1.595008094E-01 2.100469117E-02
 8.931383825E-01 -7.889796217E-02 2.138528628E-01
 9.369330527E-01 -1.008479824E-02 3.001262853E-01
 4.553301773E-01 -4.083276160E-01 -6.943011957E-02
 7.947230282E-01 -9.716595755E-02 1.420862051E-01
 3.840802485E-01 -1.372832764E-01 -2.800668521E-01
 6.971815277E-01 -1.122218840E-01 4.752897702E-02
 1.415886803E+00 -2.389209023E-02 3.299180750E-02
 5.954254481E-01 -1.191052409E-01 -6.919366612E-02
 4.914942924E-01 -1.344065412E-01 -1.996035634E-01
 1.006127913E+00 -7.989137522E-02 1.790714260E-01
 4.927980907E-01 -6.311044064E-01 -3.339627133E-02
 1.174098835E+00 2.832207747E-01 -1.341078458E-02
 1.375174766E+00 3.802609465E-01 -1.702256517E-02
 1.273993804E+00 -2.064963972E-01 6.227810442E-02
 1.066596566E+00 6.251572263E-02 8.927367859E-02
 9.667575274E-01 2.282016291E-02 9.172071627E-02
 1.048336004E+00 1.796831404E-01 -4.334763110E-04
 8.860910466E-01 2.108902250E-01 -1.098864336E-01
 9.569555425E-01 1.439208312E-01 -3.106534126E-02
 9.991325795E-01 8.836248779E-02 4.735701712E-02
 8.277262783E-01 3.442666676E-01 -1.488315954E-01
 7.326715861E-01 2.566662723E-01 -2.253652920E-01
 6.500963017E-01 6.769233395E-02 -4.077197039E-01
 7.444412891E-01 5.815485182E-02 -2.958576417E-01
 7.982651462E-01 1.537645241E-01 -1.947427826E-01
 6.881610240E-01 3.554784447E-01 -2.137689621E-01
 4.372500424E-01 8.254946682E-02 -4.996456523E-01
 6.078191520E-01 2.608316793E-01 -2.811624645E-01
 5.550396697E-01 7.420118000E-02 -4.913690941E-01
 6.573024488E-01 1.752322065E-01 -3.171615940E-01
 5.472073734E-01 4.019670103E-01 -2.348140657E-01
 4.170543055E-01 3.044972990E-01 -2.871306993E-01
 4.971474156E-01 1.852288658E-01 -3.844165610E-01
 2.880726163E-01 -1.015090487E-01 -3.298988953E-01
 3.288455642E-01 -1.169763226E-01 -3.201023394E-01
 3.691697435E-01 -1.010087377E-01 -3.507748417E-01
 3.865317049E-01 -6.780271657E-02 -4.082711687E-01
 3.976481333E-01 -1.029582315E-01 -3.358461600E-01
 9.420856865E-01 8.534270594E-02 -1.590870934E-02
 8.992828826E-01 1.186170755E-01 -8.387573110E-02
 9.447502919E-01 2.565096502E-02 3.158525762E-02
 1.009454628E+00 4.059262214E-02 1.376439949E-01
 1.046408081E+00 1.767105715E-02 1.166687266E-01
 1.034064879E+00 -1.965825839E-02 1.883205846E-01
 9.015648335E-01 6.922585000E-02 -7.742107988E-02
 8.792103899E-01 3.817672130E-02 -1.184748939E-01
 8.603332702E-01 8.250211979E-02 -1.377884466E-01
 6.707450549E-01 -3.656261067E-01 -9.976908004E-03
 8.293294379E-01 -3.916298490E-01 6.007372553E-02
 9.920024187E-01 -5.667341299E-01 4.262499686E-02
 -2.663478685E-02 -2.266671738E-02 4.764527874E-01
 1.900449935E-03 -9.659780403E-03 5.979592846E-01
 8.462914579E-02 -7.952274332E-02 -1.346554762E-01
 2.665704978E-01 -6.711676243E-02 -3.658390922E-01
 1.488845532E-01 -8.697467575E-02 -2.199721049E-01
 1.706912557E-01 -5.842188990E-02 -2.867792840E-01
 2.908987637E-01 -7.393487893E-02 -3.744888477E-01
 1.166379146E+00 -3.923781195E-01 6.209982414E-02
 3.967450638E-01 -6.700393379E-02 -4.028129081E-01
 3.056159911E-01 -6.875751674E-02 -3.929171363E-01
 3.102622584E-01 -8.571102456E-02 -3.655587616E-01
 3.288665076E-01 -8.239874069E-02 -3.796521150E-01
 3.398782974E-01 -7.048421975E-02 -4.052105591E-01
 3.288927217E-01 -6.809324685E-02 -4.067406736E-01
 2.721734543E-01 -8.217272427E-02 -3.467823841E-01
 2.530152006E-01 -7.939250954E-02 -3.385379531E-01
 1.479342641E+00 6.085853516E-01 -2.781668959E-02
 3.494913585E-03 -3.936129205E-02 2.624042231E-01
 4.246791971E-01 -6.881175507E-02 -3.713471797E-01
 4.147526914E-01 -8.619106597E-02 -3.481513062E-01
 4.266981723E-01 -1.128086620E-01 -2.962071039E-01
 4.653582303E-01 -1.013339090E-01 -2.662083045E-01
 4.388588368E-01 -8.330367604E-02 -3.294215718E-01
 9.360537498E-02 -5.850669379E-02 -1.883829003E-01
 8.441034844E-01 1.245948297E-01 -1.560368439E-01
 8.232431866E-01 8.818801139E-02 -1.868325714E-01
 8.348354141E-01 4.583611908E-02 -1.864315376E-01
 7.612648298E-01 1.121219456E-01 -2.482609336E-01
 7.443314776E-01 1.724937336E-01 -2.408025618E-01
 7.105489021E-01 1.164936758E-01 -3.049003166E-01
 6.580111183E-01 1.229251989E-01 -3.517074828E-01
 7.893918129E-01 8.150175441E-02 -2.291119038E-01
 7.704005516E-01 5.061675859E-02 -2.659933017E-01
 7.340850199E-01 8.929060776E-02 -2.938696374E-01
 7.217574057E-01 5.971243709E-02 -3.259336839E-01
 7.567558265E-01 7.601115961E-02 -2.714578155E-01
 7.600577291E-01 5.624511063E-02 -2.766583020E-01
 4.621064060E-01 -6.579711972E-02 -3.241371710E-01
 4.578056500E-01 -7.891877785E-02 -3.106547236E-01
 4.735883739E-01 -7.584184622E-02 -2.881571101E-01
 4.950064203E-01 -7.941856205E-02 -2.497113089E-01
 5.270808872E-01 -1.111905205E-01 -1.655052066E-01
 5.092662405E-01 -6.329420605E-02 -2.337293748E-01
 5.637461438E-01 -9.398666591E-02 -1.244729892E-01
 4.364901574E-01 -6.617780276E-02 -3.612328613E-01
 1.004408207E-01 -4.713821288E-02 -2.218709916E-01
 3.477286255E-01 -8.706016218E-02 -3.735050369E-01
 3.661904241E-01 -8.154321675E-02 -3.848519603E-01
 7.814226543E-01 5.001785239E-02 -2.529323177E-01
 5.517846293E-01 -5.525921890E-02 -1.554646361E-01
 5.177967150E-01 -8.123274419E-02 -2.016685973E-01
 2.559103398E+00 2.061152347E-01 5.364118647E-03
 1.002563056E+00 -3.926147851E-02 2.632292373E-01
 9.631170239E-01 -6.375234925E-02 2.297861167E-01
 9.220279859E-01 -4.776805768E-02 2.508784208E-01
 1.350218601E+00 -3.929110494E-01 4.773849370E-02
 2.544467090E-01 -6.501875681E-02 -3.594514104E-01
 -7.746792920E-03 -2.435724219E-02 4.963227738E-01
 6.851054512E-02 -5.600810745E-02 -1.400096005E-01
 5.441536906E-01 -7.350601094E-02 -1.657178676E-01
 5.648754208E-01 -6.641794488E-02 -1.279451103E-01
 5.888711295E-01 -7.244255601E-02 -8.747523828E-02
 6.225262987E-01 -9.477026890E-02 -3.753941782E-02
 6.037459466E-01 -4.612264887E-02 -6.253839038E-02
 6.145998120E-01 -4.534658908E-02 -4.612936497E-02
 6.107920952E-01 -6.277116963E-02 -5.276369152E-02
 5.929143865E-01 -5.184419640E-02 -8.278643966E-02
 9.291454894E-01 5.111395701E-01 -9.863895328E-02
 1.639312686E+00 -6.479840419E-02 2.050752020E-02
 4.155368332E-02 -4.880174293E-02 -3.846952820E-02
 6.357127818E-01 -6.810880288E-02 -1.609766954E-02
 6.596848277E-01 -4.180490843E-02 2.136353593E-02
 6.438992151E-01 -4.657877664E-02 -1.561681790E-03
 6.547952261E-01 -6.099260354E-02 1.319392454E-02
 6.749511459E-01 -5.114925749E-02 3.672401417E-02
 6.968516944E-01 -5.192633443E-02 6.717870169E-02
 7.091507869E-01 -3.567427932E-02 8.683103691E-02
 7.206235934E-01 -5.390457252E-02 9.493164424E-02
 6.571409212E-01 -9.421113616E-02 5.643245733E-03
 7.089163737E-01 8.647094106E-02 -3.258856833E-01
 3.596574540E-01 4.634055496E-01 -1.969013208E-01
 2.765576713E-01 3.087837593E-01 -2.355894811E-01
 3.548696511E-01 2.221603573E-01 -3.323989202E-01
 3.118847964E-01 7.719379502E-02 -4.681874576E-01
 3.373827615E-01 7.770113476E-02 -4.792418862E-01
 2.225088483E-01 2.076514476E-01 -2.747133257E-01
 2.239286968E-01 7.247363898E-02 -4.244356625E-01
 2.000442605E-01 7.017108671E-02 -4.100262422E-01
 2.810060199E-01 1.532882730E-01 -3.595895684E-01
 1.510043946E-01 2.833578949E-01 -1.715629650E-01
 9.201273140E-02 1.901490328E-01 -1.227904072E-01
 1.646474687E-01 1.424567062E-01 -2.834940491E-01
 1.245550363E-01 4.610646708E-01 -9.049640433E-02
 -5.558800133E-02 2.139604766E-01 2.928655566E-02
 1.816141904E-02 1.256630840E-01 1.491512647E-02
 1.742375007E-02 2.322215896E-02 2.067052140E-03
 7.594835777E-02 4.876556270E-02 -2.693778577E-01
 -5.358062853E-02 9.375978161E-02 2.091998534E-01
 -3.863485736E-02 3.189870223E-02 4.368682554E-01
 -3.746243462E-03 6.884025168E-02 1.464874581E-01
 8.532252258E-02 1.161334511E-01 -1.765019132E-01
 1.291574801E-01 1.082991957E-01 -2.695494530E-01
 1.501422115E-01 6.484319305E-02 -3.655930108E-01
 4.232630808E-02 8.584973072E-02 -8.410344762E-02
 -2.845700911E-02 4.742935913E-03 6.181776879E-01
 -8.932584261E-03 3.927339768E-02 3.938718564E-01
 5.217362377E-03 1.472514329E-02 2.684905758E-01
 1.475551229E-02 4.879875585E-02 8.619899193E-02
 3.139047330E-02 3.291253874E-02 -1.035601719E-01
 7.682748249E-02 8.297751435E-02 -1.892031715E-01
 9.838079877E-02 5.229368150E-02 -3.119431712E-01
 1.060220496E-01 8.511140010E-02 -2.532665014E-01
 3.477436580E-02 6.041126460E-02 -4.763857291E-02
 1.987993366E-02 3.635691279E-02 -8.998115583E-03
 4.550249111E-03 3.161348109E-02 1.821504363E-01
 1.161927038E-02 1.851911438E-02 2.920358776E-02
 -9.280720768E-03 2.072804356E-02 5.126680044E-01
 -1.613073023E-03 9.032226375E-03 7.102547291E-01
 6.244749813E-03 2.302672980E-02 3.143019338E-01
 6.229258839E-02 6.513281556E-02 -1.825756961E-01
 5.847718811E-02 4.880640398E-02 -2.149940580E-01
 3.513833993E-02 4.495836484E-02 -9.863936630E-02
 8.770481543E-02 6.397204659E-02 -2.637363052E-01
 5.516494989E-01 6.363203189E-01 -1.649006517E-01
 9.695943181E-01 4.930227888E-02 4.948604530E-02
 9.303917565E-01 4.817372653E-02 -1.138603634E-02
 9.685240493E-01 -3.024961658E-02 2.561033451E-01
 1.102314246E-01 -6.936014616E-02 -1.898822237E-01
 8.348733043E-01 6.488652953E-02 -1.790619703E-01
 8.696411551E-01 5.610073941E-02 -1.271418044E-01
 7.238767680E-01 -3.323780328E-02 1.071258720E-01
 1.520457024E+00 1.673394975E-01 1.020686583E-02
 7.074155693E-01 -7.872750821E-02 6.843184584E-02
 7.416823181E-01 -8.528670181E-02 1.018428422E-01
 7.781805287E-01 -6.313352102E-02 1.477602389E-01
 7.622060755E-01 -2.343017269E-02 1.542927040E-01
 8.192953222E-01 -5.956283493E-02 1.877354026E-01
 7.469042720E-01 -5.314094929E-02 1.215156986E-01
 7.974351165E-01 -4.497449973E-02 1.774267929E-01
 8.459519158E-01 -1.042097401E-01 1.725311282E-01
 8.597199493E-01 -6.164995274E-02 2.167635406E-01
 8.815161787E-01 -1.113849698E-02 2.837378988E-01
 8.443197038E-01 -4.268760193E-02 2.216460683E-01
 8.659027346E-01 -3.394509018E-02 2.463093770E-01
 8.889096362E-01 -4.712356095E-02 2.449906591E-01
 8.711869686E-01 -1.546091806E-02 2.722004447E-01
 8.585932190E-01 -1.611450998E-02 2.606419450E-01
 8.930587252E-01 -1.237891448E-02 2.868694306E-01
 9.019865982E-01 -2.763857408E-02 2.758021813E-01
 9.178177437E-01 -2.203788001E-02 2.846095062E-01
 9.399618228E-01 -2.847018093E-02 2.903937631E-01
 9.502959490E-01 -1.574060613E-02 3.051735881E-01
 8.837601403E-01 -2.461425912E-02 2.679828052E-01
 7.730883125E-01 -2.286661522E-02 1.686743747E-01
 7.690431151E-01 -3.867018280E-02 1.557099295E-01
 8.033807821E-01 -2.744972278E-02 1.983149119E-01
 7.487651661E-01 -3.120849962E-02 1.350479128E-01
 9.881870306E-01 -2.005651442E-02 3.110619109E-01
 8.132071668E-01 6.297523841E-02 -2.085159115E-01
 1.105880790E-01 6.465314481E-02 -3.107205756E-01
 4.281795931E-01 2.070367796E-01 -3.638499444E-01
 3.931937949E-01 1.513672439E-01 -4.079455330E-01
 3.987590834E-01 7.733406565E-02 -4.987819242E-01
 4.579311163E-01 1.463470053E-01 -4.238573280E-01
 5.141465485E-01 1.341414153E-01 -4.325011513E-01
 5.598975324E-01 1.859901538E-01 -3.616080674E-01
 5.633661629E-01 1.196438664E-01 -4.282807358E-01
 5.792783178E-01 7.506700461E-02 -4.700646217E-01
 4.799271358E-01 1.102786589E-01 -4.665675058E-01
 4.683436174E-01 8.542789115E-02 -4.987906861E-01
 6.100016574E-01 1.448827625E-01 -3.720902862E-01
 6.245448122E-01 1.066269844E-01 -3.934435880E-01
 6.242185533E-01 6.932779353E-02 -4.343157739E-01
 4.227784632E-01 1.185450476E-01 -4.568407532E-01
 5.296404260E-01 1.019730412E-01 -4.659569951E-01
 5.302786881E-01 8.055330916E-02 -4.933921410E-01
 5.038234635E-01 9.771595008E-02 -4.791865885E-01
 4.481555804E-01 1.024596993E-01 -4.766626391E-01
 4.204447029E-01 9.425038200E-02 -4.832382067E-01
 4.848512090E-01 9.000506715E-02 -4.901444706E-01
 6.368041869E-01 6.955720786E-02 -4.194386678E-01
 6.468409682E-01 8.685434135E-02 -3.900949251E-01
 6.729019402E-01 6.525942451E-02 -3.830903913E-01
 6.753126897E-01 9.416237593E-02 -3.587061306E-01
 6.633633446E-01 7.804608618E-02 -3.833353170E-01
 6.843870417E-01 6.175134111E-02 -3.726353415E-01
 3.867361706E-01 7.886212923E-02 -4.929650795E-01
 3.954144980E-01 9.897247250E-02 -4.699267171E-01
 3.632439406E-01 1.150659828E-01 -4.461426534E-01
 3.740269810E-01 9.076163384E-02 -4.750112916E-01
 4.126532255E-01 7.905637306E-02 -5.005486343E-01
 5.427998550E-01 7.497999565E-02 -4.971821782E-01
 3.750680037E-01 7.663322440E-02 -4.946757373E-01
 6.610704230E-01 6.434744793E-02 -3.978633198E-01
 5.476378527E-01 8.966405225E-02 -4.737396804E-01
 5.670807389E-01 8.569742732E-02 -4.659952333E-01
 5.863356613E-01 9.223741332E-02 -4.442991089E-01
 6.905515978E-01 7.728288503E-02 -3.558461042E-01
 4.245295019E-01 7.858876158E-02 -5.046774382E-01
 5.176823808E-01 8.716838958E-02 -4.885556795E-01
 5.929592334E-01 7.569734397E-02 -4.595270578E-01
 2.051609712E-01 -2.639463234E-01 -1.162921461E-01
 5.178215056E-01 7.609757339E-02 -5.037049667E-01
 1.864869729E-01 -8.900764046E-02 -2.666916321E-01
 1.515675926E-01 -6.987892352E-02 -2.500196549E-01
 2.000948443E-01 -7.414287994E-02 -2.951508663E-01
 2.288574690E-01 -7.996546629E-02 -3.135698452E-01
 1.333793322E-01 -6.972722183E-02 -2.234116990E-01
 6.961499704E-01 -3.436248510E-02 7.111324932E-02
 7.337205835E-01 7.041220433E-02 -3.032358980E-01
 1.697935738E-01 -7.690114391E-02 -2.586796927E-01
 1.314430952E-01 7.871599525E-02 -3.184909710E-01
 1.599412385E-01 8.761598795E-02 -3.430710698E-01
 1.986782715E-01 1.119140121E-01 -3.503034032E-01
 1.888389356E-01 8.175956958E-02 -3.861046447E-01
 2.096419147E-01 8.259030563E-02 -3.982547672E-01
 2.339634395E-01 9.126804317E-02 -4.033553497E-01
 2.279784508E-01 1.363501766E-01 -3.393114308E-01