TITLE     = "Visualization of the solution"
VARIABLES = "x"
"y"
"Pressure_Coefficient"
ZONE T="Zone"
 STRANDID=0, SOLUTIONTIME=0
 Nodes=711, Elements=1207, ZONETYPE=FEQuadrilateral
 DATAPACKING=POINT
 DT=(DOUBLE DOUBLE DOUBLE )
 1.000134706E+00 5.157476407E-04 2.255083960E-01
 9.890984297E-01 2.744471654E-03 2.086559724E-01
 9.773333073E-01 5.138047971E-03 1.597397122E-01
 9.612792134E-01 8.366497234E-03 1.084891515E-01
 9.468870163E-01 1.134054549E-02 4.773688953E-02
 9.321053624E-01 1.430836041E-02 1.243318477E-02
 9.204928875E-01 1.665305346E-02 -2.520351395E-02
 9.085639715E-01 1.896269433E-02 -5.278257756E-02
 8.971133232E-01 2.120335214E-02 -8.350583564E-02
 8.854066133E-01 2.341582254E-02 -1.079695455E-01
 8.732891083E-01 2.566455677E-02 -1.289457638E-01
 8.608258367E-01 2.790122107E-02 -1.542967532E-01
 8.482857347E-01 3.012672998E-02 -1.757391035E-01
 8.372058868E-01 3.199101612E-02 -1.849420248E-01
 8.254736066E-01 3.394448385E-02 -2.003546030E-01
 8.128902316E-01 3.602528945E-02 -2.232841963E-01
 8.001515865E-01 3.809796274E-02 -2.451252149E-01
 7.872210741E-01 4.010788351E-02 -2.567042745E-01
 7.744680643E-01 4.202022403E-02 -2.701794618E-01
 7.626369596E-01 4.379050806E-02 -2.857890768E-01
 7.491703033E-01 4.573845863E-02 -3.046640713E-01
 7.352317572E-01 4.772131145E-02 -3.202565406E-01
 7.243819833E-01 4.919126257E-02 -3.340075427E-01
 7.134736776E-01 5.067266151E-02 -3.502928676E-01
 7.018234730E-01 5.218677595E-02 -3.656635163E-01
 6.884258986E-01 5.388902500E-02 -3.847902081E-01
 6.754536033E-01 5.545791239E-02 -3.984268463E-01
 6.653730273E-01 5.662954971E-02 -4.086750418E-01
 6.539839506E-01 5.790357292E-02 -4.246990447E-01
 6.421185732E-01 5.919743702E-02 -4.391384599E-01
 6.301791072E-01 6.040732935E-02 -4.492206112E-01
 6.186382174E-01 6.152766198E-02 -4.620981673E-01
 6.080759764E-01 6.249828637E-02 -4.731805098E-01
 5.954997540E-01 6.359350681E-02 -4.842168621E-01
 5.840451121E-01 6.450898945E-02 -4.943400359E-01
 5.706786513E-01 6.550544500E-02 -5.038846493E-01
 5.582745075E-01 6.633252650E-02 -5.117363214E-01
 5.462840796E-01 6.707144529E-02 -5.198022370E-01
 5.353717208E-01 6.766553223E-02 -5.217741172E-01
 5.238649249E-01 6.822630018E-02 -5.269815703E-01
 5.115571618E-01 6.876363605E-02 -5.329613432E-01
 5.002602339E-01 6.918178499E-02 -5.364632566E-01
 4.870360494E-01 6.958635151E-02 -5.326307161E-01
 4.732652009E-01 6.988947093E-02 -5.285930017E-01
 4.594310820E-01 7.013895363E-02 -5.322895638E-01
 4.461666346E-01 7.029497623E-02 -5.335379230E-01
 4.335122705E-01 7.034904510E-02 -5.320998034E-01
 4.209102988E-01 7.033101469E-02 -5.289908336E-01
 4.085142910E-01 7.023143768E-02 -5.244641854E-01
 3.964733183E-01 7.008191943E-02 -5.198503268E-01
 3.842489719E-01 6.985268742E-02 -5.176171413E-01
 3.728526235E-01 6.959048659E-02 -5.160421879E-01
 3.598283827E-01 6.922072172E-02 -5.096060939E-01
 3.471035361E-01 6.876806915E-02 -5.044147972E-01
 3.339070976E-01 6.823319942E-02 -5.022083263E-01
 3.227518499E-01 6.772249192E-02 -4.962320496E-01
 3.097811043E-01 6.705339998E-02 -4.941689850E-01
 2.967082262E-01 6.630932540E-02 -4.871388228E-01
 2.826518118E-01 6.540108472E-02 -4.811049655E-01
 2.704218030E-01 6.453774124E-02 -4.788095060E-01
 2.585726380E-01 6.363725662E-02 -4.734092780E-01
 2.460707724E-01 6.259228289E-02 -4.647160612E-01
 2.338398099E-01 6.149820983E-02 -4.593575743E-01
 2.213503867E-01 6.029263511E-02 -4.534187973E-01
 2.096283883E-01 5.908579007E-02 -4.446223559E-01
 1.978290826E-01 5.778394267E-02 -4.359587382E-01
 1.854859442E-01 5.633053184E-02 -4.279691112E-01
 1.736414433E-01 5.484107137E-02 -4.214170537E-01
 1.625090092E-01 5.334836617E-02 -4.111163508E-01
 1.505593807E-01 5.163819715E-02 -3.995872929E-01
 1.400260776E-01 5.003292486E-02 -3.879907394E-01
 1.284076124E-01 4.816764593E-02 -3.768168372E-01
 1.170898899E-01 4.621500522E-02 -3.636293420E-01
 1.065351292E-01 4.427375644E-02 -3.519633693E-01
 9.673085809E-02 4.235524684E-02 -3.348036010E-01
 8.574289083E-02 4.005499929E-02 -3.132174070E-01
 7.399181277E-02 3.739088774E-02 -2.922654699E-01
 6.395118684E-02 3.492008150E-02 -2.695031563E-01
 5.399693176E-02 3.226135671E-02 -2.377645702E-01
 4.531983286E-02 2.972590737E-02 -2.122601554E-01
 3.791100159E-02 2.736997604E-02 -1.819804767E-01
 3.131058067E-02 2.507234365E-02 -1.419412236E-01
 2.564093098E-02 2.292189747E-02 -1.066502902E-01
 2.154667117E-02 2.123148181E-02 -5.872541486E-02
 1.761354320E-02 1.946808584E-02 -4.325304526E-03
 1.447562966E-02 1.793828793E-02 5.310323992E-02
 1.158718392E-02 1.639560983E-02 8.927365949E-02
 9.420192800E-03 1.513630524E-02 1.140168156E-01
 7.574033923E-03 1.397264004E-02 1.442792475E-01
 5.913332105E-03 1.282922179E-02 2.433990381E-01
 3.733623074E-03 1.113761775E-02 3.638848946E-01
 1.818402670E-03 9.361928329E-03 3.413765702E-01
 2.272022248E-04 7.511320990E-03 6.788515684E-01
 -1.305731828E-03 4.872526973E-03 9.665434142E-01
 -1.872711000E-03 2.914257813E-03 9.863199680E-01
 -1.977307489E-03 1.400935464E-03 1.222279175E+00
 -1.775271259E-03 -1.762060710E-04 1.195723294E+00
 -1.280593686E-03 -1.697054598E-03 8.604845050E-01
 -2.820211521E-04 -3.544898704E-03 8.159033378E-01
 1.146328868E-03 -5.383318756E-03 6.793047942E-01
 3.084606491E-03 -7.284515072E-03 4.968555443E-01
 4.877684638E-03 -8.723457344E-03 2.226114924E-01
 6.880724337E-03 -1.011327468E-02 2.222554447E-01
 8.507960476E-03 -1.112570800E-02 1.101220043E-01
 1.059067994E-02 -1.230409648E-02 1.097789666E-01
 1.293977816E-02 -1.350632124E-02 5.938544769E-02
 1.625529677E-02 -1.504003908E-02 1.572768308E-02
 1.911449991E-02 -1.623851806E-02 -2.735427947E-02
 2.288835868E-02 -1.767939515E-02 -6.738628058E-02
 2.813574858E-02 -1.949605905E-02 -8.778339142E-02
 3.392805904E-02 -2.129675262E-02 -1.169377709E-01
 4.093834758E-02 -2.325285599E-02 -1.413639098E-01
 4.843416065E-02 -2.514073253E-02 -1.548346261E-01
 5.746323615E-02 -2.721553668E-02 -1.684538450E-01
 6.623019278E-02 -2.905076928E-02 -1.867425953E-01
 7.631700486E-02 -3.100321069E-02 -1.992401661E-01
 8.621126413E-02 -3.277276829E-02 -2.056599435E-01
 9.625906497E-02 -3.444937989E-02 -2.128322453E-01
 1.073326841E-01 -3.618581966E-02 -2.210219609E-01
 1.185554117E-01 -3.783135116E-02 -2.321566602E-01
 1.303588301E-01 -3.945708275E-02 -2.405654579E-01
 1.411054134E-01 -4.085538164E-02 -2.510103062E-01
 1.522813737E-01 -4.222555086E-02 -2.582963165E-01
 1.646307111E-01 -4.366178438E-02 -2.682474398E-01
 1.762858331E-01 -4.492494091E-02 -2.788787471E-01
 1.882280707E-01 -4.615543783E-02 -2.876132792E-01
 1.990364045E-01 -4.720157385E-02 -2.996050471E-01
 2.102926373E-01 -4.822305590E-02 -3.090633375E-01
 2.224422097E-01 -4.924300686E-02 -3.176845197E-01
 2.352165133E-01 -5.024094507E-02 -3.276880245E-01
 2.476884127E-01 -5.112482980E-02 -3.386774996E-01
 2.601830065E-01 -5.193981156E-02 -3.493129836E-01
 2.713400126E-01 -5.257932842E-02 -3.607649177E-01
 2.838489711E-01 -5.322382972E-02 -3.685542337E-01
 2.961939275E-01 -5.375878140E-02 -3.787553479E-01
 3.090536892E-01 -5.421616882E-02 -3.863370529E-01
 3.210461438E-01 -5.454180762E-02 -3.935540166E-01
 3.337770700E-01 -5.479979888E-02 -4.014361238E-01
 3.447974920E-01 -5.490322039E-02 -4.077795126E-01
 3.563527167E-01 -5.492933095E-02 -4.059918774E-01
 3.671063185E-01 -5.486541241E-02 -4.100882725E-01
 3.778063059E-01 -5.470483005E-02 -4.093382825E-01
 3.894165754E-01 -5.442932248E-02 -4.047059107E-01
 4.026692212E-01 -5.397552997E-02 -3.979871092E-01
 4.151954055E-01 -5.341293290E-02 -3.889643535E-01
 4.279052615E-01 -5.271448940E-02 -3.748565370E-01
 4.403299093E-01 -5.191982910E-02 -3.610099465E-01
 4.520456493E-01 -5.105584860E-02 -3.480908937E-01
 4.635613859E-01 -5.007290840E-02 -3.237361530E-01
 4.759134352E-01 -4.896745458E-02 -3.003879886E-01
 4.872605801E-01 -4.784184694E-02 -2.809221726E-01
 5.001158118E-01 -4.649468511E-02 -2.561718289E-01
 5.137287974E-01 -4.495672509E-02 -2.279358229E-01
 5.273377299E-01 -4.336067662E-02 -1.996407219E-01
 5.406721830E-01 -4.170744121E-02 -1.738136223E-01
 5.530255437E-01 -4.013412818E-02 -1.464714583E-01
 5.665061474E-01 -3.838943318E-02 -1.224262316E-01
 5.792756677E-01 -3.669798374E-02 -9.983816363E-02
 5.913079381E-01 -3.509083763E-02 -7.852475016E-02
 6.038521528E-01 -3.338569403E-02 -5.847244285E-02
 6.183822751E-01 -3.138727322E-02 -3.269748434E-02
 6.331188083E-01 -2.938560769E-02 -1.184590449E-02
 6.483241916E-01 -2.728056163E-02 9.244907184E-03
 6.611410379E-01 -2.552533522E-02 3.348404640E-02
 6.746645570E-01 -2.370262891E-02 4.716319167E-02
 6.870643497E-01 -2.200022712E-02 6.616199610E-02
 6.994841695E-01 -2.035330236E-02 8.478025819E-02
 7.139113545E-01 -1.842623204E-02 1.002798713E-01
 7.272778153E-01 -1.671249792E-02 1.183218462E-01
 7.394118905E-01 -1.516141929E-02 1.307362754E-01
 7.526298761E-01 -1.347247511E-02 1.500466010E-01
 7.647351027E-01 -1.198393758E-02 1.682458428E-01
 7.783194780E-01 -1.039188821E-02 1.784896681E-01
 7.901646495E-01 -9.019608609E-03 1.908646514E-01
 8.030830622E-01 -7.554401178E-03 2.078900323E-01
 8.140578866E-01 -6.363171153E-03 2.248252120E-01
 8.257719278E-01 -5.163332447E-03 2.347610576E-01
 8.383866549E-01 -3.903732402E-03 2.504730247E-01
 8.508486152E-01 -2.777565736E-03 2.661019228E-01
 8.630665541E-01 -1.759593491E-03 2.770531874E-01
 8.746147156E-01 -8.992732037E-04 2.884397540E-01
 8.865610957E-01 -1.202272906E-04 2.971660584E-01
 8.995284438E-01 5.908884923E-04 3.050586221E-01
 9.099452496E-01 1.038031885E-03 3.123457785E-01
 9.201874733E-01 1.387121971E-03 3.129307770E-01
 9.297039509E-01 1.612287830E-03 3.154887851E-01
 9.379619360E-01 1.740337466E-03 3.148063517E-01
 9.490923882E-01 1.806059852E-03 3.134483170E-01
 9.616612196E-01 1.742018270E-03 3.089285618E-01
 9.757936597E-01 1.490172348E-03 3.156102397E-01
 9.880552888E-01 1.099843415E-03 3.341803570E-01
 -5.000000000E-01 -1.000000000E+00 2.937295284E-02
 3.500000000E+00 -1.000000000E+00 1.576862747E-02
 3.500000000E+00 1.000000000E+00 -7.557137356E-04
 -5.000000000E-01 1.000000000E+00 -3.530490362E-03
 -5.000000000E-01 5.000000000E-01 3.083747446E-02
 -5.000000000E-01 2.752797990E-12 9.231569739E-02
 -5.000000000E-01 -5.000000000E-01 5.976634418E-02
 -9.421907698E-13 -1.000000000E+00 1.662937180E-02
 5.000000000E-01 -1.000000000E+00 -2.824908104E-03
 1.000000000E+00 -1.000000000E+00 1.837077555E-02
 1.500000000E+00 -1.000000000E+00 3.231626200E-02
 2.000000000E+00 -1.000000000E+00 2.844497974E-02
 2.500000000E+00 -1.000000000E+00 2.077443432E-02
 3.000000000E+00 -1.000000000E+00 1.668966028E-02
 3.500000000E+00 -5.000000000E-01 1.917264987E-02
 3.500000000E+00 -2.752797990E-12 1.904278706E-02
 3.500000000E+00 5.000000000E-01 7.465554039E-03
 3.000000000E+00 1.000000000E+00 -2.896702368E-03
 2.500000000E+00 1.000000000E+00 -9.297600681E-03
 2.000000000E+00 1.000000000E+00 -2.457537878E-02
 1.500000000E+00 1.000000000E+00 -5.719919156E-02
 1.000000000E+00 1.000000000E+00 -1.063599098E-01
 5.000000000E-01 1.000000000E+00 -1.009266256E-01
 1.733724275E-12 1.000000000E+00 -3.329520413E-02
 6.866212039E-01 -3.180927704E-02 6.102655733E-02
 7.845387545E-01 -2.148187472E-02 1.790022152E-01
 9.061725170E-01 -9.370965075E-03 2.932710660E-01
 2.725961524E-01 -6.342477390E-02 -3.439566529E-01
 6.962806033E-01 6.455038410E-02 -3.645479465E-01
 2.889721107E-01 7.681117041E-02 -4.690713192E-01
 9.050620067E-01 3.156532897E-02 -6.368670346E-02
 5.756287461E-01 -5.055435941E-02 -1.051778855E-01
 7.945164616E-01 5.160156682E-02 -2.414047766E-01
 6.026180266E-01 7.257849382E-02 -4.653098803E-01
 4.105178740E-01 -6.489954088E-02 -3.684982817E-01
 4.394538535E-01 8.592603485E-02 -5.091053246E-01
 1.838537564E+00 -5.956606804E-01 2.812655479E-02
 1.739455239E+00 6.105666604E-01 -1.750700924E-02
 3.031171008E+00 2.156861352E-01 1.033483447E-02
 7.326785707E-01 -5.781829210E-01 8.091792735E-03
 4.936782352E-01 -5.940146769E-02 -2.546868813E-01
 7.542762729E-01 5.452733348E-01 -1.533667970E-01
 5.180808753E-01 7.910967830E-02 -5.120091957E-01
 3.514824955E-01 6.032816509E-01 -1.588919892E-01
 1.207270392E-01 5.708359950E-02 -3.466926343E-01
 1.812814130E-01 6.788950966E-02 -4.058191767E-01
 3.664493267E-01 8.069547905E-02 -4.979455392E-01
 2.734859206E+00 -5.326803689E-01 1.642297447E-02
 1.188042833E+00 6.128340938E-01 -6.293950197E-02
 9.869297997E-01 3.554571209E-01 -7.415296770E-02
 1.253203351E+00 -6.074239338E-01 4.654592388E-02
 1.524128319E+00 -2.452707017E-01 3.250331657E-02
 2.036734342E-01 -5.754514479E-01 -1.534605461E-02
 7.886092103E-02 -4.108169895E-02 -1.765373087E-01
 1.379192335E-01 -5.076046884E-02 -2.312178940E-01
 1.924117228E-01 -5.841795545E-02 -2.786956274E-01
 2.249310610E+00 -5.879871990E-01 1.947089130E-02
 1.990597032E+00 -2.098860529E-01 1.759790043E-02
 2.414575243E+00 -1.861007535E-01 1.176550879E-02
 2.184658339E+00 1.583145757E-01 5.342095571E-03
 1.816342027E+00 1.051743799E-01 8.272970740E-03
 -2.709634181E-01 -2.545830190E-01 1.048156764E-01
 -1.626378411E-01 -5.710217596E-01 3.332968661E-02
 -2.748600779E-01 2.309716474E-01 7.995986914E-02
 -1.275302109E-01 6.435851111E-01 -2.528077791E-02
 2.485551662E-02 3.300025683E-01 -5.261478003E-02
 4.954571096E-02 4.169819837E-02 -1.758011219E-01
 2.212852057E+00 5.745996080E-01 -5.735049759E-03
 2.741637975E+00 5.994194081E-01 2.414608293E-03
 -2.509839142E-01 -9.843958989E-04 1.461445878E-01
 -1.420185368E-01 -1.287481342E-01 1.644037506E-01
 3.258997210E-02 -2.979441148E-02 -5.476269028E-02
 3.227879350E-02 -3.714756116E-01 1.416820141E-02
 2.941850747E-01 -2.954946239E-01 -1.196870750E-01
 3.511499728E-01 -6.469785348E-02 -3.880620120E-01
 3.177298454E-01 -6.595825496E-02 -3.720236839E-01
 -1.465313374E-01 1.181116030E-01 1.360305220E-01
 -1.231478468E-01 -4.125198668E-03 2.471611262E-01
 -5.673099517E-02 -6.650166477E-02 2.627392435E-01
 -4.995744249E-02 -1.498964334E-01 1.220240921E-01
 2.778297254E-03 -9.327915807E-02 1.347925559E-01
 2.698836772E-02 -2.000781840E-01 2.226323555E-02
 1.739519637E-02 -1.881068669E-02 1.967215147E-02
 -1.509961792E-02 -5.226325711E-02 2.855602387E-01
 -4.962278734E-02 5.131666881E-03 4.349435019E-01
 6.683416900E-02 -1.066425161E-01 -5.133949946E-02
 1.151602609E-01 -1.579644820E-01 -8.906191105E-02
 1.206381625E-01 -9.796865325E-02 -1.497533365E-01
 1.766460067E-01 -1.243086357E-01 -1.880267106E-01
 2.422108521E-01 -6.420365489E-02 -3.164827636E-01
 1.880177562E-01 -1.904648447E-01 -1.418376857E-01
 2.375401908E-01 -1.485645489E-01 -2.181074427E-01
 1.232167495E-01 -2.658233041E-01 -5.746982665E-02
 1.578866267E-01 -8.587860913E-02 -2.098988712E-01
 1.674079710E-01 -5.342795137E-02 -2.570443801E-01
 2.246079619E-01 -1.061865319E-01 -2.513839146E-01
 2.154283802E-01 -6.164920049E-02 -2.961739881E-01
 2.707188669E-01 -1.098829981E-01 -2.787319100E-01
 2.962712561E-01 -1.551568911E-01 -2.352326404E-01
 3.172951415E-01 -1.117179808E-01 -3.014996525E-01
 3.494057592E-01 -1.520051255E-01 -2.491145513E-01
 3.604465196E-01 -1.072473981E-01 -3.118236975E-01
 3.989418526E-01 -1.410886333E-01 -2.576400660E-01
 4.561464012E-01 -6.384968442E-02 -3.140105171E-01
 4.337785659E-01 -6.431240360E-02 -3.459899755E-01
 3.809640422E-01 -6.645891927E-02 -3.830879514E-01
 3.950310118E-01 -1.881102775E-01 -2.082689601E-01
 4.578024737E-01 -1.799108157E-01 -1.827395398E-01
 4.159244396E-01 -2.617763368E-01 -1.373215679E-01
 5.237177761E-01 -2.266412844E-01 -1.040673919E-01
 6.276490524E-01 -4.386055838E-02 -2.069563222E-02
 5.520358353E-01 -1.478382166E-01 -1.105344177E-01
 6.146673523E-01 -1.997271641E-01 -3.748659253E-02
 5.353657991E-01 -5.714639097E-02 -1.772915098E-01
 5.250035802E-01 -3.431305360E-01 -6.783831878E-02
 6.257599916E-01 -1.284401631E-01 -2.852678221E-02
 6.858844805E-01 -1.746393423E-01 2.514806432E-02
 7.374471127E-01 -2.968720532E-02 1.225785218E-01
 7.612586827E-01 -2.523427190E-02 1.535929449E-01
 6.899199199E-01 -2.629843284E-01 1.725964403E-02
 7.675823442E-01 -2.008725791E-01 7.957517792E-02
 9.685358175E-01 -9.136862407E-03 3.029406841E-01
 9.430147149E-01 -8.254770585E-03 3.009227976E-01
 8.465331952E-01 -1.656651339E-02 2.461826714E-01
 8.211821900E-01 -1.809084356E-02 2.192065204E-01
 8.708957730E-01 -1.318307340E-02 2.705332298E-01
 7.774074618E-01 -1.177380164E-01 1.166198962E-01
 8.547247353E-01 -1.434641204E-01 1.426442420E-01
 8.653028067E-01 -2.269061046E-01 1.043670833E-01
 9.471079714E-01 -1.799152481E-01 1.426764916E-01
 9.715568002E-01 -2.910108367E-01 9.450533015E-02
 1.061946660E+00 -1.874814484E-01 1.158138652E-01
 9.195039577E-01 -9.701797650E-02 1.994328108E-01
 9.940868034E-01 -1.172554749E-01 1.706984745E-01
 1.117308315E+00 -1.025674464E-01 1.054239895E-01
 1.178360798E+00 -2.010297331E-01 8.020203274E-02
 1.234944646E+00 -7.795071148E-02 6.866781474E-02
 1.147056567E+00 1.087967080E-02 7.595999171E-02
 1.301865105E+00 5.507837147E-02 3.915224437E-02
 1.065672253E+00 -4.125722757E-02 1.404212170E-01
 8.275044818E-01 -8.638596938E-02 1.695748026E-01
 1.166776202E+00 1.629642316E-01 2.513183349E-02
 1.373713821E+00 2.314360079E-01 7.446431726E-03
 7.038651507E-01 -9.766005142E-02 5.978011987E-02
 1.072439443E+00 1.878689722E-02 1.267695252E-01
 9.858728560E-01 1.540756673E-02 2.301490661E-01
 1.037850742E+00 1.562766289E-01 2.052072898E-02
 4.879494325E-01 -1.233868058E-01 -1.962640082E-01
 7.854081157E-01 -6.333761201E-02 1.557486335E-01
 6.597063716E-01 -8.784271301E-02 1.249908487E-02
 6.590489439E-01 -3.899986878E-02 2.658616962E-02
 4.394937257E-01 -1.104188760E-01 -2.633153959E-01
 9.651183415E-01 -6.711667064E-02 2.212086273E-01
 9.257074742E-01 -4.486990569E-02 2.495997975E-01
 1.166056982E+00 3.721477431E-01 -3.705117834E-02
 5.765192181E-01 -9.521759511E-02 -9.550597962E-02
 5.264589033E-01 -9.799759658E-02 -1.698986990E-01
 1.140735940E+00 -3.402864572E-01 7.280741712E-02
 9.744391989E-01 -4.782936577E-01 5.796436113E-02
 1.420632539E+00 -9.083042331E-02 3.773007837E-02
 1.424080941E+00 4.593404646E-01 -1.918434942E-02
 8.163191478E-01 -5.147921581E-02 1.893365050E-01
 8.515230742E-01 -5.639863928E-02 2.105114693E-01
 6.183369070E-01 -8.185997046E-02 -3.829175589E-02
 6.007011902E-01 -4.657820886E-02 -6.466116243E-02
 8.092915315E-01 -3.467039119E-01 5.280047331E-02
 6.578872261E-01 -3.892939368E-01 -5.901748330E-04
 5.270331322E-01 -5.143305723E-01 -3.981954874E-02
 3.109366816E+00 -2.612650692E-01 1.658160379E-02
 3.979162445E-01 -9.809657650E-02 -3.187542669E-01
 9.516093620E-01 -3.748922819E-02 2.676398078E-01
 9.884614247E-01 -4.299917135E-02 2.286858465E-01
 3.828718912E-02 -7.276246939E-02 3.330337346E-02
 6.043137341E-02 -3.677101789E-02 -1.399426234E-01
 1.594528032E-02 -5.049514494E-02 1.214030082E-01
 9.804288231E-01 -8.523537744E-03 2.830040167E-01
 8.929301732E-01 -1.076527115E-02 2.854589710E-01
 9.028482310E-01 -2.663949737E-02 2.704005668E-01
 9.181209075E-01 -1.919736250E-02 2.866355247E-01
 8.890665224E-01 -5.172468338E-02 2.376840536E-01
 8.837157873E-01 -2.380048334E-02 2.660250861E-01
 9.252257033E-01 -8.082115408E-03 3.007961759E-01
 9.340461850E-01 -1.965538477E-02 2.810971684E-01
 -2.546997462E-02 -2.611071551E-02 4.797774372E-01
 4.206563547E-03 -1.131684458E-02 3.671655994E-01
 7.986477963E-01 -1.969218029E-02 1.954989274E-01
 7.950353211E-01 -3.695130211E-02 1.794246005E-01
 7.757511462E-01 -3.533141558E-02 1.617325680E-01
 7.554797838E-01 -4.305353938E-02 1.381755131E-01
 7.335568915E-01 -4.882245189E-02 1.124128675E-01
 7.060419761E-01 -3.152076910E-02 8.660038513E-02
 7.503914772E-01 -7.709555585E-02 1.103241709E-01
 7.728822289E-01 -2.118331067E-02 1.673477614E-01
 8.684645543E-01 -8.699827779E-02 1.926669086E-01
 9.540045135E-01 -6.699199814E-03 3.010526842E-01
 5.090209402E-01 -5.854086800E-02 -2.264143689E-01
 5.043740850E-01 -7.628721548E-02 -2.175391940E-01
 4.835367966E-01 -7.260772537E-02 -2.566328055E-01
 5.234288551E-01 -7.148802615E-02 -1.885598410E-01
 5.489370815E-01 -7.054859423E-02 -1.457828857E-01
 4.826546776E-01 -5.916773113E-02 -2.761817658E-01
 4.645308630E-01 -8.469698878E-02 -2.712287141E-01
 5.606089459E-01 -5.350623037E-02 -1.313682515E-01
 5.700764227E-01 -6.621074033E-02 -1.075238296E-01
 3.965704978E-01 -6.589334876E-02 -3.790808074E-01
 7.492454692E-01 -2.532178220E-02 1.384533227E-01
 8.107701891E-01 -2.980802333E-02 2.008695492E-01
 8.346141901E-01 -3.230197542E-02 2.198236673E-01
 6.448250050E-01 -4.323912265E-02 3.982573593E-03
 2.586114664E-01 -2.110443739E-01 -1.698898238E-01
 2.944954919E-01 -8.637973541E-02 -3.243548929E-01
 2.867931189E-01 -6.717104069E-02 -3.492780779E-01
 -3.920718797E-03 -3.287202663E-02 3.557537487E-01
 6.143042904E-01 -4.289576693E-02 -4.169230331E-02
 9.135045592E-02 -7.831499707E-02 -1.254768516E-01
 1.087679197E-01 -4.839092378E-02 -2.053393415E-01
 9.159303701E-01 -6.845057825E-03 3.006199939E-01
 9.339904980E-01 -6.527929094E-03 3.045330204E-01
 6.389753656E-01 -6.280204588E-02 -7.475179901E-03
 4.710572599E-01 -6.322708211E-02 -2.912341178E-01
 8.332976316E-01 -1.520527944E-02 2.345842480E-01
 5.219096391E-01 -5.589456034E-02 -2.033508319E-01
 5.477219107E-01 -5.260855699E-02 -1.539683717E-01
 7.224267784E-01 -3.069017839E-02 1.078194531E-01
 6.660496805E-02 -6.853885927E-02 -9.499875728E-02
 4.641313164E-02 -5.063920149E-02 -5.779567341E-02
 2.173400262E-02 -3.269399446E-02 4.324801872E-02
 2.473246887E-02 -2.351505902E-02 -2.499861308E-02
 5.907369228E-01 -6.251991756E-02 -7.788390932E-02
 8.593314719E-01 -1.285108919E-02 2.618285732E-01
 8.631180649E-01 -2.966722625E-02 2.455456153E-01
 3.358282084E-01 -9.141462877E-02 -3.360797914E-01
 8.817435089E-01 -9.753665678E-03 2.818394994E-01
 9.328538668E-02 -5.555842365E-02 -1.629929907E-01
 9.908757729E-02 -4.336788237E-02 -2.014577621E-01
 1.944462993E-01 -9.038664226E-02 -2.399715886E-01
 1.502500322E-01 -6.390316956E-02 -2.292867462E-01
 1.312718992E-01 -6.942985732E-02 -1.992742179E-01
 5.875300930E-01 -4.628826144E-02 -8.581857541E-02
 8.096403365E-01 -1.681544568E-02 2.098327892E-01
 9.074084282E-02 -4.144603063E-02 -1.943415878E-01
 1.106338365E-01 -6.684806599E-02 -1.763362540E-01
 2.556848451E+00 2.075495647E-01 5.263922873E-03
 4.449131812E-01 -6.173428251E-02 -3.363133318E-01
 4.436605832E-01 -7.716365408E-02 -3.113819466E-01
 4.219634373E-01 -7.930473242E-02 -3.341969260E-01
 1.324377573E+00 -2.956593568E-01 5.143207269E-02
 1.638902329E+00 -7.586324032E-02 2.252121042E-02
 3.558955471E-01 -3.993048367E-01 -7.683881581E-02
 1.785105426E-01 -6.930761736E-02 -2.491041785E-01
 2.018418245E-01 -7.086898407E-02 -2.728432382E-01
 3.164348831E-01 -8.219450488E-02 -3.444633122E-01
 3.314488642E-01 -7.485497914E-02 -3.636871092E-01
 2.228293323E-01 -7.709974687E-02 -2.826898874E-01
 2.480746349E-01 -8.467694527E-02 -2.949990464E-01
 2.584305002E-01 -6.867185242E-02 -3.252945188E-01
 3.283528236E-01 -2.072741364E-01 -1.870801421E-01
 2.715696308E-01 -8.101666942E-02 -3.193883560E-01
 -7.825968577E-03 -1.499613438E-02 6.391641044E-01
 -1.082110688E-03 -5.640607970E-03 7.645294649E-01
 -1.883224125E-02 -2.052289074E-03 6.621332668E-01
 -8.012111467E-03 -3.688666124E-03 9.009644838E-01
 -7.111900716E-03 4.780382817E-03 9.775961675E-01
 -3.330717509E-03 4.798196011E-04 1.043997061E+00
 3.034501593E-01 -6.827974769E-02 -3.595774557E-01
 3.902209087E-01 -7.700297491E-02 -3.585274862E-01
 3.741602237E-01 -8.294225892E-02 -3.524178349E-01
 4.434688777E-02 -3.667341396E-02 -8.977877222E-02
 1.702160532E+00 -3.267008424E-01 2.830404226E-02
 1.509631039E+00 9.395507008E-02 1.603210211E-02
 9.906070433E-01 5.533468322E-01 -8.015078748E-02
 7.691127220E-01 3.491412193E-01 -1.778241127E-01
 8.766275181E-01 4.246882119E-01 -1.237972932E-01
 8.750572094E-01 2.131119483E-01 -1.202975295E-01
 8.449808094E-01 4.512105645E-02 -1.699647177E-01
 7.505314380E-01 1.758118646E-01 -2.403154920E-01
 6.496563304E-01 7.158199919E-02 -4.144449007E-01
 6.763321770E-01 6.595011707E-02 -3.888016022E-01
 7.445191029E-01 5.930970927E-02 -3.015508702E-01
 7.160512166E-01 6.070143617E-02 -3.395952316E-01
 5.502404794E-01 5.018073662E-01 -1.816132634E-01
 5.541087814E-01 2.630937323E-01 -3.208853880E-01
 5.519128741E-01 6.783748078E-01 -1.577350210E-01
 3.069324089E-01 3.764042929E-01 -2.253409772E-01
 1.569141932E-01 4.967779459E-01 -1.023836015E-01
 4.569932114E-01 3.514006658E-01 -2.585016391E-01
 4.142508463E-01 2.297906784E-01 -3.500693060E-01
 2.825821433E-01 2.373099653E-01 -2.988419194E-01
 2.252954030E-01 7.463216409E-02 -4.323808967E-01
 2.460210581E-01 7.673453596E-02 -4.452018192E-01
 2.024245089E-01 6.861168845E-02 -4.234079743E-01
 5.061789938E-01 1.833251447E-01 -3.909791232E-01
 5.646078914E-01 7.756925613E-02 -4.912889653E-01
 5.404673209E-01 7.684050729E-02 -5.081717330E-01
 4.824942119E-01 8.182306814E-02 -5.154284272E-01
 3.197453979E-02 -4.005813892E-02 1.045077174E-02
 6.623980759E-01 -6.074281060E-02 2.408935261E-02
 6.917133883E-01 -6.431194024E-02 5.784458518E-02
 1.040647660E-02 -3.056491318E-02 1.853596213E-01
 1.037218371E-02 -1.517847749E-02 1.470979790E-01
 1.207754911E-03 -2.117681138E-02 3.386368784E-01
 1.705694807E-02 -2.538040827E-02 8.385883664E-02
 1.080237821E-02 -2.056123546E-02 1.948792820E-01
 1.355296664E-02 -1.661935199E-02 9.738534980E-02
 3.133974596E+00 6.339745962E-01 1.621057858E-03
 9.543574741E-01 -1.756868279E-02 2.829059959E-01
 4.219463989E-01 -6.325669057E-02 -3.612142002E-01
 3.133974596E+00 -6.339745962E-01 1.565736704E-02
 -9.882681768E-02 -2.873046291E-01 6.218652986E-02
 1.229178551E-01 -5.211962497E-02 -2.130740965E-01
 1.053637408E+00 -1.028688183E-01 1.457140289E-01
 1.013626784E+00 -7.114706705E-02 1.858046023E-01
 1.951036734E+00 3.562238193E-01 -3.818771598E-03
 9.449667714E-01 -7.324617278E-01 1.922828683E-02
 6.022391709E-01 -2.843554499E-01 -3.418314517E-02
 1.019367056E+00 -3.725295016E-02 2.062981693E-01
 1.002905265E+00 -2.270665702E-02 2.553910613E-01
 1.027515083E+00 -7.875709964E-03 1.680032242E-01
 7.158575644E-01 -4.533644039E-02 9.010039736E-02
 2.276254575E-01 -6.048731083E-02 -3.083289722E-01
 1.807137252E-01 -5.454175073E-02 -2.709420064E-01
 2.039989784E-01 -5.772321823E-02 -2.909468927E-01
 2.629823118E-01 -5.943897095E-02 -3.424191993E-01
 7.185586496E-01 -6.692577540E-02 8.722381132E-02
 1.439192594E+00 7.157254157E-01 -4.964385620E-02
 -7.460320307E-02 6.457929923E-02 2.529133447E-01
 -4.127931099E-02 1.474405743E-01 9.216167460E-02
 2.214954866E-02 2.557473143E-02 -4.309947577E-02
 -1.392984315E-02 8.506030430E-02 1.635741540E-01
 1.952572902E-03 1.531174645E-02 5.293642966E-01
 3.835057406E-02 1.331857539E-01 -3.654844842E-02
 9.043512051E-02 5.248087335E-02 -2.891060965E-01
 3.857509019E-02 8.593236464E-02 -5.198459876E-02
 9.101780672E-02 1.033831157E-01 -1.986998658E-01
 1.040283930E-01 1.640672554E-01 -1.891986638E-01
 1.459452162E-01 1.158505652E-01 -2.885754173E-01
 1.727001824E-01 1.769885674E-01 -2.647861934E-01
 2.033761311E-01 1.271410810E-01 -3.422803482E-01
 1.183182611E-02 6.001817090E-02 1.316195359E-01
 -2.570397588E-02 4.427950101E-02 3.815850264E-01
 1.299836210E-01 2.382323432E-01 -1.604477218E-01
 -1.270341955E-03 3.883836468E-02 2.787110185E-01
 9.180800985E-03 1.794352767E-02 1.211998452E-01
 1.480770790E-02 2.222182414E-02 6.134834910E-02
 1.785300593E-01 1.000904266E-01 -3.566580564E-01
 1.545481780E-01 8.110725392E-02 -3.580621365E-01
 1.437877218E-01 6.349663508E-02 -3.704374707E-01
 1.552736926E-01 6.230421994E-02 -3.846625469E-01
 1.277765802E-01 7.738680431E-02 -3.149141189E-01
 1.004765163E-01 7.782583202E-02 -2.664854279E-01
 1.326971919E-01 5.856591350E-02 -3.618056298E-01
 -1.208926346E-02 1.756206406E-02 6.487589947E-01
 5.256570475E-03 2.578263948E-02 2.867167456E-01
 1.448830136E-02 4.002533616E-02 7.867267078E-02
 3.667118913E-02 3.503324793E-02 -1.148902899E-01
 1.045766726E-01 6.163181436E-02 -3.043744585E-01
 7.755695658E-02 6.742182687E-02 -2.205352692E-01
 6.559742835E-02 4.911937157E-02 -2.276621718E-01
 7.866484181E-02 4.929359177E-02 -2.643086756E-01
 -1.148252758E-01 2.646539981E-01 4.179590547E-02
 1.885344967E-01 8.120657022E-02 -3.887897727E-01
 2.051901380E-01 9.099982594E-02 -3.887498679E-01
 2.297312089E-01 9.972226680E-02 -4.022680995E-01
 2.577532325E-01 1.029377294E-01 -4.185495093E-01
 2.462558002E-01 1.269662542E-01 -3.841882942E-01
 2.805806319E-01 1.313802671E-01 -4.004030066E-01
 3.274324212E-01 7.888633728E-02 -4.855428093E-01
 2.672792452E-01 8.240547063E-02 -4.522269595E-01
 2.825120368E-01 9.661718443E-02 -4.399150807E-01
 3.147463953E-01 1.158432905E-01 -4.331583731E-01
 3.080657969E-01 1.646830420E-01 -3.757514639E-01
 3.503436178E-01 1.405281266E-01 -4.213897151E-01
 4.013873425E-01 7.991094745E-02 -5.088919734E-01
 3.493420087E-01 1.087672282E-01 -4.583391480E-01
 3.813672346E-01 1.191497421E-01 -4.551793564E-01
 3.941482833E-01 1.611497559E-01 -4.098113540E-01
 4.247828192E-01 1.209679634E-01 -4.614269132E-01
 3.502752732E-01 2.014080454E-01 -3.578767988E-01
 4.497200798E-01 1.780621325E-01 -4.044843406E-01
 4.723517435E-01 1.289918573E-01 -4.559653800E-01
 5.205084885E-01 1.312820042E-01 -4.456678815E-01
 5.640642120E-01 1.693027545E-01 -3.817392187E-01
 6.274368604E-01 2.128813579E-01 -3.091550769E-01
 6.269396300E-01 1.468296978E-01 -3.688125636E-01
 5.881346399E-01 1.201490905E-01 -4.201567197E-01
 5.497081095E-01 1.131562351E-01 -4.544256958E-01
 6.210280607E-01 1.094103357E-01 -4.079505822E-01
 6.645305533E-01 1.151625629E-01 -3.608582322E-01
 6.259809069E-01 7.376078476E-02 -4.425188410E-01
 6.807215194E-01 1.636405402E-01 -3.074143297E-01
 7.209005063E-01 1.233082858E-01 -2.964301111E-01
 7.791829211E-01 1.292621265E-01 -2.291572352E-01
 7.535541152E-01 9.769838846E-02 -2.722461368E-01
 7.702580797E-01 5.583978107E-02 -2.690015761E-01
 7.921003358E-01 8.961346121E-02 -2.255839024E-01
 8.286413566E-01 1.181970317E-01 -1.729121406E-01
 8.320917764E-01 8.211179806E-02 -1.774357283E-01
 8.706152359E-01 9.558875322E-02 -1.225601420E-01
 8.701032569E-01 4.017328911E-02 -1.297894551E-01
 8.199381159E-01 4.743993180E-02 -2.058631127E-01
 6.960755284E-01 9.752637588E-02 -3.423601927E-01