TITLE     = "Visualization of the solution"
VARIABLES = "x"
"y"
"Pressure_Coefficient"
ZONE T="Zone"
 STRANDID=0, SOLUTIONTIME=0
 Nodes=684, Elements=1153, ZONETYPE=FEQuadrilateral
 DATAPACKING=POINT
 DT=(DOUBLE DOUBLE DOUBLE )
 9.996291995E-01 5.174541730E-04 2.265754547E-01
 9.851635695E-01 3.166107927E-03 1.796025843E-01
 9.724075198E-01 5.481761415E-03 1.133036296E-01
 9.570094943E-01 8.194237947E-03 5.468003137E-02
 9.434990287E-01 1.068863273E-02 1.848705273E-02
 9.305257201E-01 1.291511580E-02 -1.234083058E-02
 9.195320606E-01 1.489647664E-02 -4.080003589E-02
 9.070204496E-01 1.701507345E-02 -7.075965199E-02
 8.955548406E-01 1.902456768E-02 -1.072923428E-01
 8.829119205E-01 2.106444910E-02 -1.269204025E-01
 8.703597784E-01 2.301728167E-02 -1.453567597E-01
 8.580176830E-01 2.484843880E-02 -1.533412521E-01
 8.455750942E-01 2.663901635E-02 -1.663450755E-01
 8.341139555E-01 2.828828804E-02 -1.849879280E-01
 8.224269748E-01 2.991665900E-02 -1.960261142E-01
 8.096896410E-01 3.160581738E-02 -2.021271409E-01
 7.969638705E-01 3.326787427E-02 -2.151127330E-01
 7.852576971E-01 3.479669988E-02 -2.309987857E-01
 7.728560567E-01 3.635825962E-02 -2.423062470E-01
 7.607731819E-01 3.782534227E-02 -2.500539639E-01
 7.478436828E-01 3.936021775E-02 -2.608317166E-01
 7.344728112E-01 4.093024135E-02 -2.763954516E-01
 7.235651612E-01 4.217855260E-02 -2.866014886E-01
 7.119284868E-01 4.345711693E-02 -2.951905567E-01
 7.002126575E-01 4.472202435E-02 -3.086990055E-01
 6.869058013E-01 4.612646624E-02 -3.221555204E-01
 6.739027500E-01 4.743206128E-02 -3.344367838E-01
 6.630149484E-01 4.849551246E-02 -3.471915445E-01
 6.510306597E-01 4.961944744E-02 -3.574033520E-01
 6.399788260E-01 5.060461536E-02 -3.666980463E-01
 6.279843450E-01 5.163639039E-02 -3.768972800E-01
 6.165562272E-01 5.257480219E-02 -3.899574888E-01
 6.057370901E-01 5.342660472E-02 -4.010000899E-01
 5.935795903E-01 5.430176854E-02 -4.070955609E-01
 5.815777779E-01 5.511017889E-02 -4.161117121E-01
 5.680103302E-01 5.596899241E-02 -4.263323826E-01
 5.550293326E-01 5.670262128E-02 -4.329598724E-01
 5.421889424E-01 5.735579878E-02 -4.418977654E-01
 5.307905078E-01 5.787659436E-02 -4.421579606E-01
 5.186025500E-01 5.834760889E-02 -4.456247864E-01
 5.062042475E-01 5.880529061E-02 -4.565739049E-01
 4.954454005E-01 5.912204832E-02 -4.554822594E-01
 4.824497402E-01 5.941915885E-02 -4.542686031E-01
 4.697665870E-01 5.964550748E-02 -4.563848289E-01
 4.560555816E-01 5.982283503E-02 -4.563828961E-01
 4.424046278E-01 5.990627781E-02 -4.579994156E-01
 4.295092225E-01 5.991940573E-02 -4.554759926E-01
 4.163126051E-01 5.983874947E-02 -4.503165160E-01
 4.039323926E-01 5.970912799E-02 -4.495745176E-01
 3.910160959E-01 5.951360986E-02 -4.480223331E-01
 3.789854646E-01 5.925914645E-02 -4.448891070E-01
 3.677982092E-01 5.896665156E-02 -4.420076703E-01
 3.548552990E-01 5.857270211E-02 -4.394107974E-01
 3.427990675E-01 5.813522637E-02 -4.314906937E-01
 3.305856884E-01 5.762259662E-02 -4.283799644E-01
 3.204372227E-01 5.716845393E-02 -4.250760719E-01
 3.086658716E-01 5.657675117E-02 -4.216956157E-01
 2.961893082E-01 5.589263886E-02 -4.152906997E-01
 2.825924158E-01 5.505199730E-02 -4.083141976E-01
 2.702116072E-01 5.423715711E-02 -4.039989348E-01
 2.583730817E-01 5.339347571E-02 -3.971167091E-01
 2.459047586E-01 5.243659392E-02 -3.891555520E-01
 2.331172526E-01 5.138171092E-02 -3.828573616E-01
 2.209012806E-01 5.031256750E-02 -3.774412950E-01
 2.091033757E-01 4.921084270E-02 -3.696833490E-01
 1.973163486E-01 4.804026335E-02 -3.617481550E-01
 1.848287880E-01 4.673682526E-02 -3.560695011E-01
 1.728223413E-01 4.539826885E-02 -3.486856052E-01
 1.606538147E-01 4.396099970E-02 -3.403729617E-01
 1.485934258E-01 4.245287552E-02 -3.373503774E-01
 1.373579204E-01 4.098051041E-02 -3.289823280E-01
 1.258110851E-01 3.936125711E-02 -3.210675708E-01
 1.143615842E-01 3.767141327E-02 -3.149627926E-01
 1.034556180E-01 3.596129268E-02 -3.077194127E-01
 9.336271137E-02 3.428317234E-02 -2.979875090E-01
 8.227254450E-02 3.232079744E-02 -2.858942166E-01
 7.084483653E-02 3.014576994E-02 -2.784253989E-01
 6.116533279E-02 2.815269306E-02 -2.665559383E-01
 5.181945860E-02 2.607506514E-02 -2.569069994E-01
 4.304404184E-02 2.395349368E-02 -2.412214043E-01
 3.543734550E-02 2.193019912E-02 -2.323427002E-01
 2.885435522E-02 2.000896633E-02 -2.167321856E-01
 2.326525934E-02 1.819987036E-02 -2.213985563E-01
 1.918715425E-02 1.674068719E-02 -2.400806049E-01
 1.541127916E-02 1.526291762E-02 -1.787406644E-01
 1.261606254E-02 1.405053586E-02 -1.647420243E-01
 1.019998733E-02 1.290812716E-02 -1.538576480E-01
 8.449008688E-03 1.199272834E-02 -1.504972342E-01
 6.815390196E-03 1.107161865E-02 -1.241680872E-01
 5.270416383E-03 1.010453049E-02 -1.837086098E-02
 3.273028880E-03 8.674021810E-03 1.395861572E-02
 1.610620064E-03 7.235476747E-03 9.955526020E-02
 2.480332623E-04 5.754551850E-03 2.676493368E-01
 -1.068671234E-03 3.738306696E-03 3.220985220E-01
 -1.702744397E-03 2.119777724E-03 9.092099284E-01
 -1.961949281E-03 7.934043533E-04 7.912773668E-01
 -1.979583642E-03 -8.330161218E-04 7.564668369E-01
 -1.596991322E-03 -2.809378318E-03 9.283704906E-01
 -6.711549358E-04 -5.045604892E-03 7.174379828E-01
 8.745387895E-04 -7.464449387E-03 7.439388135E-01
 3.027776722E-03 -9.967730381E-03 6.112499111E-01
 5.006791092E-03 -1.185127627E-02 4.674249232E-01
 7.315985393E-03 -1.375221275E-02 4.260634394E-01
 9.037480690E-03 -1.501937304E-02 3.472881668E-01
 1.114368252E-02 -1.644712500E-02 2.467899569E-01
 1.362260245E-02 -1.798955724E-02 2.130450682E-01
 1.688784175E-02 -1.984131150E-02 1.628741088E-01
 2.013342641E-02 -2.151852287E-02 9.959074321E-02
 2.419986576E-02 -2.343627624E-02 5.425978736E-02
 2.965078503E-02 -2.576611005E-02 -3.002440080E-02
 3.528256342E-02 -2.794775553E-02 -8.112442569E-02
 4.228219762E-02 -3.039670363E-02 -1.087473285E-01
 4.983237013E-02 -3.279011324E-02 -1.603673353E-01
 5.856018886E-02 -3.529597819E-02 -1.813744649E-01
 6.727771461E-02 -3.758020699E-02 -2.132668122E-01
 7.768190652E-02 -4.007736966E-02 -2.325335894E-01
 8.761152625E-02 -4.227045923E-02 -2.621248009E-01
 9.843026847E-02 -4.446266964E-02 -2.757201020E-01
 1.096133813E-01 -4.656847566E-02 -2.897521735E-01
 1.214867607E-01 -4.863942787E-02 -3.058229520E-01
 1.330069900E-01 -5.050792545E-02 -3.225211791E-01
 1.436667591E-01 -5.212618038E-02 -3.332304602E-01
 1.548810005E-01 -5.372015014E-02 -3.431098148E-01
 1.666253060E-01 -5.528486893E-02 -3.579891732E-01
 1.781707108E-01 -5.670554191E-02 -3.706840496E-01
 1.898635775E-01 -5.806499347E-02 -3.804669486E-01
 2.003262341E-01 -5.919470266E-02 -3.946198904E-01
 2.116195261E-01 -6.032454222E-02 -4.043083770E-01
 2.237360924E-01 -6.144091114E-02 -4.128505505E-01
 2.355966866E-01 -6.244231761E-02 -4.239732469E-01
 2.473608404E-01 -6.334876269E-02 -4.361805919E-01
 2.594192624E-01 -6.416495144E-02 -4.463740483E-01
 2.706679404E-01 -6.484151632E-02 -4.549593302E-01
 2.831853330E-01 -6.549886614E-02 -4.634171331E-01
 2.952973545E-01 -6.604015082E-02 -4.757473469E-01
 3.079102635E-01 -6.646874547E-02 -4.842152844E-01
 3.195450902E-01 -6.676179171E-02 -4.896431176E-01
 3.317197263E-01 -6.695780903E-02 -4.944706420E-01
 3.419626355E-01 -6.703069061E-02 -4.990419965E-01
 3.532376885E-01 -6.701063365E-02 -4.986258278E-01
 3.642166555E-01 -6.688211858E-02 -4.963853349E-01
 3.750085533E-01 -6.666243821E-02 -4.936298243E-01
 3.866666555E-01 -6.630656868E-02 -4.870077797E-01
 3.990471065E-01 -6.581508368E-02 -4.793620446E-01
 4.109757245E-01 -6.519749016E-02 -4.690470296E-01
 4.238948822E-01 -6.440120190E-02 -4.515439905E-01
 4.361383021E-01 -6.351365149E-02 -4.353837441E-01
 4.491860271E-01 -6.246201694E-02 -4.145803202E-01
 4.615842402E-01 -6.133270264E-02 -3.983917311E-01
 4.739747345E-01 -6.005975977E-02 -3.707291923E-01
 4.861226082E-01 -5.874850973E-02 -3.448311653E-01
 4.980495572E-01 -5.733561143E-02 -3.196048091E-01
 5.112628937E-01 -5.572006479E-02 -2.892209192E-01
 5.243524313E-01 -5.402748287E-02 -2.647365818E-01
 5.369114876E-01 -5.233066902E-02 -2.353502263E-01
 5.504878759E-01 -5.044036731E-02 -2.081833179E-01
 5.632166862E-01 -4.858815670E-02 -1.803911182E-01
 5.765079260E-01 -4.665872455E-02 -1.539994160E-01
 5.893960595E-01 -4.471725971E-02 -1.311894229E-01
 6.022044420E-01 -4.278301820E-02 -1.051769671E-01
 6.150051951E-01 -4.082096368E-02 -8.225364685E-02
 6.288530231E-01 -3.871151432E-02 -6.071401085E-02
 6.420581937E-01 -3.664192930E-02 -3.741749538E-02
 6.555905938E-01 -3.456948698E-02 -1.455419444E-02
 6.692052484E-01 -3.247097135E-02 2.114683112E-03
 6.817755103E-01 -3.053681739E-02 1.996931438E-02
 6.941169500E-01 -2.859690227E-02 4.170893575E-02
 7.088235021E-01 -2.633714303E-02 6.444946448E-02
 7.218494415E-01 -2.435428649E-02 8.085557290E-02
 7.333623171E-01 -2.261286974E-02 9.773920964E-02
 7.463069558E-01 -2.068702318E-02 1.146108720E-01
 7.594016790E-01 -1.875983924E-02 1.323640520E-01
 7.726510763E-01 -1.683804207E-02 1.514567644E-01
 7.850580215E-01 -1.508804318E-02 1.688315934E-01
 7.979777455E-01 -1.332554687E-02 1.821328777E-01
 8.090630770E-01 -1.182552148E-02 1.975936024E-01
 8.202462196E-01 -1.035221945E-02 2.159009229E-01
 8.325987458E-01 -8.815073408E-03 2.290613153E-01
 8.449987769E-01 -7.329725195E-03 2.431947844E-01
 8.570569754E-01 -5.950244144E-03 2.598184801E-01
 8.681768179E-01 -4.755157977E-03 2.776469757E-01
 8.799457550E-01 -3.633912187E-03 2.885584649E-01
 8.928727508E-01 -2.511902945E-03 2.986547943E-01
 9.029666185E-01 -1.732740784E-03 3.085974027E-01
 9.138835669E-01 -1.029245090E-03 3.137677618E-01
 9.240915179E-01 -4.630032636E-04 3.172411391E-01
 9.344749451E-01 -1.893340232E-05 3.248171985E-01
 9.476096034E-01 3.995294101E-04 3.181194163E-01
 9.620500803E-01 6.732220645E-04 3.294199101E-01
 9.764921665E-01 7.571210153E-04 3.396478170E-01
 9.889903665E-01 6.752929185E-04 3.123673947E-01
 -5.000000000E-01 -1.000000000E+00 2.321056109E-02
 3.500000000E+00 -1.000000000E+00 1.427945157E-02
 3.500000000E+00 1.000000000E+00 3.185599820E-03
 -5.000000000E-01 1.000000000E+00 4.240924483E-04
 -5.000000000E-01 5.000000000E-01 3.341743511E-02
 -5.000000000E-01 2.752797990E-12 9.352377152E-02
 -5.000000000E-01 -5.000000000E-01 5.366636714E-02
 -9.421907698E-13 -1.000000000E+00 9.983464768E-03
 5.000000000E-01 -1.000000000E+00 -2.044955871E-02
 1.000000000E+00 -1.000000000E+00 -4.938189429E-03
 1.500000000E+00 -1.000000000E+00 2.299916635E-02
 2.000000000E+00 -1.000000000E+00 2.286887190E-02
 2.500000000E+00 -1.000000000E+00 1.736236084E-02
 3.000000000E+00 -1.000000000E+00 1.459155692E-02
 3.500000000E+00 -5.000000000E-01 1.729921222E-02
 3.500000000E+00 -2.752797990E-12 1.751229834E-02
 3.500000000E+00 5.000000000E-01 9.312172472E-03
 3.000000000E+00 1.000000000E+00 3.407091014E-04
 2.500000000E+00 1.000000000E+00 -5.525183587E-03
 2.000000000E+00 1.000000000E+00 -1.874935162E-02
 1.500000000E+00 1.000000000E+00 -4.792050361E-02
 1.000000000E+00 1.000000000E+00 -8.720246195E-02
 5.000000000E-01 1.000000000E+00 -8.097329248E-02
 1.733724275E-12 1.000000000E+00 -2.406638774E-02
 6.786717372E-01 -4.444834615E-02 1.275912752E-02
 7.796217634E-01 -2.850949408E-02 1.515022671E-01
 9.091801187E-01 -1.335549022E-02 2.956061715E-01
 5.804537497E-01 -6.240512372E-02 -1.429043158E-01
 7.073515830E-01 5.443853871E-02 -2.945403819E-01
 2.722051134E-01 6.937149027E-02 -3.871904622E-01
 2.753088823E-01 -7.655570330E-02 -4.367298647E-01
 9.159882064E-01 2.906133751E-02 -5.003821156E-02
 8.040278043E-01 4.590899116E-02 -2.041458407E-01
 6.001906473E-01 6.451876976E-02 -3.924487475E-01
 4.220233150E-01 7.061993115E-02 -4.402368598E-01
 4.181850357E-01 -7.633145262E-02 -4.345421415E-01
 1.840367331E+00 -5.655775590E-01 2.293468772E-02
 1.774167282E+00 5.582784581E-01 -1.014415013E-02
 3.031176384E+00 2.156837110E-01 1.055634049E-02
 7.614808676E-01 -6.200332265E-01 -7.049211846E-03
 4.925954730E-01 -6.783505108E-02 -3.205295978E-01
 3.019146406E-01 -7.145769037E-01 -3.982991290E-02
 1.252248114E-01 -6.457753832E-02 -2.820163809E-01
 1.945958029E-01 -6.819646065E-02 -3.711357024E-01
 3.503589300E-01 -7.817102599E-02 -4.734342087E-01
 7.500000000E-01 5.669872981E-01 -1.194937438E-01
 5.019448978E-01 6.797481165E-02 -4.428576949E-01
 2.734845344E+00 -5.326941035E-01 1.448963773E-02
 1.157103830E+00 6.940181503E-01 -5.881716123E-02
 9.946600700E-01 3.285135097E-01 -5.255910806E-02
 1.256594480E+00 -6.287860003E-01 3.201902165E-02
 1.459545504E+00 -2.131234769E-01 3.781277075E-02
 3.329557257E-01 6.148818087E-01 -1.098322996E-01
 1.013238737E-01 4.527757727E-02 -2.844106867E-01
 1.656966370E-01 5.857726783E-02 -3.294427514E-01
 3.471462123E-01 6.732838986E-02 -4.241354166E-01
 2.249603415E+00 -5.829925227E-01 1.620407407E-02
 2.035145944E+00 -1.986187905E-01 1.488649053E-02
 2.420184003E+00 -1.843199002E-01 1.141544595E-02
 2.184610304E+00 1.582043933E-01 5.765559318E-03
 1.799252983E+00 1.328371796E-01 6.310244911E-03
 -2.740812451E-01 2.322345187E-01 8.365831544E-02
 -1.003736451E-01 6.206511582E-01 -1.782895776E-02
 2.969094647E-02 3.285711292E-01 -3.843535346E-02
 4.646946178E-02 3.595919471E-02 -2.022630602E-01
 -2.713215712E-01 -2.368381191E-01 1.090312057E-01
 -1.459865622E-01 -6.018984374E-01 1.559393148E-02
 1.367129040E-01 -3.727180659E-01 -5.000788086E-02
 2.191382168E+00 6.008303191E-01 -3.231337300E-03
 2.738061915E+00 6.037901844E-01 3.889043832E-03
 -2.353749404E-01 -4.546537445E-03 1.487436366E-01
 -1.277104738E-01 1.263739894E-01 1.394217946E-01
 -1.098718087E-01 -1.272934895E-01 1.680229711E-01
 7.034188605E-02 -4.776194440E-02 -1.874623857E-01
 3.541428151E-02 -3.614541312E-02 -3.339051810E-02
 -7.418643797E-02 -3.213674898E-01 4.281535008E-02
 8.365578536E-03 -1.819008672E-01 5.609362515E-02
 1.591824707E-01 -2.190315605E-01 -1.564889511E-01
 -2.229140532E-02 -9.891236310E-02 1.866705063E-01
 -1.099287081E-01 -2.339237852E-02 2.771465622E-01
 -7.062091859E-02 5.515877151E-02 2.639940206E-01
 3.302292305E-02 -1.163011712E-01 4.068121006E-02
 3.109359017E+00 -2.612770072E-01 1.517236329E-02
 -5.113455234E-02 -3.902869463E-02 3.608314740E-01
 -5.119159843E-02 1.130537563E-02 4.812141959E-01
 -2.806903465E-02 5.010423649E-02 2.830841829E-01
 2.420821825E-02 2.397826948E-02 -1.824239115E-01
 -3.634471174E-02 1.017911123E-01 1.325990665E-01
 3.459885064E-02 1.132212417E-01 -2.635764274E-02
 7.423590570E-02 3.950183905E-02 -2.589472563E-01
 -2.032461622E-02 1.841665248E-01 3.587099275E-02
 7.464667200E-02 1.967924178E-01 -1.044083557E-01
 2.116871323E-01 5.979901920E-02 -3.615433237E-01
 1.663207949E-01 2.819417781E-01 -1.614892983E-01
 1.897760753E-01 6.094597741E-02 -3.456764005E-01
 2.194653443E-01 1.836250487E-01 -2.418613924E-01
 2.847003835E-01 2.605964755E-01 -2.344486128E-01
 2.976193328E-01 1.611587275E-01 -3.100374355E-01
 3.680787856E-01 2.193701949E-01 -2.915511529E-01
 3.124051459E-01 6.963387427E-02 -4.080717359E-01
 3.729379848E-01 1.433699004E-01 -3.558745938E-01
 4.376864596E-01 1.814195011E-01 -3.306057831E-01
 5.507624464E-01 7.009296705E-02 -4.210378104E-01
 5.239355680E-01 7.066382104E-02 -4.304798604E-01
 4.630585623E-01 7.113720534E-02 -4.416849288E-01
 4.462101272E-01 2.723084072E-01 -2.623627617E-01
 5.302984264E-01 2.076207336E-01 -3.025965211E-01
 3.838411006E-01 7.191123904E-02 -4.325643385E-01
 5.421995265E-01 3.434243983E-01 -2.237325322E-01
 6.319967462E-01 2.603593377E-01 -2.339126909E-01
 6.570440240E-01 6.119496361E-02 -3.431964567E-01
 6.141926529E-01 1.648967821E-01 -3.005483171E-01
 7.088921586E-01 1.839284998E-01 -2.295485704E-01
 7.565542897E-01 5.062314449E-02 -2.474654894E-01
 7.360938518E-01 2.690211965E-01 -1.883455209E-01
 8.164521661E-01 1.990674669E-01 -1.515440127E-01
 8.679521308E-01 3.819156766E-02 -1.371119616E-01
 8.434497445E-01 4.197015498E-02 -1.634082361E-01
 7.706280571E-01 1.312477646E-01 -2.060357904E-01
 8.565348896E-01 1.324538530E-01 -1.250872462E-01
 9.656723906E-01 2.126729983E-02 7.483796498E-02
 6.709697256E-01 1.280272911E-01 -2.880562237E-01
 5.470172438E-01 1.406740903E-01 -3.551907021E-01
 2.419301069E-01 1.221558800E-01 -3.142087359E-01
 1.845760346E-01 1.178013456E-01 -2.782038233E-01
 6.264843900E-01 1.086397260E-01 -3.309801972E-01
 6.348188939E-01 6.085429171E-02 -3.627424834E-01
 9.031678470E-01 1.963820385E-01 -7.803023926E-02
 9.492860307E-01 1.220338054E-01 -2.848425869E-02
 9.951460305E-01 1.947759960E-01 -1.855429558E-02
 1.115492001E+00 2.696416854E-01 -1.096085424E-02
 1.023115775E+00 1.207826833E-01 3.012057326E-02
 8.959075330E-01 8.414155425E-02 -8.188942640E-02
 8.923953242E-01 3.361750269E-02 -1.006336532E-01
 8.144352996E-01 9.656656048E-02 -1.729742246E-01
 9.898024022E-01 7.306268750E-02 5.203043007E-02
 1.040194150E+00 5.093099342E-02 1.014168054E-01
 3.252053368E-01 1.166039577E-01 -3.630898702E-01
 9.325655172E-02 1.126976132E-01 -1.797663055E-01
 4.267871227E-01 1.258007398E-01 -3.811792063E-01
 4.824247955E-01 1.299335470E-01 -3.745978076E-01
 6.790482446E-01 3.841430589E-01 -1.705717756E-01
 1.428382500E-01 4.501254858E-01 -8.164160634E-02
 1.002909319E+00 3.396496781E-02 1.356867653E-01
 1.000558839E+00 1.343306975E-02 2.113329903E-01
 4.288313260E-01 3.999414330E-01 -1.938287937E-01
 5.188711721E-01 1.069896644E-01 -3.952446403E-01
 -8.296396019E-03 -5.916695910E-02 3.586237717E-01
 1.094529593E-02 -2.045014459E-02 2.829033396E-01
 2.026050452E-02 -2.664949384E-02 1.406777947E-01
 9.831833262E-01 1.816514360E-02 1.179222090E-01
 2.906006809E-02 -7.344876579E-02 7.044590053E-02
 5.318665118E-02 -4.431944682E-02 -1.217106775E-01
 6.609842558E-01 9.622753240E-02 -3.159593350E-01
 6.809035664E-01 5.960247556E-02 -3.197053834E-01
 6.947195675E-01 9.633245416E-02 -2.849316402E-01
 7.170853823E-01 1.262368888E-01 -2.478383206E-01
 7.370420126E-01 9.237327636E-02 -2.479519850E-01
 7.301000555E-01 5.100069896E-02 -2.756335781E-01
 3.614943863E-01 1.064071921E-01 -3.900883327E-01
 3.903964453E-01 1.065487871E-01 -3.961521276E-01
 8.505869253E-01 3.360592938E-01 -1.190982088E-01
 6.895817996E-02 -8.992234681E-02 -1.050548625E-01
 1.022254704E-01 -5.505530948E-02 -2.590755838E-01
 8.278599614E-02 -1.398851282E-01 -6.447193777E-02
 1.147622879E-01 -1.102413799E-01 -1.954485227E-01
 1.623816890E-01 -6.631453112E-02 -3.336074548E-01
 5.589911992E-01 1.069226522E-01 -3.774192025E-01
 5.740096092E-01 6.549037647E-02 -4.103314035E-01
 5.605531906E-01 5.159870917E-01 -1.665275184E-01
 1.299667603E-02 6.574018384E-02 5.234203774E-02
 3.594085668E-01 7.074372701E-02 -4.256568466E-01
 5.299193327E-02 7.747583741E-02 -1.317938819E-01
 9.781299996E-01 3.838360501E-02 7.043078303E-02
 9.521450927E-01 3.531566407E-02 2.765211583E-02
 9.393850438E-01 2.449594487E-02 3.323390567E-03
 9.316380386E-01 3.754054200E-02 -1.773593891E-02
 9.086040743E-01 4.749098249E-02 -6.544047482E-02
 8.841627364E-01 4.924462952E-02 -1.068383219E-01
 8.619535856E-01 5.706294271E-02 -1.365944612E-01
 8.332680037E-01 6.120172806E-02 -1.649279626E-01
 9.452486810E-01 6.397399408E-02 -3.607108608E-03
 9.515422100E-01 1.999235589E-02 3.476891819E-02
 3.372787497E-01 6.663211804E-02 -4.202720930E-01
 3.407889916E-01 8.289856224E-02 -4.057535342E-01
 9.039125790E-01 2.924189276E-02 -7.584995307E-02
 8.187112536E-01 4.539060734E-02 -1.893719383E-01
 8.118118860E-01 6.463022878E-02 -1.896728470E-01
 7.805397175E-01 4.772502760E-02 -2.284918432E-01
 7.815445199E-01 8.047769618E-02 -2.130892031E-01
 4.540894789E-01 1.039472797E-01 -4.070847671E-01
 4.852085934E-01 9.438122162E-02 -4.123808863E-01
 4.442884909E-01 8.436146265E-02 -4.278694443E-01
 4.200336188E-01 9.049109845E-02 -4.182642210E-01
 7.417084893E-01 5.293143751E-02 -2.613964646E-01
 2.142161734E-01 9.881291112E-02 -3.190626849E-01
 2.412005136E-01 6.521255673E-02 -3.733510493E-01
 6.962923505E-01 5.935934235E-02 -3.042529230E-01
 3.269213464E-01 7.031428576E-02 -4.129652696E-01
 3.179264162E-01 8.790147357E-02 -3.892469791E-01
 2.995974253E-01 8.230451246E-02 -3.907998978E-01
 7.530562438E-01 6.838967456E-02 -2.455217299E-01
 7.717451060E-01 6.031294424E-02 -2.309964159E-01
 3.957334116E-01 6.952399434E-02 -4.370432358E-01
 7.903605320E-01 5.727993900E-02 -2.146497795E-01
 4.483551676E-01 6.931692316E-02 -4.444479304E-01
 6.448432927E-01 5.944107649E-02 -3.545377668E-01
 6.433509244E-01 7.594161729E-02 -3.441928048E-01
 6.231216740E-01 7.771995795E-02 -3.598651700E-01
 5.953560207E-01 8.757070806E-02 -3.723202578E-01
 6.708491006E-01 7.548820504E-02 -3.203982203E-01
 4.359685755E-01 7.135683500E-02 -4.401617413E-01
 4.764813145E-01 7.379422650E-02 -4.377332697E-01
 4.079844106E-01 7.263355653E-02 -4.349900616E-01
 6.906587365E-01 7.374066346E-02 -3.005014215E-01
 7.914299243E-01 4.379570638E-02 -2.175794030E-01
 7.684936704E-01 4.656894364E-02 -2.400007824E-01
 -1.201496739E-01 2.648134130E-01 4.371625425E-02
 5.636210154E-01 6.623221913E-02 -4.173918482E-01
 5.702933584E-01 8.290613844E-02 -3.960623549E-01
 5.378695533E-01 8.639713201E-02 -4.090992907E-01
 8.795563781E-01 3.302708613E-02 -1.251638654E-01
 7.108548112E-01 7.137064022E-02 -2.830289046E-01
 3.717353185E-01 8.544763480E-02 -4.145000354E-01
 2.553595425E+00 2.129186089E-01 6.002132633E-03
 8.553896476E-01 3.774242410E-02 -1.508918115E-01
 -2.041321162E-02 -3.128258549E-02 4.122231043E-01
 3.937833660E-03 -1.581185958E-02 4.720032886E-01
 -1.818261714E-02 -6.113488816E-03 7.657387619E-01
 -1.448376126E-02 1.777266665E-02 5.153549831E-01
 2.856045364E-01 1.204443133E-01 -3.465870280E-01
 2.722186096E-01 9.291649218E-02 -3.630187520E-01
 2.559481793E-01 7.537394653E-02 -3.719771683E-01
 8.303939864E-01 4.135348748E-02 -1.809329167E-01
 8.664307565E-02 7.414231089E-02 -2.121313736E-01
 1.202152139E-01 8.406185795E-02 -2.429830847E-01
 1.407866219E-01 5.426202610E-02 -3.092484260E-01
 6.137716719E-02 5.135662024E-02 -1.991344309E-01
 8.551106861E-02 5.265240700E-02 -2.494243391E-01
 5.884083013E-01 1.217407918E-01 -3.463120210E-01
 -4.016474208E-04 3.554562277E-02 1.762512290E-01
 1.055515632E-02 1.644490693E-02 -1.140270670E-01
 2.342401230E-01 8.585331200E-02 -3.452484699E-01
 2.049202264E-01 7.765200591E-02 -3.347146968E-01
 1.765816430E-01 7.712159555E-02 -3.079510993E-01
 1.487059380E-01 7.248790981E-02 -2.942935965E-01
 1.239547936E-01 6.339274886E-02 -2.830040191E-01
 1.899435297E-02 -4.782419091E-02 1.456663625E-01
 2.112069699E-03 -3.139672951E-02 3.882962734E-01
 -4.957445985E-03 -1.467968017E-02 7.097924563E-01
 1.119497679E-04 -1.029811460E-02 6.887585955E-01
 1.344372832E-01 -1.554926641E-01 -1.760313107E-01
 1.635066621E-01 -1.090014019E-01 -2.656888625E-01
 2.293226844E-01 -7.699769823E-02 -3.934771697E-01
 1.957682702E-01 -1.510139708E-01 -2.500590971E-01
 2.405140817E-01 -2.231600443E-01 -2.159940347E-01
 2.710758935E-01 -1.504077252E-01 -3.152140430E-01
 3.221146129E-01 -2.148026683E-01 -2.553075315E-01
 3.122455877E-01 -7.822474517E-02 -4.621639973E-01
 2.925035834E-01 -3.038882866E-01 -1.798416686E-01
 3.996846622E-01 -2.780449081E-01 -1.921423409E-01
 4.319319804E-01 -1.850634806E-01 -2.486869860E-01
 5.047499662E-01 -2.482486007E-01 -1.561405729E-01
 4.572074120E-01 -7.287296201E-02 -3.834040183E-01
 5.358613119E-01 -1.663508482E-01 -1.708098108E-01
 6.008980362E-01 -2.239369751E-01 -8.265979515E-02
 5.467082731E-01 -6.428833925E-02 -2.122084866E-01
 5.201875555E-01 -7.135790943E-02 -2.595677678E-01
 6.105734579E-01 -1.381862144E-01 -8.759242058E-02
 6.833465526E-01 -1.904975156E-01 -7.933840976E-03
 7.304544245E-01 -3.963382641E-02 8.611468778E-02
 6.355488975E-01 -5.415415952E-02 -5.305513189E-02
 5.024481068E-01 -3.796989624E-01 -1.031592126E-01
 6.784370349E-01 -1.142449910E-01 -1.226286016E-04
 6.802432590E-01 -2.947520081E-01 -1.962124178E-02
 7.692592505E-01 -2.337769628E-01 4.702526975E-02
 8.531467766E-01 -1.532434593E-02 2.450173633E-01
 3.320809572E-01 -1.487065414E-01 -3.464914525E-01
 3.794724535E-01 -8.110464996E-02 -4.565734830E-01
 4.706303435E-01 -1.346037958E-01 -2.771742322E-01
 5.601520451E-01 -1.185262193E-01 -1.615968313E-01
 7.473210175E-01 -1.491675226E-01 6.059954510E-02
 8.401266206E-01 -1.475608191E-01 1.251434246E-01
 9.703383681E-01 -1.234541750E-02 2.916663516E-01
 9.400807100E-01 -8.437486985E-03 3.051909480E-01
 8.762676353E-01 -2.600910774E-01 8.156133916E-02
 9.513754799E-01 -1.622980132E-01 1.502422350E-01
 1.013581409E+00 -2.757455640E-01 9.052198546E-02
 1.072768341E+00 -1.715115159E-01 1.178269117E-01
 9.039298171E-01 -1.047382854E-01 1.850359502E-01
 9.794557140E-01 -9.060547804E-02 2.022861071E-01
 1.095991162E+00 -7.961769474E-02 1.137236719E-01
 1.186261719E+00 -1.304005797E-01 8.128852891E-02
 1.191277287E+00 -4.098234654E-03 6.500902086E-02
 1.165142485E+00 -2.643701118E-01 7.428213198E-02
 8.270901712E-01 -8.582760251E-02 1.633332616E-01
 8.151626973E-01 -2.218998764E-02 1.977592224E-01
 7.309009042E-01 -9.012784545E-02 6.583869616E-02
 1.330019448E+00 -7.469124134E-02 4.730519111E-02
 1.350627425E+00 1.087795563E-01 2.499443771E-02
 1.101655253E+00 8.626149099E-02 6.398033919E-02
 9.347026542E-01 -7.096201858E-02 2.332058584E-01
 9.151405657E-01 -4.197868321E-01 4.117060740E-02
 6.319674098E-01 -9.718890407E-02 -6.687121221E-02
 6.140382529E-01 -5.539136726E-02 -8.700065631E-02
 2.330334252E-01 -1.195703383E-01 -3.263417256E-01
 2.532742684E-01 -7.572996138E-02 -4.200821974E-01
 6.925507672E-01 -7.635415994E-02 2.247746933E-02
 7.026249561E-01 -4.014701109E-02 4.789630939E-02
 6.561242657E-01 -7.126574518E-02 -2.028716273E-02
 1.020977773E+00 -4.408615185E-02 2.194617887E-01
 3.012361132E-01 -1.133673660E-01 -3.915955319E-01
 2.675295625E-01 -1.102298573E-01 -3.761590944E-01
 9.538447275E-01 -1.131603966E-02 3.106356397E-01
 9.598683032E-01 -2.738786326E-02 2.741231993E-01
 9.843854573E-01 -2.429726184E-02 3.398156050E-01
 1.534512925E+00 8.757906124E-03 2.122572054E-02
 1.540476730E+00 2.849026513E-01 3.586602778E-03
 1.319882273E+00 3.169337443E-01 -1.733127999E-03
 7.841243810E-01 -1.018717994E-01 1.146516861E-01
 7.665144564E-01 -6.720699448E-02 1.129484666E-01
 7.556640354E-01 -3.237174379E-02 1.211246949E-01
 8.022588075E-01 -5.717672167E-02 1.582872228E-01
 8.384429591E-01 -5.003996065E-02 1.968817245E-01
 1.109866643E+00 -4.278444431E-01 5.369081619E-02
 1.008616511E+00 -6.192901004E-01 2.682359330E-02
 3.386530826E-01 -1.088212608E-01 -4.107156763E-01
 3.696787980E-01 -1.262064550E-01 -3.746934658E-01
 3.240060546E-01 -7.774414701E-02 -4.678968367E-01
 3.186847558E-01 -9.252521349E-02 -4.361086442E-01
 3.005206621E-01 -8.806593092E-02 -4.356241076E-01
 8.400076139E-01 -2.357174159E-02 2.257704843E-01
 8.626673039E-01 -1.394295485E-02 2.592263065E-01
 8.599717522E-01 -2.980333737E-02 2.374300602E-01
 8.883545010E-01 -1.598866684E-02 2.746607786E-01
 8.651765391E-01 -5.804616531E-02 2.086001064E-01
 8.841272770E-01 -3.619252568E-02 2.555166520E-01
 7.373641868E-01 -6.190982037E-02 8.379636451E-02
 1.438003741E+00 5.696980563E-01 -2.228640006E-02
 7.153668468E-01 -3.660112845E-02 6.695775936E-02
 7.141249191E-01 -5.595369479E-02 6.018283915E-02
 6.920891618E-01 -5.315509070E-02 3.088513353E-02
 8.262499243E-01 -1.981817710E-02 2.128730970E-01
 8.232343448E-01 -3.416186339E-02 1.977165767E-01
 7.702669942E-01 -4.587105325E-02 1.344292785E-01
 3.636147265E-01 -9.968066251E-02 -4.248548944E-01
 7.430033484E-01 -3.271716013E-02 1.042189146E-01
 3.009514626E-01 -7.509342363E-02 -4.622187114E-01
 3.488670774E-01 -4.364001347E-01 -1.059972975E-01
 3.624963935E-01 -8.325534316E-02 -4.586348280E-01
 1.702942747E+00 -2.171156560E-01 2.232948486E-02
 7.742045323E-01 -3.770763459E-01 1.950064688E-02
 6.372857254E-01 -4.274493400E-01 -3.540080932E-02
 8.042104832E-01 -2.134896683E-02 1.856313891E-01
 7.937119559E-01 -2.561106447E-02 1.708724670E-01
 8.738739012E-01 -1.738609248E-02 2.642620545E-01
 9.013543625E-01 -2.486654285E-02 2.761615322E-01
 9.185946928E-01 -2.633446947E-02 2.749581250E-01
 9.108737148E-01 -4.555868707E-02 2.494554447E-01
 6.506552499E-01 -4.836146206E-02 -2.781492653E-02
 3.782632606E-01 -1.798303697E-01 -2.895806588E-01
 3.902938863E-01 -1.030250804E-01 -4.071372370E-01
 4.148158152E-01 -1.338903531E-01 -3.340156763E-01
 4.467268202E-01 -1.080113208E-01 -3.462567986E-01
 4.801290090E-01 -1.008570525E-01 -3.072976772E-01
 4.729546716E-01 -8.201619051E-02 -3.440004236E-01
 4.002459219E-01 -8.484561351E-02 -4.376497131E-01
 4.181248090E-01 -9.856764208E-02 -3.919649977E-01
 7.903621394E-01 -3.845012510E-02 1.565150829E-01
 9.721564689E-01 -5.028175365E-02 2.281255624E-01
 8.989456703E-01 -1.169106873E-02 2.899870298E-01
 1.343607372E-01 -8.628067112E-02 -2.556147540E-01
 9.218005569E-01 -1.349592958E-02 2.991640451E-01
 9.361834765E-01 -2.131107849E-02 2.932162178E-01
 5.177888044E-01 -1.202620357E-01 -2.322627913E-01
 5.082525882E-01 -9.232185397E-02 -2.637561437E-01
 5.398793104E-01 -8.554618035E-02 -2.082721697E-01
 5.715087384E-01 -8.725783294E-02 -1.499384047E-01
 5.634920321E-01 -6.759531132E-02 -1.801014074E-01
 5.991246587E-01 -7.920692825E-02 -1.086876557E-01
 2.855974280E-01 4.045815547E-01 -1.746946502E-01
 8.791683041E-02 -2.665593815E-01 -3.953952036E-02
 1.080732796E+00 3.922704054E-03 1.209179571E-01
 9.274138139E-01 2.378188336E-02 -2.383761841E-02
 3.935017852E-01 8.357625725E-02 -4.204912994E-01
 7.319052110E-01 6.482375554E-02 -2.659702416E-01
 5.858345006E-01 6.831632336E-02 -3.976842733E-01
 8.526576183E-01 8.728336723E-02 -1.389108111E-01
 8.048234047E-01 -3.315645485E-02 1.778977632E-01
 6.899757149E-01 -3.989645176E-02 3.089067838E-02
 5.086660696E-01 -5.963597612E-01 -4.431232793E-02
 2.874432931E-01 7.036334704E-02 -3.949968132E-01
 3.008602088E-01 6.695422476E-02 -4.053827173E-01
 5.037436387E-01 -7.172464447E-02 -2.922183598E-01
 5.113813299E-01 6.770382692E-02 -4.392968361E-01
 5.071281232E-01 8.217752230E-02 -4.237614270E-01
 2.887834455E-01 -7.666754574E-02 -4.480605299E-01
 2.809258828E-01 -9.089085311E-02 -4.160713908E-01
 2.638999295E-01 -8.712228795E-02 -4.122959019E-01
 2.439918960E-01 -9.104649577E-02 -3.849115485E-01
 2.186776064E-01 -9.529242652E-02 -3.525652684E-01