TITLE     = "Visualization of the solution"
VARIABLES = "x"
"y"
"Pressure_Coefficient"
ZONE T="Zone"
 STRANDID=0, SOLUTIONTIME=0
 Nodes=698, Elements=1181, ZONETYPE=FEQuadrilateral
 DATAPACKING=POINT
 DT=(DOUBLE DOUBLE DOUBLE )
 9.998263717E-01 5.097869434E-04 2.486613721E-01
 9.890523553E-01 2.688652370E-03 1.922100814E-01
 9.767624140E-01 5.232316442E-03 1.648966595E-01
 9.596059322E-01 8.722986095E-03 1.002162960E-01
 9.444735050E-01 1.189113967E-02 4.566508483E-02
 9.283283949E-01 1.517001260E-02 1.530748324E-02
 9.163765311E-01 1.761078089E-02 -2.422635929E-02
 9.050728679E-01 1.991255023E-02 -5.564736634E-02
 8.933212757E-01 2.226473764E-02 -8.523540794E-02
 8.821710944E-01 2.445715666E-02 -1.100627888E-01
 8.702389002E-01 2.673714794E-02 -1.362841079E-01
 8.578824401E-01 2.906908840E-02 -1.560179466E-01
 8.455247283E-01 3.129047528E-02 -1.746073322E-01
 8.353944421E-01 3.312769532E-02 -1.982558835E-01
 8.237658143E-01 3.516970202E-02 -2.164007194E-01
 8.112466931E-01 3.729820997E-02 -2.288491894E-01
 7.987505794E-01 3.935268521E-02 -2.447951947E-01
 7.856896520E-01 4.150916636E-02 -2.649293263E-01
 7.731654048E-01 4.350122809E-02 -2.853644200E-01
 7.614453435E-01 4.534564912E-02 -3.063676567E-01
 7.477709651E-01 4.740414396E-02 -3.173843295E-01
 7.338393927E-01 4.943056777E-02 -3.408285551E-01
 7.231823802E-01 5.099291354E-02 -3.569342655E-01
 7.118370533E-01 5.252938718E-02 -3.634383146E-01
 7.000929117E-01 5.411542207E-02 -3.811040470E-01
 6.870447397E-01 5.583600327E-02 -4.023743842E-01
 6.741333008E-01 5.747993290E-02 -4.224757668E-01
 6.638733745E-01 5.871540308E-02 -4.327889601E-01
 6.520864367E-01 6.007469445E-02 -4.519335318E-01
 6.397877336E-01 6.144724041E-02 -4.627422829E-01
 6.278280020E-01 6.266134232E-02 -4.726048568E-01
 6.161332726E-01 6.383960694E-02 -4.912781871E-01
 6.054417491E-01 6.484420598E-02 -5.024983138E-01
 5.931701660E-01 6.591612846E-02 -5.123008653E-01
 5.819913149E-01 6.681636721E-02 -5.225629737E-01
 5.690302849E-01 6.778801978E-02 -5.285122728E-01
 5.570480227E-01 6.857524812E-02 -5.337154622E-01
 5.454813838E-01 6.929920614E-02 -5.447971976E-01
 5.348469019E-01 6.988897920E-02 -5.482561788E-01
 5.237768292E-01 7.042662799E-02 -5.488693999E-01
 5.121662021E-01 7.092501223E-02 -5.546726654E-01
 5.011991262E-01 7.134019583E-02 -5.588702921E-01
 4.882409275E-01 7.173064351E-02 -5.514682864E-01
 4.747342765E-01 7.202062011E-02 -5.521678080E-01
 4.618251920E-01 7.227169722E-02 -5.518761489E-01
 4.492357373E-01 7.238600403E-02 -5.483907634E-01
 4.372687936E-01 7.246425748E-02 -5.524045826E-01
 4.250044823E-01 7.246078551E-02 -5.446655852E-01
 4.128403068E-01 7.236065716E-02 -5.413872475E-01
 4.012712836E-01 7.224639505E-02 -5.392523108E-01
 3.889935315E-01 7.203026116E-02 -5.344448266E-01
 3.771022856E-01 7.177227736E-02 -5.328610676E-01
 3.645491898E-01 7.142337412E-02 -5.264824789E-01
 3.518662155E-01 7.099012285E-02 -5.214283733E-01
 3.388448954E-01 7.049483806E-02 -5.207637342E-01
 3.273641169E-01 6.997560710E-02 -5.149391536E-01
 3.145467043E-01 6.933907419E-02 -5.084153128E-01
 3.013522327E-01 6.858757883E-02 -5.020927849E-01
 2.873353958E-01 6.771785021E-02 -4.985365207E-01
 2.752971351E-01 6.688001007E-02 -4.922303823E-01
 2.634267807E-01 6.598729640E-02 -4.846193178E-01
 2.508068085E-01 6.495955586E-02 -4.802065525E-01
 2.383992076E-01 6.387995929E-02 -4.763825148E-01
 2.260246873E-01 6.270895898E-02 -4.699370073E-01
 2.137886137E-01 6.145134196E-02 -4.592592579E-01
 2.013701349E-01 6.008695066E-02 -4.527699243E-01
 1.887488961E-01 5.861375108E-02 -4.457067623E-01
 1.766973138E-01 5.709668249E-02 -4.367953510E-01
 1.651186198E-01 5.553362891E-02 -4.266708354E-01
 1.530231684E-01 5.379738659E-02 -4.181637016E-01
 1.419140846E-01 5.208954215E-02 -4.028211262E-01
 1.297273636E-01 5.008370057E-02 -3.941373655E-01
 1.183029637E-01 4.808655381E-02 -3.717465888E-01
 1.075185165E-01 4.605098814E-02 -3.597760962E-01
 9.721526504E-02 4.399132729E-02 -3.456113219E-01
 8.595678955E-02 4.155819491E-02 -3.201977747E-01
 7.452766597E-02 3.889104724E-02 -2.954865859E-01
 6.461714953E-02 3.637067229E-02 -2.657416428E-01
 5.467948690E-02 3.362764791E-02 -2.396465191E-01
 4.641344026E-02 3.113136813E-02 -2.040601878E-01
 3.918798640E-02 2.875729837E-02 -1.716413322E-01
 3.267952427E-02 2.643386275E-02 -1.178949189E-01
 2.710518427E-02 2.425437048E-02 -8.615227283E-02
 2.306936495E-02 2.255038172E-02 -4.761111393E-02
 1.927326992E-02 2.081682347E-02 -6.544437383E-05
 1.593315788E-02 1.915679686E-02 2.896518698E-02
 1.281952485E-02 1.747264341E-02 8.104559266E-02
 1.054495201E-02 1.612609439E-02 1.057306296E-01
 8.575134911E-03 1.486562658E-02 1.864832507E-01
 6.767795421E-03 1.359651238E-02 2.818238096E-01
 4.385536537E-03 1.170173660E-02 3.333402337E-01
 2.360042185E-03 9.769534692E-03 4.100770808E-01
 7.337872521E-04 7.815271616E-03 6.369349923E-01
 -8.471253677E-04 4.952556454E-03 5.487904612E-01
 -1.391686965E-03 2.834397135E-03 9.532517442E-01
 -1.439434709E-03 1.186861540E-03 5.824112526E-01
 -1.166736940E-03 -3.876226838E-04 1.086764629E+00
 -6.642769440E-04 -1.789329341E-03 5.374863502E-01
 3.162001958E-04 -3.537698882E-03 6.757370579E-01
 1.659345347E-03 -5.239137914E-03 4.688095421E-01
 3.447964322E-03 -6.984614767E-03 3.927442644E-01
 5.106628407E-03 -8.318437263E-03 3.575576668E-01
 7.001823746E-03 -9.632133879E-03 3.505037600E-02
 8.633043617E-03 -1.063704118E-02 9.138745004E-02
 1.069116034E-02 -1.178473793E-02 2.800589636E-02
 1.291830372E-02 -1.290631015E-02 1.847585857E-02
 1.609799080E-02 -1.434288546E-02 -6.951102734E-02
 1.878773607E-02 -1.544775907E-02 -8.861544060E-02
 2.231514454E-02 -1.676777564E-02 -9.039389275E-02
 2.736814320E-02 -1.847233810E-02 -1.212072816E-01
 3.278428316E-02 -2.010901645E-02 -1.401532065E-01
 3.932110593E-02 -2.188733406E-02 -1.446270742E-01
 4.674768075E-02 -2.370878123E-02 -1.585723060E-01
 5.561697856E-02 -2.568171360E-02 -1.629958364E-01
 6.422474980E-02 -2.743500285E-02 -1.712473196E-01
 7.399184257E-02 -2.926404402E-02 -1.832068993E-01
 8.422151953E-02 -3.103902377E-02 -1.924434963E-01
 9.421488643E-02 -3.266173229E-02 -2.003607943E-01
 1.056416631E-01 -3.439478576E-02 -2.061614217E-01
 1.168191731E-01 -3.598995879E-02 -2.151988483E-01
 1.288550794E-01 -3.760100901E-02 -2.204416784E-01
 1.402309835E-01 -3.904316202E-02 -2.292019932E-01
 1.518010795E-01 -4.043157771E-02 -2.381089896E-01
 1.647263169E-01 -4.189448431E-02 -2.477995174E-01
 1.767963618E-01 -4.318320379E-02 -2.571853116E-01
 1.892790943E-01 -4.443775117E-02 -2.681068515E-01
 2.005909830E-01 -4.550248757E-02 -2.760417756E-01
 2.125844508E-01 -4.657538608E-02 -2.855495674E-01
 2.254876047E-01 -4.764952138E-02 -2.964836095E-01
 2.386566252E-01 -4.866066948E-02 -3.089816700E-01
 2.514969707E-01 -4.956185818E-02 -3.185423778E-01
 2.641863227E-01 -5.038092285E-02 -3.310271892E-01
 2.757609487E-01 -5.103906244E-02 -3.407387075E-01
 2.885041237E-01 -5.168602616E-02 -3.483333964E-01
 3.012378514E-01 -5.223632231E-02 -3.584444811E-01
 3.142345548E-01 -5.269839615E-02 -3.671613455E-01
 3.266881704E-01 -5.305555090E-02 -3.781869634E-01
 3.395517170E-01 -5.329220742E-02 -3.853428662E-01
 3.508074582E-01 -5.340517685E-02 -3.882370854E-01
 3.623583615E-01 -5.343881249E-02 -3.917944894E-01
 3.732425272E-01 -5.335824937E-02 -3.928885244E-01
 3.844335079E-01 -5.319314450E-02 -3.909848133E-01
 3.962257802E-01 -5.292049795E-02 -3.921546029E-01
 4.094993472E-01 -5.244304240E-02 -3.832699995E-01
 4.221743941E-01 -5.187406391E-02 -3.734788233E-01
 4.344920516E-01 -5.117615312E-02 -3.615868289E-01
 4.466983676E-01 -5.036459863E-02 -3.447584912E-01
 4.576905370E-01 -4.955080524E-02 -3.294367820E-01
 4.688016474E-01 -4.863062501E-02 -3.138517635E-01
 4.806862772E-01 -4.753520340E-02 -2.906049869E-01
 4.916132092E-01 -4.645207897E-02 -2.661977080E-01
 5.043298006E-01 -4.511162266E-02 -2.416029566E-01
 5.176995993E-01 -4.360231757E-02 -2.156558440E-01
 5.304381251E-01 -4.209768027E-02 -1.891978210E-01
 5.437076688E-01 -4.046926275E-02 -1.632650608E-01
 5.553341508E-01 -3.900650516E-02 -1.410169537E-01
 5.688769817E-01 -3.723543137E-02 -1.157818847E-01
 5.812796354E-01 -3.558996692E-02 -9.146175880E-02
 5.930109024E-01 -3.400591761E-02 -6.861710387E-02
 6.057909727E-01 -3.229049966E-02 -4.979105193E-02
 6.205016971E-01 -3.026780486E-02 -2.590949139E-02
 6.348242164E-01 -2.830413729E-02 -1.653661981E-03
 6.503575444E-01 -2.618693188E-02 1.808246578E-02
 6.625775695E-01 -2.449101582E-02 3.985644297E-02
 6.754888892E-01 -2.275090851E-02 5.772816986E-02
 6.877005696E-01 -2.109872922E-02 7.341590680E-02
 7.000035048E-01 -1.947303116E-02 8.899659142E-02
 7.137516737E-01 -1.764877141E-02 1.050057448E-01
 7.265117764E-01 -1.598658413E-02 1.253347282E-01
 7.388914824E-01 -1.441251859E-02 1.401418484E-01
 7.531867623E-01 -1.265755482E-02 1.518876371E-01
 7.644207478E-01 -1.123900525E-02 1.706874530E-01
 7.779979706E-01 -9.640273638E-03 1.879989380E-01
 7.894229293E-01 -8.327157237E-03 1.995149022E-01
 8.021526337E-01 -6.903771777E-03 2.152867878E-01
 8.131497502E-01 -5.745140370E-03 2.306275075E-01
 8.251258135E-01 -4.554460756E-03 2.396964785E-01
 8.382228613E-01 -3.293874208E-03 2.544587848E-01
 8.510110378E-01 -2.188725164E-03 2.691789678E-01
 8.631896377E-01 -1.215671422E-03 2.795197442E-01
 8.747439384E-01 -4.103813844E-04 2.901211575E-01
 8.863404989E-01 3.016564588E-04 2.981687954E-01
 8.997704983E-01 9.611273417E-04 3.030512197E-01
 9.099776149E-01 1.363554038E-03 3.093378549E-01
 9.209094048E-01 1.673653955E-03 3.104762877E-01
 9.308832288E-01 1.852295361E-03 3.125729042E-01
 9.394808412E-01 1.932322863E-03 3.148980672E-01
 9.508919120E-01 1.930073136E-03 3.091297093E-01
 9.627591372E-01 1.801639912E-03 3.155003592E-01
 9.760214686E-01 1.509924186E-03 2.993236615E-01
 9.880067110E-01 1.109717297E-03 3.285153576E-01
 -5.000000000E-01 -1.000000000E+00 3.187551274E-02
 3.500000000E+00 -1.000000000E+00 1.675742268E-02
 3.500000000E+00 1.000000000E+00 -1.402326872E-03
 -5.000000000E-01 1.000000000E+00 -3.864419754E-03
 -5.000000000E-01 5.000000000E-01 2.931792954E-02
 -5.000000000E-01 2.752797990E-12 9.289442569E-02
 -5.000000000E-01 -5.000000000E-01 6.227644550E-02
 -9.421907698E-13 -1.000000000E+00 2.016653211E-02
 5.000000000E-01 -1.000000000E+00 1.172135929E-02
 1.000000000E+00 -1.000000000E+00 1.977309874E-02
 1.500000000E+00 -1.000000000E+00 3.481798726E-02
 2.000000000E+00 -1.000000000E+00 2.969634881E-02
 2.500000000E+00 -1.000000000E+00 2.146585906E-02
 3.000000000E+00 -1.000000000E+00 1.740566082E-02
 3.500000000E+00 -5.000000000E-01 1.924530445E-02
 3.500000000E+00 -2.752797990E-12 1.811357105E-02
 3.500000000E+00 5.000000000E-01 6.663910197E-03
 3.000000000E+00 1.000000000E+00 -3.821464022E-03
 2.500000000E+00 1.000000000E+00 -1.067398007E-02
 2.000000000E+00 1.000000000E+00 -2.622537563E-02
 1.500000000E+00 1.000000000E+00 -5.940840292E-02
 1.000000000E+00 1.000000000E+00 -1.178255065E-01
 5.000000000E-01 1.000000000E+00 -1.100809210E-01
 1.733724275E-12 1.000000000E+00 -3.294938097E-02
 6.859975662E-01 -3.480748124E-02 6.613639696E-02
 7.856940815E-01 -2.248765110E-02 1.867522606E-01
 9.053449763E-01 -1.227867325E-02 2.906096671E-01
 5.873619721E-01 -4.669299856E-02 -8.124523678E-02
 5.000758511E-01 -5.524235306E-02 -2.436845188E-01
 6.818106214E-01 7.166182011E-02 -3.956537640E-01
 2.816177411E-01 -6.476536263E-02 -3.256564944E-01
 9.111095443E-01 3.264653726E-02 -3.836792488E-02
 2.949528784E-01 8.140102194E-02 -4.831500134E-01
 7.804104653E-01 5.537984447E-02 -2.678646024E-01
 1.814281562E-01 -5.758721942E-02 -2.451622554E-01
 3.801334734E-01 -6.190757292E-02 -3.761947691E-01
 1.937050822E-01 7.385752176E-02 -4.241026468E-01
 5.632004139E-01 8.089869081E-02 -5.141730071E-01
 3.957296304E-01 8.126643547E-02 -5.259873813E-01
 1.832806177E+00 -6.048677053E-01 2.966234928E-02
 1.750000000E+00 5.669872981E-01 -1.741784365E-02
 3.031172855E+00 2.156852621E-01 9.719119239E-03
 7.500000000E-01 -5.669872981E-01 2.249247778E-02
 7.596291281E-01 5.432951107E-01 -1.595719596E-01
 4.824978760E-01 8.526828098E-02 -5.347250863E-01
 3.261987280E-01 6.699362513E-01 -1.338584427E-01
 2.734854736E+00 -5.326848651E-01 1.657745941E-02
 1.159553401E+00 5.896332463E-01 -6.769378516E-02
 9.473152741E-01 3.422598177E-01 -9.083475209E-02
 8.423124690E-01 4.119626780E-02 -1.786545931E-01
 1.193047789E+00 -6.924800255E-01 4.401684842E-02
 1.504735357E+00 -2.681689853E-01 3.757379115E-02
 2.500000000E-01 -5.669872981E-01 -1.908397720E-02
 7.932882647E-02 -3.921463626E-02 -1.661927011E-01
 2.248351461E+00 -5.895277979E-01 2.013005420E-02
 1.983498225E+00 -2.205081322E-01 1.804519118E-02
 2.413227508E+00 -1.881378545E-01 1.191336930E-02
 2.184643432E+00 1.582788674E-01 5.071287352E-03
 1.814187856E+00 6.963301983E-02 9.778267465E-03
 -2.707767568E-01 -2.472570002E-01 1.105270946E-01
 -1.559240245E-01 -5.625453465E-01 3.843811454E-02
 -2.715745373E-01 2.370785889E-01 8.520486894E-02
 1.111854566E-01 5.620934007E-02 -3.462546584E-01
 -1.454955556E-01 6.026010786E-01 -2.446198422E-02
 1.059104246E-01 3.689298400E-01 -1.141117651E-01
 2.191332683E+00 6.008588893E-01 -7.806091449E-03
 2.738052269E+00 6.037955817E-01 1.722718610E-03
 -2.346997438E-01 2.326739237E-03 1.464730669E-01
 -1.267304017E-01 -1.258769321E-01 1.763718885E-01
 3.360661711E-02 -2.612262310E-02 -8.922299138E-02
 3.220801034E-02 -3.715640703E-01 1.292347102E-02
 2.729554894E-01 -3.067664794E-01 -1.003961174E-01
 -1.099582481E-01 1.273289606E-01 1.476919153E-01
 5.969548891E-02 4.410357872E-02 -2.269014986E-01
 -7.258967267E-02 3.072388175E-01 -7.037463710E-04
 -3.666844197E-03 1.691536648E-01 2.384899359E-02
 1.771262415E-01 2.316190842E-01 -2.219997210E-01
 2.436212716E-01 7.860639434E-02 -4.569642631E-01
 2.682842773E-01 8.028050457E-02 -4.706434862E-01
 2.187206723E-01 7.658022470E-02 -4.426286357E-01
 -2.758790308E-02 1.020497710E-01 1.515280843E-01
 2.747931464E-02 3.062927748E-02 -5.028187551E-02
 -1.099027079E-01 2.396725402E-02 2.638394334E-01
 -6.984386682E-02 -5.484640484E-02 2.718764652E-01
 2.491213302E-02 1.065222821E-01 -1.804180412E-03
 3.109364317E+00 -2.612690236E-01 1.629930471E-02
 -5.115148990E-02 3.940613602E-02 3.264743449E-01
 -5.024162061E-02 -1.074066723E-02 4.997717915E-01
 -2.742119640E-02 -4.971432151E-02 3.864467708E-01
 1.945884683E-02 -2.097664111E-02 -3.083465267E-02
 -3.525143046E-02 -1.023639684E-01 1.748010858E-01
 3.759213089E-02 -1.151963360E-01 3.537769394E-02
 1.326744994E-01 -5.233477735E-02 -2.099655269E-01
 1.080138472E-01 -4.547012321E-02 -1.905685257E-01
 -1.727581391E-02 -1.894108507E-01 8.004515733E-02
 7.715705544E-02 -1.909320355E-01 -3.902807411E-02
 9.750608597E-02 -1.083541617E-01 -9.520403395E-02
 1.607256518E-01 -1.415444347E-01 -1.362053194E-01
 2.308725629E-01 -6.286888700E-02 -2.864178663E-01
 1.571542271E-01 -2.580571017E-01 -6.519224097E-02
 2.344185344E-01 -1.948606996E-01 -1.660133815E-01
 3.339532588E-01 -6.488989427E-02 -3.622177218E-01
 3.779861767E-01 -2.207105274E-01 -1.652283648E-01
 4.418627107E-01 -6.295916305E-02 -3.266678377E-01
 4.173877301E-01 -6.628856938E-02 -3.479983655E-01
 4.652591324E-01 -6.051676191E-02 -3.011281354E-01
 4.001267963E-01 -3.594886390E-01 -7.432089446E-02
 4.805216457E-01 -2.365586928E-01 -1.193118517E-01
 4.361940891E-01 -1.598652933E-01 -2.036402600E-01
 5.283585287E-01 -1.604823284E-01 -1.237044216E-01
 5.498802072E-01 -5.186519539E-02 -1.473363478E-01
 5.253719163E-01 -5.388188593E-02 -1.913949776E-01
 5.797729234E-01 -2.268445145E-01 -5.564424570E-02
 6.224788351E-01 -1.450420143E-01 -2.672765127E-02
 6.459332366E-01 -4.018161541E-02 1.046569144E-02
 6.744404199E-01 -2.156210072E-01 1.451212033E-02
 7.340648101E-01 -2.592069116E-02 1.290182822E-01
 7.105650369E-01 -1.538119264E-01 5.629294488E-02
 7.678679411E-01 -2.121655057E-01 7.710825896E-02
 8.466930755E-01 -1.482919880E-02 2.510307910E-01
 8.187177029E-01 -1.765010109E-02 2.228629890E-01
 8.101453585E-01 -1.574576685E-01 1.188852152E-01
 8.539075360E-01 -1.924036389E-01 1.179900938E-01
 9.680929639E-01 -1.122694984E-02 2.869217694E-01
 8.986675257E-01 -1.358423755E-01 1.716920206E-01
 9.586528912E-01 -2.079501281E-01 1.254846327E-01
 1.010444489E+00 -1.217105287E-01 1.627256697E-01
 1.051634948E+00 -1.912061288E-01 1.126708088E-01
 1.109849964E+00 -1.117261320E-01 1.146658078E-01
 1.019669262E+00 -3.120742524E-01 9.474726732E-02
 1.149702781E+00 -2.160704552E-01 9.133378683E-02
 1.201686346E+00 -1.026734288E-01 7.702253177E-02
 1.153993602E+00 -1.569207300E-03 7.958618363E-02
 1.283638205E+00 2.481807957E-02 4.234910292E-02
 1.191874029E+00 1.439938081E-01 3.701249689E-02
 1.363733691E+00 1.814074756E-01 1.110131056E-02
 3.500765417E-01 -1.407048369E-01 -2.532117072E-01
 1.047330782E+00 -5.974220968E-02 1.529462782E-01
 8.552494540E-01 -8.224596379E-02 1.963239994E-01
 7.599101157E-01 -9.031292887E-02 1.208986383E-01
 9.490148957E-01 -7.529532482E-02 2.228331831E-01
 9.345276130E-01 -5.742593334E-03 3.028584858E-01
 6.725312858E-01 -1.083059886E-01 2.942976000E-02
 1.077086655E+00 1.257109951E-02 1.127032020E-01
 9.849735054E-01 1.394313237E-02 2.064883021E-01
 1.055668474E+00 1.544544699E-01 2.446407750E-02
 5.692975925E-01 -1.127890694E-01 -9.542382904E-02
 4.808551370E-01 -1.200110177E-01 -2.023001626E-01
 1.506492038E+00 -1.433338812E-02 2.532415676E-02
 5.411113048E-01 -3.389866374E-01 -5.215984470E-02
 4.009378031E-01 -1.216804469E-01 -2.686552841E-01
 5.292069088E-01 -4.971193921E-01 -3.405540220E-02
 8.337522301E-01 -3.262883276E-01 6.966109143E-02
 1.029658407E+00 7.279533831E-02 9.001095983E-02
 9.679632754E-01 1.272351319E-01 -8.479169628E-03
 2.262192261E-01 -1.205565590E-01 -2.235400744E-01
 9.676184975E-01 7.058905950E-02 3.821041337E-02
 9.403417295E-01 2.455504018E-02 2.640751653E-02
 9.133559096E-01 9.445071881E-02 -5.223460633E-02
 8.917899529E-01 1.571701819E-01 -1.057682769E-01
 8.802556426E-01 3.961285092E-02 -1.118057655E-01
 8.470206656E-01 1.120831799E-01 -1.561767156E-01
 7.297516272E-01 5.994281485E-02 -3.392075689E-01
 8.167525932E-01 1.599813443E-01 -1.838909585E-01
 7.059484221E-01 6.284456029E-02 -3.662391328E-01
 7.760328304E-01 1.346991131E-01 -2.413397624E-01
 6.221435102E-01 7.512130826E-02 -4.677285788E-01
 7.525957555E-01 1.868087814E-01 -2.438271119E-01
 6.467428509E-01 7.605005773E-02 -4.387730064E-01
 5.997389367E-01 7.884083605E-02 -4.867456797E-01
 7.096051196E-01 1.470234577E-01 -3.069632972E-01
 8.373587264E-01 2.447462116E-01 -1.552910420E-01
 7.102722202E-01 2.779173242E-01 -2.472049747E-01
 7.394255076E-01 1.054068415E-01 -2.957943713E-01
 7.570110493E-01 5.842886745E-02 -2.996859359E-01
 8.142732878E-01 8.739117260E-02 -2.054233857E-01
 8.189560170E-01 4.930426690E-02 -2.143033303E-01
 8.742579884E-01 8.510515633E-02 -1.206178313E-01
 2.807284421E-01 -1.429415720E-01 -2.278249826E-01
 2.698544118E-01 -1.015821517E-01 -2.710943196E-01
 2.567327105E-01 -6.434072342E-02 -3.081396821E-01
 3.096875363E-01 -1.038091490E-01 -2.866428008E-01
 3.084428822E-01 -6.542352830E-02 -3.441445548E-01
 3.455671573E-01 -9.524645325E-02 -3.170522805E-01
 3.555377309E-01 -6.449624869E-02 -3.687325853E-01
 3.776612086E-01 -9.638816123E-02 -3.115500139E-01
 6.294231152E-01 -4.355985723E-02 -1.209607301E-02
 6.438205497E-01 -5.929241010E-02 4.682209846E-03
 6.209587522E-01 -6.207375360E-02 -2.619452597E-02
 6.619095731E-01 -5.003422553E-02 3.029733567E-02
 1.438577546E-01 -9.475444464E-02 -1.709983963E-01
 1.567683612E-01 -5.481470180E-02 -2.248434988E-01
 9.549584738E-01 2.424825911E-02 8.116311445E-02
 1.238363706E+00 3.438689657E-01 -2.094183007E-02
 1.423279534E+00 4.320809479E-01 -1.528529112E-02
 6.148687534E-01 -4.380601690E-02 -3.817888459E-02
 -7.425437275E-04 5.846061738E-02 2.269252186E-01
 1.058330352E-02 1.865567525E-02 1.376187107E-01
 1.306253716E+00 -1.732935765E-01 5.902761731E-02
 9.471786094E-01 4.158555264E-02 4.636452659E-02
 9.720672285E-01 3.672709451E-02 8.340408316E-02
 9.217320032E-01 5.457841176E-02 -2.968569232E-02
 3.221181423E-01 -6.300319485E-02 -3.577578686E-01
 3.239281800E-01 -7.874124588E-02 -3.331460817E-01
 2.937423219E-01 -7.967029980E-02 -3.121093929E-01
 7.415344497E-01 6.160597761E-02 -3.188660436E-01
 7.536800154E-01 7.840656841E-02 -2.978885781E-01
 7.720520212E-01 6.805019748E-02 -2.737000113E-01
 7.951497873E-01 5.332053567E-02 -2.471063062E-01
 1.683099558E-02 -6.485271153E-02 1.400078659E-01
 5.833740528E-02 -7.725384177E-02 -7.289836264E-02
 5.687315990E-02 -3.794416764E-02 -1.215121991E-01
 1.227161385E+00 -3.821153942E-01 6.165896521E-02
 1.003450768E+00 -5.088155800E-01 5.310910961E-02
 8.017462624E-01 3.865064178E-01 -1.638979359E-01
 6.444684699E-01 4.240786724E-01 -2.097218132E-01
 5.603128423E-01 2.819980622E-01 -3.077369359E-01
 6.344738475E-01 2.126815207E-01 -3.310158432E-01
 5.262385489E-01 1.884272874E-01 -3.964217124E-01
 4.682256277E-01 2.531087846E-01 -3.509251013E-01
 3.438938720E-01 8.185065360E-02 -5.069218883E-01
 3.191526233E-01 7.928395563E-02 -4.993778590E-01
 5.187025410E-01 8.331003716E-02 -5.335729994E-01
 5.408958329E-01 8.287172539E-02 -5.255953371E-01
 4.323483612E-01 1.769967459E-01 -4.240277811E-01
 3.803873490E-01 2.236160644E-01 -3.691555508E-01
 4.315240718E-01 8.533544261E-02 -5.306505544E-01
 4.545930013E-01 8.565143035E-02 -5.332060719E-01
 6.082386694E-01 1.555320973E-01 -3.925364068E-01
 3.859073080E-01 3.135146157E-01 -3.110747444E-01
 3.786547786E-01 1.487784311E-01 -4.341221274E-01
 3.184378115E-01 1.853344402E-01 -3.832197539E-01
 4.982568583E-01 1.385854818E-01 -4.614234302E-01
 3.286115506E-01 1.322434558E-01 -4.342209416E-01
 2.720162530E-01 1.391483985E-01 -3.983525635E-01
 4.219748887E-01 1.290905823E-01 -4.742977651E-01
 2.474088685E-01 1.854329726E-01 -3.398902420E-01
 2.961548640E-01 2.655966268E-01 -2.788088062E-01
 4.949621888E-01 4.236559725E-01 -2.402747304E-01
 3.621158692E-01 1.148379739E-01 -4.757940986E-01
 3.717924629E-01 8.158752577E-02 -5.171746998E-01
 3.931837341E-01 1.156272327E-01 -4.846572524E-01
 3.446698794E-01 -7.526957479E-02 -3.489056945E-01
 9.564834151E-01 2.155208383E-01 -5.914922115E-02
 6.712561308E-01 -3.709178484E-02 4.723239040E-02
 2.976491627E-01 1.162309669E-01 -4.418207424E-01
 7.902964781E-01 6.971120116E-02 -2.443835157E-01
 8.094733965E-01 6.225652298E-02 -2.224588305E-01
 8.280796445E-01 6.348266091E-02 -1.946935440E-01
 2.947089841E-01 -6.275630784E-02 -3.377867644E-01
 3.263783748E-02 7.216623980E-02 -6.734463548E-02
 4.270243987E-02 3.808645912E-02 -1.574939347E-01
 7.746416309E-02 9.306722615E-02 -1.796599032E-01
 1.459895898E-01 6.256421323E-02 -3.878077397E-01
 7.825703897E-02 5.022874426E-02 -2.787016354E-01
 7.309613393E-02 1.451134910E-01 -1.248945827E-01
 1.212547770E-01 1.155267979E-01 -2.609162199E-01
 3.087862028E-01 7.889835570E-02 -4.927416954E-01
 3.139265754E-01 9.588014790E-02 -4.746638055E-01
 3.398333274E-01 9.799095757E-02 -4.871045360E-01
 2.812382044E-01 9.825351973E-02 -4.546523537E-01
 2.549260902E-01 9.683371678E-02 -4.383659324E-01
 2.254369335E-01 1.294529687E-01 -3.718479797E-01
 2.297782224E-01 9.156856944E-02 -4.313762924E-01
 2.047689883E-01 9.390108042E-02 -4.061313944E-01
 1.776398786E-01 8.446217879E-02 -3.893292377E-01
 1.688171788E-01 6.935385581E-02 -4.090216289E-01
 1.502359665E-01 8.404500714E-02 -3.563305494E-01
 1.688584486E-01 1.191479952E-01 -3.309051700E-01
 1.348968071E-01 1.675080886E-01 -2.305739625E-01
 3.326176437E-01 8.100029760E-02 -5.025066881E-01
 4.080980956E-01 8.491678302E-02 -5.248432927E-01
 6.584068109E-01 -3.559711470E-02 3.014522072E-02
 7.688168568E-01 5.414115732E-02 -2.876014993E-01
 3.897588604E-01 -6.175179749E-02 -3.741434240E-01
 8.067152947E-01 4.830644414E-02 -2.310257780E-01
 3.838389335E-01 8.312605597E-02 -5.204871707E-01
 3.449040089E-01 -6.227062040E-02 -3.704212764E-01
 5.994695834E-01 -4.321369624E-02 -6.035262760E-02
 6.006623131E-01 -5.674764133E-02 -5.986587571E-02
 5.763860965E-01 -6.454829054E-02 -9.563125419E-02
 6.043499275E-01 -8.731728326E-02 -5.063960770E-02
 5.526291504E-01 -8.257839196E-02 -1.285977140E-01
 3.678721327E-01 -6.308370405E-02 -3.717081184E-01
 3.626445971E-01 -7.856313574E-02 -3.456856439E-01
 9.997235068E-01 3.566310681E-02 1.729377519E-01
 1.029810188E+00 1.966905750E-02 1.525952017E-01
 1.031522200E+00 -1.062882681E-02 1.506459932E-01
 1.005775177E+00 -3.211379115E-02 2.373465356E-01
 5.755242693E-01 -4.663541126E-02 -1.015384928E-01
 2.860434039E-01 4.127324452E-01 -2.001523404E-01
 6.389655181E-01 -8.964836057E-02 -7.276987322E-03
 6.970301895E-01 -7.380669041E-02 6.349272917E-02
 7.083173539E-01 -2.941139967E-02 9.647023955E-02
 3.586718334E-01 8.844142548E-02 -5.028369914E-01
 7.225031686E-01 -2.622035914E-02 1.140890974E-01
 7.269670943E-01 -4.174995022E-02 1.120368248E-01
 7.594156770E-01 -2.439884515E-02 1.563163732E-01
 7.468409503E-01 -3.621274584E-02 1.365140975E-01
 7.685947101E-01 -3.819947057E-02 1.578567094E-01
 7.464799364E-01 -2.272047111E-02 1.422140834E-01
 7.712246374E-01 -2.119304914E-02 1.716172256E-01
 7.941835121E-01 -4.023712544E-02 1.821417742E-01
 8.018082768E-01 -2.489768508E-02 2.026658619E-01
 8.157788091E-01 -3.607788082E-02 2.049972785E-01
 8.101636664E-01 -5.921871378E-02 1.825520755E-01
 7.792101370E-01 -6.375644922E-02 1.523410928E-01
 6.971001796E-01 -3.006554093E-02 8.151310256E-02
 7.034819037E-01 -4.553706333E-02 8.368224876E-02
 6.821331770E-01 -5.323994726E-02 5.567228653E-02
 2.552435410E+00 2.123068006E-01 4.393807730E-03
 2.562606673E-01 7.598610086E-02 -4.679156685E-01
 2.064706983E-01 7.317542390E-02 -4.361764387E-01
 2.313088122E-01 7.466882135E-02 -4.545943562E-01
 8.336672651E-01 -2.714847572E-02 2.288279496E-01
 8.516036419E-01 -3.310635146E-02 2.381358720E-01
 8.787743453E-01 -1.452754119E-02 2.746791298E-01
 8.368559887E-01 -4.857952569E-02 2.138388843E-01
 8.624584469E-01 -1.935748473E-02 2.599328787E-01
 8.729932365E-01 -3.399447665E-02 2.496764353E-01
 8.969039221E-01 -2.802046417E-02 2.692029663E-01
 8.865806750E-01 -5.358429524E-02 2.354955875E-01
 9.172082210E-01 -4.846355708E-02 2.451484024E-01
 8.916925547E-01 6.140458620E-02 -8.590573374E-02
 8.641222250E-01 5.595973001E-02 -1.347880260E-01
 8.993877446E-01 4.164312774E-02 -7.030433495E-02
 4.078970776E-01 -8.729944951E-02 -3.188177462E-01
 4.375250252E-01 -1.098951939E-01 -2.609040063E-01
 4.647131807E-01 -9.121442619E-02 -2.589176309E-01
 4.986357958E-01 -8.986176838E-02 -2.134551227E-01
 8.934268482E-01 -1.071277896E-02 2.868685197E-01
 2.814215782E-01 7.890658130E-02 -4.795347992E-01
 1.814291447E-01 6.813442799E-02 -4.233399564E-01
 -1.076997973E-01 -2.993308400E-01 5.848416588E-02
 5.123900748E-01 -5.611219694E-02 -2.187407478E-01
 5.181613370E-01 -7.225209383E-02 -1.896537424E-01
 4.812226862E-01 -7.239919273E-02 -2.582193978E-01
 5.389299874E-01 -6.745229797E-02 -1.601733721E-01
 5.265286646E-01 -9.991271887E-02 -1.604190955E-01
 4.554214783E-01 -7.299701054E-02 -2.955630496E-01
 4.344691703E-01 -7.989031169E-02 -3.083158021E-01
 6.912884837E-02 2.315938310E-01 -9.748312256E-02
 7.459807086E-01 -6.178307343E-02 1.234837322E-01
 1.702105288E+00 -1.327921122E-01 2.178444091E-02
 8.957363742E-02 -7.256811524E-02 -1.240488984E-01
 6.794420882E-02 -5.255194962E-02 -1.230406029E-01
 4.450755427E-02 -5.110121071E-02 -3.208512240E-02
 9.164345885E-02 -5.273164930E-02 -1.601159044E-01
 1.159084516E-01 -6.787556863E-02 -1.641353010E-01
 1.432103203E-01 -6.707380721E-02 -2.000799551E-01
 1.662448497E-01 -7.216823064E-02 -2.147225751E-01
 1.900664730E-01 -7.033071139E-02 -2.412315459E-01
 2.052100416E-01 -5.894832407E-02 -2.659278998E-01
 2.159055128E-01 -7.821480806E-02 -2.527544453E-01
 2.445743963E-01 -8.119699932E-02 -2.776128354E-01
 2.690202461E-01 -7.682853650E-02 -3.006833947E-01
 2.181416314E-01 -5.785647614E-02 -2.807516137E-01
 1.933149496E-01 -5.536129873E-02 -2.583540615E-01
 -2.049052743E-02 3.163901648E-02 4.196123183E-01
 4.226872301E-03 1.434618966E-02 3.559687844E-01
 -2.001512504E-02 7.306976664E-03 6.755049098E-01
 -8.850102798E-03 -1.161956878E-02 5.857108968E-01
 4.008880449E-01 -6.626633820E-02 -3.611863796E-01
 1.000124404E+00 -7.126995578E-02 2.018337041E-01
 1.449370488E-01 -5.073960522E-02 -2.212966665E-01
 9.180451329E-01 -2.490257039E-02 2.761500601E-01
 9.397190337E-01 -2.977740724E-02 2.716930490E-01
 9.727048413E-01 -4.674908478E-02 2.293243930E-01
 9.867055398E-01 -1.673276425E-02 2.917015874E-01
 9.184040332E-01 -1.195675369E-02 2.963511116E-01
 7.276429197E-01 7.846832646E-02 -3.278407086E-01
 7.046428471E-01 1.045186220E-01 -3.406680882E-01
 6.717488355E-01 1.260631586E-01 -3.623754659E-01
 6.765031319E-01 9.637621935E-02 -3.805475505E-01
 6.459973592E-01 1.020501029E-01 -4.126213593E-01
 9.099580477E-01 -8.649133017E-02 2.097598543E-01
 5.465221886E-01 6.304797594E-01 -1.666263666E-01
 5.640115680E-01 -5.064852691E-02 -1.217679969E-01
 5.563674019E-01 -6.341854055E-02 -1.310851381E-01
 4.300772114E-01 -6.243765223E-02 -3.434220486E-01
 3.776398079E-01 9.781318609E-02 -4.984792294E-01
 5.376655810E-01 -5.115326446E-02 -1.708661815E-01
 1.212550478E-01 8.219379908E-02 -3.137895434E-01
 7.189047920E-01 -6.422273831E-02 9.699400419E-02
 7.239927232E-01 -9.851447201E-02 8.469754845E-02
 4.431124608E-02 5.198608827E-02 -1.222426293E-01
 2.662971665E-02 4.812982206E-02 1.697058317E-03
 1.291685641E-02 3.687151488E-02 1.261067364E-01
 6.391824527E-02 6.355734050E-02 -1.732235755E-01
 1.644253305E-02 2.475740179E-02 5.533638452E-02
 -2.861042753E-03 3.052636817E-02 3.846200929E-01
 6.487338860E-03 2.312841933E-02 2.284141180E-01
 9.143334401E-02 6.627963991E-02 -2.761644065E-01
 6.937683628E-01 1.989787702E-01 -2.907688384E-01
 1.907454598E-01 1.666322219E-01 -3.025293474E-01
 8.020049921E-01 -9.808111050E-02 1.510591893E-01
 6.840619067E-01 -4.075792026E-01 1.102048156E-02
 9.275111354E-01 3.102438922E-02 -6.360519325E-03
 6.953154581E-01 6.548613255E-02 -3.800349062E-01
 7.044178358E-01 7.967876528E-02 -3.614769978E-01
 6.657568557E-01 7.910639343E-02 -4.114429768E-01