TITLE     = "Visualization of the solution"
VARIABLES = "x"
"y"
"Pressure_Coefficient"
ZONE T="Zone"
 STRANDID=0, SOLUTIONTIME=0
 Nodes=696, Elements=1177, ZONETYPE=FEQuadrilateral
 DATAPACKING=POINT
 DT=(DOUBLE DOUBLE DOUBLE )
 1.000288486E+00 5.229074741E-04 2.418373667E-01
 9.859328270E-01 3.289654618E-03 1.990290039E-01
 9.736183286E-01 5.730101373E-03 1.237832010E-01
 9.587419629E-01 8.616530336E-03 6.563882337E-02
 9.451578856E-01 1.124978904E-02 3.258015373E-02
 9.325367808E-01 1.359818410E-02 4.701005225E-04
 9.216469526E-01 1.568595320E-02 -4.124233046E-02
 9.099934697E-01 1.788567007E-02 -6.978598037E-02
 8.985605836E-01 1.991799846E-02 -9.180179245E-02
 8.866575360E-01 2.201252989E-02 -1.154327055E-01
 8.744591475E-01 2.408744209E-02 -1.338907733E-01
 8.625690341E-01 2.606071159E-02 -1.566801901E-01
 8.504169583E-01 2.803109773E-02 -1.730895257E-01
 8.388893604E-01 2.980941720E-02 -1.856234329E-01
 8.272287846E-01 3.158905730E-02 -1.973326077E-01
 8.143644333E-01 3.348674625E-02 -2.124814528E-01
 8.014032245E-01 3.537774086E-02 -2.267662461E-01
 7.892737985E-01 3.707175702E-02 -2.363764861E-01
 7.768224478E-01 3.879432753E-02 -2.511124228E-01
 7.651525140E-01 4.038090259E-02 -2.649535893E-01
 7.522639036E-01 4.209040478E-02 -2.795111542E-01
 7.384489179E-01 4.387081787E-02 -2.916525808E-01
 7.274313569E-01 4.524863139E-02 -3.045818525E-01
 7.162097096E-01 4.664288834E-02 -3.227483961E-01
 7.043879032E-01 4.806480557E-02 -3.333135728E-01
 6.906334758E-01 4.963296279E-02 -3.458559415E-01
 6.774887443E-01 5.110463873E-02 -3.628351178E-01
 6.667734981E-01 5.226277933E-02 -3.743521849E-01
 6.549175382E-01 5.348404124E-02 -3.882106107E-01
 6.435573697E-01 5.462247878E-02 -3.996667541E-01
 6.314232945E-01 5.576212704E-02 -4.109573762E-01
 6.198537350E-01 5.681491643E-02 -4.242925416E-01
 6.089611650E-01 5.774404481E-02 -4.347107056E-01
 5.966325402E-01 5.873819813E-02 -4.452155836E-01
 5.845661759E-01 5.963430926E-02 -4.542508283E-01
 5.707977414E-01 6.058470532E-02 -4.647997852E-01
 5.576060414E-01 6.140300259E-02 -4.731003437E-01
 5.445292592E-01 6.212953851E-02 -4.796736715E-01
 5.330824852E-01 6.270003319E-02 -4.838994203E-01
 5.209993124E-01 6.323501468E-02 -4.893375282E-01
 5.081611872E-01 6.372980028E-02 -4.920281834E-01
 4.970787764E-01 6.407725811E-02 -4.956857736E-01
 4.838629365E-01 6.444258243E-02 -4.982434751E-01
 4.706410170E-01 6.469614804E-02 -4.962275694E-01
 4.563858807E-01 6.488774717E-02 -4.971818389E-01
 4.424270093E-01 6.498729438E-02 -4.957782986E-01
 4.291437268E-01 6.498032808E-02 -4.941483162E-01
 4.159480035E-01 6.490934640E-02 -4.904580082E-01
 4.032269716E-01 6.474725157E-02 -4.872194001E-01
 3.903497756E-01 6.453757733E-02 -4.859079906E-01
 3.780980706E-01 6.425153464E-02 -4.827184485E-01
 3.667048216E-01 6.394051015E-02 -4.765878233E-01
 3.532415628E-01 6.348294765E-02 -4.724589793E-01
 3.410036564E-01 6.300947070E-02 -4.670430196E-01
 3.282458186E-01 6.243529916E-02 -4.631358531E-01
 3.178841472E-01 6.193046644E-02 -4.584307752E-01
 3.057080209E-01 6.126721948E-02 -4.536891061E-01
 2.928170860E-01 6.050303206E-02 -4.473622208E-01
 2.789906263E-01 5.958710983E-02 -4.393717919E-01
 2.667718232E-01 5.871143937E-02 -4.349924899E-01
 2.548623085E-01 5.779896304E-02 -4.304863282E-01
 2.424596399E-01 5.677557364E-02 -4.215995014E-01
 2.296952307E-01 5.562973395E-02 -4.152468860E-01
 2.177544981E-01 5.450632423E-02 -4.113443960E-01
 2.059063017E-01 5.330679566E-02 -4.018607681E-01
 1.944924742E-01 5.207104608E-02 -3.922626196E-01
 1.821929812E-01 5.068076029E-02 -3.855740310E-01
 1.703811735E-01 4.925310239E-02 -3.786315048E-01
 1.588037908E-01 4.776700586E-02 -3.682576751E-01
 1.470665783E-01 4.617919773E-02 -3.628794191E-01
 1.364731342E-01 4.466510192E-02 -3.530951163E-01
 1.252953559E-01 4.297193885E-02 -3.440727150E-01
 1.140781417E-01 4.116743803E-02 -3.329194840E-01
 1.036355346E-01 3.938340768E-02 -3.267632841E-01
 9.410676360E-02 3.766983747E-02 -3.166835928E-01
 8.335221559E-02 3.560717776E-02 -3.054730485E-01
 7.199522108E-02 3.326552361E-02 -2.955434910E-01
 6.229006127E-02 3.109616973E-02 -2.838922637E-01
 5.285911635E-02 2.883169614E-02 -2.659534418E-01
 4.393012449E-02 2.648408338E-02 -2.464108358E-01
 3.623289242E-02 2.426548861E-02 -2.177996476E-01
 2.952211536E-02 2.215220965E-02 -2.067980247E-01
 2.381085046E-02 2.016637288E-02 -1.984833517E-01
 1.962191053E-02 1.856245846E-02 -2.025207228E-01
 1.570797898E-02 1.692405902E-02 -1.619961950E-01
 1.284840517E-02 1.559888199E-02 -1.288554189E-01
 1.032811310E-02 1.432938036E-02 -1.314375986E-01
 8.454820141E-03 1.329919696E-02 -7.544267786E-02
 6.745133549E-03 1.226807665E-02 -6.132381446E-02
 5.169435404E-03 1.122613065E-02 7.670394078E-02
 3.153422615E-03 9.704305790E-03 -6.908963075E-02
 1.459046965E-03 8.166827261E-03 3.831841110E-01
 1.898628216E-05 6.525203120E-03 4.234345759E-01
 -1.332162647E-03 4.329713061E-03 4.437892074E-01
 -1.953542465E-03 2.605828457E-03 1.024054026E+00
 -2.188355429E-03 1.206794637E-03 7.494799090E-01
 -2.168436768E-03 -5.137409316E-04 1.003950239E+00
 -1.759818406E-03 -2.479300136E-03 7.036137405E-01
 -8.050021133E-04 -4.753078800E-03 7.954801349E-01
 7.398110465E-04 -7.183271460E-03 6.731946400E-01
 2.910961397E-03 -9.727904573E-03 5.425524580E-01
 4.872704856E-03 -1.160892658E-02 4.820218673E-01
 7.140443660E-03 -1.350253262E-02 4.510327584E-01
 8.849889040E-03 -1.478158310E-02 3.185488362E-01
 1.094568707E-02 -1.622767374E-02 2.911477680E-01
 1.344310865E-02 -1.780069433E-02 2.206623773E-01
 1.671758480E-02 -1.968247816E-02 1.531297038E-01
 1.988077722E-02 -2.134095132E-02 9.484622808E-02
 2.399365790E-02 -2.331364341E-02 4.225774984E-02
 2.946606651E-02 -2.567919903E-02 -1.228457608E-02
 3.518572822E-02 -2.792271972E-02 -7.452724286E-02
 4.230206460E-02 -3.043421917E-02 -1.157176866E-01
 4.980559647E-02 -3.283515945E-02 -1.596809303E-01
 5.844758078E-02 -3.535455093E-02 -1.853517271E-01
 6.705985963E-02 -3.764918819E-02 -2.127286647E-01
 7.737013698E-02 -4.015481472E-02 -2.285908827E-01
 8.713549376E-02 -4.234457389E-02 -2.557652084E-01
 9.762886912E-02 -4.452234879E-02 -2.742720005E-01
 1.086370647E-01 -4.663836211E-02 -2.924631146E-01
 1.201674864E-01 -4.870336503E-02 -3.052411447E-01
 1.316489577E-01 -5.061146617E-02 -3.196138430E-01
 1.419306546E-01 -5.222085491E-02 -3.309972580E-01
 1.528543085E-01 -5.382075906E-02 -3.408298959E-01
 1.646055877E-01 -5.543430522E-02 -3.552703162E-01
 1.761329770E-01 -5.691863596E-02 -3.686218581E-01
 1.876768768E-01 -5.831005052E-02 -3.810258537E-01
 1.980486214E-01 -5.947367102E-02 -3.923175560E-01
 2.090142816E-01 -6.062703952E-02 -4.037893715E-01
 2.210397869E-01 -6.177919358E-02 -4.121758741E-01
 2.331516296E-01 -6.286514550E-02 -4.222413898E-01
 2.451064885E-01 -6.384211779E-02 -4.365903993E-01
 2.574911416E-01 -6.474103779E-02 -4.476009566E-01
 2.685328126E-01 -6.546001881E-02 -4.576114777E-01
 2.811940312E-01 -6.618058681E-02 -4.678624548E-01
 2.933647037E-01 -6.675274670E-02 -4.770172926E-01
 3.062269688E-01 -6.724853814E-02 -4.831200187E-01
 3.178763092E-01 -6.757847965E-02 -4.899075383E-01
 3.305453658E-01 -6.784567237E-02 -4.961623678E-01
 3.411011994E-01 -6.795820594E-02 -5.069407398E-01
 3.524705470E-01 -6.796134263E-02 -5.027963460E-01
 3.635874987E-01 -6.788212806E-02 -5.038594491E-01
 3.743352890E-01 -6.768237799E-02 -5.009290059E-01
 3.860764503E-01 -6.737487763E-02 -4.939955653E-01
 3.989093006E-01 -6.688104570E-02 -4.862697295E-01
 4.110859334E-01 -6.629602611E-02 -4.762858424E-01
 4.240551293E-01 -6.550973654E-02 -4.636803342E-01
 4.368385673E-01 -6.461797655E-02 -4.475347328E-01
 4.498196542E-01 -6.353886425E-02 -4.249725601E-01
 4.622704983E-01 -6.240180507E-02 -3.999619204E-01
 4.749436975E-01 -6.114465371E-02 -3.798499736E-01
 4.868932366E-01 -5.983127654E-02 -3.556368893E-01
 4.993922710E-01 -5.836853012E-02 -3.246263748E-01
 5.130196214E-01 -5.667528883E-02 -2.940148298E-01
 5.267093778E-01 -5.490083992E-02 -2.654773467E-01
 5.396687388E-01 -5.313568562E-02 -2.374539634E-01
 5.532265902E-01 -5.122489110E-02 -2.090897884E-01
 5.662788749E-01 -4.932495207E-02 -1.802372511E-01
 5.795685649E-01 -4.735124111E-02 -1.544265458E-01
 5.926294923E-01 -4.538256302E-02 -1.304696818E-01
 6.052054167E-01 -4.344762489E-02 -1.046582854E-01
 6.186414957E-01 -4.138687626E-02 -8.219808269E-02
 6.324623823E-01 -3.921093047E-02 -5.745993200E-02
 6.462188363E-01 -3.708014637E-02 -3.440231513E-02
 6.593257785E-01 -3.500083089E-02 -1.447392160E-02
 6.731385589E-01 -3.285666928E-02 8.604853136E-03
 6.856235862E-01 -3.090379946E-02 2.407605387E-02
 6.978954077E-01 -2.896159515E-02 4.679260390E-02
 7.128099203E-01 -2.665122971E-02 6.618387213E-02
 7.256074548E-01 -2.465097234E-02 8.784229828E-02
 7.376244664E-01 -2.287133038E-02 1.013002708E-01
 7.501426935E-01 -2.092427015E-02 1.174138325E-01
 7.633131146E-01 -1.897763647E-02 1.413506945E-01
 7.766430974E-01 -1.705298014E-02 1.532700880E-01
 7.887298465E-01 -1.530993916E-02 1.683856859E-01
 8.012680411E-01 -1.350236125E-02 1.909958177E-01
 8.124868870E-01 -1.198609453E-02 2.087526896E-01
 8.235933781E-01 -1.049971674E-02 2.212091461E-01
 8.360534906E-01 -8.938181214E-03 2.358755782E-01
 8.479151726E-01 -7.444168441E-03 2.535713898E-01
 8.601374626E-01 -6.058966275E-03 2.705367004E-01
 8.711140156E-01 -4.854425322E-03 2.842616496E-01
 8.827309608E-01 -3.717803862E-03 2.977241897E-01
 8.954456449E-01 -2.597648418E-03 3.076066561E-01
 9.055324793E-01 -1.825696090E-03 3.203827967E-01
 9.157845974E-01 -1.136925886E-03 3.235302901E-01
 9.252791405E-01 -5.925755831E-04 3.259396065E-01
 9.347662926E-01 -1.546964922E-04 3.360425421E-01
 9.472844005E-01 2.756867034E-04 3.267574136E-01
 9.612012506E-01 5.819567014E-04 3.357369254E-01
 9.765061736E-01 7.063398953E-04 3.632904103E-01
 9.898377657E-01 6.451922236E-04 2.930254603E-01
 -5.000000000E-01 -1.000000000E+00 2.572584214E-02
 3.500000000E+00 -1.000000000E+00 1.539812149E-02
 3.500000000E+00 1.000000000E+00 2.688260563E-03
 -5.000000000E-01 1.000000000E+00 3.743307289E-04
 -5.000000000E-01 5.000000000E-01 3.496878532E-02
 -5.000000000E-01 2.752797990E-12 9.977878112E-02
 -5.000000000E-01 -5.000000000E-01 5.797299846E-02
 -9.421907698E-13 -1.000000000E+00 1.142651862E-02
 5.000000000E-01 -1.000000000E+00 -1.937265423E-02
 1.000000000E+00 -1.000000000E+00 5.046221733E-04
 1.500000000E+00 -1.000000000E+00 2.437811010E-02
 2.000000000E+00 -1.000000000E+00 2.470596802E-02
 2.500000000E+00 -1.000000000E+00 1.877927128E-02
 3.000000000E+00 -1.000000000E+00 1.567493070E-02
 3.500000000E+00 -5.000000000E-01 1.843007814E-02
 3.500000000E+00 -2.752797990E-12 1.846145589E-02
 3.500000000E+00 5.000000000E-01 9.404708184E-03
 3.000000000E+00 1.000000000E+00 -1.049975396E-04
 2.500000000E+00 1.000000000E+00 -5.954273291E-03
 2.000000000E+00 1.000000000E+00 -1.970787834E-02
 1.500000000E+00 1.000000000E+00 -5.315397855E-02
 1.000000000E+00 1.000000000E+00 -9.612559629E-02
 5.000000000E-01 1.000000000E+00 -8.785311743E-02
 1.733724275E-12 1.000000000E+00 -2.799967921E-02
 6.813276037E-01 -4.470595621E-02 1.512655314E-02
 7.841959897E-01 -2.664889140E-02 1.584733705E-01
 9.106067626E-01 -1.002590254E-02 3.067802804E-01
 6.970858568E-01 6.219169276E-02 -3.320000996E-01
 2.854234870E-01 7.576226536E-02 -4.264371167E-01
 9.074643215E-01 3.039258909E-02 -7.066143456E-02
 8.008069373E-01 4.858935108E-02 -2.215896231E-01
 5.769606543E-01 -6.738108060E-02 -1.557307901E-01
 5.901373145E-01 7.201101139E-02 -4.338561205E-01
 4.072952695E-01 7.810733086E-02 -4.726649967E-01
 4.173539458E-01 -7.767345555E-02 -4.424902546E-01
 1.827941944E+00 -5.952235984E-01 2.393408448E-02
 1.783082060E+00 6.135008365E-01 -1.437352613E-02
 3.031184362E+00 2.156799904E-01 1.108839765E-02
 7.461552949E-01 -5.669301422E-01 -4.673259796E-03
 2.839903452E-01 -7.888648743E-02 -4.460208434E-01
 3.473635353E-01 -7.826245917E-02 -4.774887852E-01
 4.919501421E-01 -7.333335718E-02 -3.268595677E-01
 3.648117132E-01 -7.173237872E-01 -3.587157186E-02
 1.240336064E-01 -6.444487617E-02 -2.820058500E-01
 1.918550242E-01 -6.787405510E-02 -3.708367944E-01
 7.323415494E-01 5.892698944E-01 -1.318886255E-01
 4.917446853E-01 7.629025448E-02 -4.794116323E-01
 3.332003886E-01 6.150230649E-01 -1.200083932E-01
 1.153709117E-01 5.257608386E-02 -3.156944437E-01
 1.868431044E-01 6.503849448E-02 -3.736456470E-01
 2.734825805E+00 -5.327136921E-01 1.556258935E-02
 1.172978644E+00 6.894980716E-01 -5.826551843E-02
 9.970070971E-01 3.217001685E-01 -5.207093684E-02
 9.687536944E-01 2.033805958E-02 9.776861610E-02
 1.230993296E+00 -7.241869316E-01 3.213013888E-02
 1.486569058E+00 -2.183677878E-01 3.678943322E-02
 2.247515390E+00 -5.879602498E-01 1.798839303E-02
 1.980954989E+00 -2.120184705E-01 1.659295316E-02
 2.412632779E+00 -1.865256819E-01 1.139905368E-02
 2.184544632E+00 1.580484505E-01 6.853892389E-03
 1.824069228E+00 1.073665873E-01 1.086616486E-02
 -2.744863711E-01 2.323623198E-01 8.976250005E-02
 -1.011628678E-01 6.206998597E-01 -1.958522951E-02
 1.654452204E-02 3.396336433E-01 -3.857492315E-02
 4.818091766E-02 3.652656487E-02 -2.187697759E-01
 -2.712813771E-01 -2.367646577E-01 1.160270910E-01
 -1.459198996E-01 -6.019376512E-01 1.883947735E-02
 1.367698793E-01 -3.730657868E-01 -4.792678623E-02
 2.216118657E+00 5.747403868E-01 -3.601111399E-03
 2.742188289E+00 5.994402795E-01 3.921059534E-03
 -2.355554677E-01 -4.434213182E-03 1.553294620E-01
 -1.282307616E-01 1.266369785E-01 1.473115341E-01
 -1.099652477E-01 -1.271323247E-01 1.776385079E-01
 6.869350439E-02 -5.130884265E-02 -1.739630834E-01
 3.673458247E-02 -3.705286181E-02 -3.266913041E-02
 -7.405933981E-02 -3.212741309E-01 4.764063731E-02
 8.155704618E-03 -1.816922073E-01 5.669870183E-02
 1.586597311E-01 -2.194496412E-01 -1.536945170E-01
 2.401465256E-01 -7.834943804E-02 -4.059522097E-01
 2.621871830E-01 -7.566313350E-02 -4.329736941E-01
 -2.245449557E-02 -9.874366525E-02 2.047918117E-01
 -1.100739545E-01 -2.331860963E-02 2.955501713E-01
 -7.113427413E-02 5.544679248E-02 2.838552413E-01
 1.994485255E-02 2.459362712E-02 -1.610141510E-01
 3.274988756E-02 -1.161161492E-01 4.617964301E-02
 3.109348083E+00 -2.612941886E-01 1.618226898E-02
 -5.123627559E-02 -3.881285387E-02 3.551847967E-01
 -5.154540326E-02 1.158426293E-02 4.825546312E-01
 -2.913398292E-02 5.010045165E-02 3.433504701E-01
 -3.700291323E-02 1.021850984E-01 1.409206614E-01
 3.384330751E-02 1.136681094E-01 -2.933997698E-02
 8.607611096E-02 4.727112432E-02 -2.825442744E-01
 -7.104513243E-03 1.958817093E-01 2.002603522E-02
 8.161398347E-02 1.624299067E-01 -1.257346253E-01
 1.709613560E-01 2.871434127E-01 -1.685757880E-01
 3.472441267E-01 7.982912286E-02 -4.513802299E-01
 2.349447290E-01 7.058731394E-02 -4.020046832E-01
 2.118622428E-01 1.793996348E-01 -2.651264208E-01
 2.813389010E-01 2.627577074E-01 -2.571957623E-01
 2.932341150E-01 1.642170117E-01 -3.345521000E-01
 3.636298366E-01 2.228727071E-01 -3.147621672E-01
 3.656602726E-01 1.460662971E-01 -3.856818822E-01
 4.324096204E-01 1.850893668E-01 -3.602520740E-01
 5.382947583E-01 7.180547062E-02 -4.706804616E-01
 5.649073377E-01 7.236629359E-02 -4.528188032E-01
 4.412459353E-01 2.761246178E-01 -2.850794769E-01
 5.254897806E-01 2.117807803E-01 -3.317867307E-01
 4.504659863E-01 7.918013550E-02 -4.786662194E-01
 5.371607957E-01 3.478779702E-01 -2.386811481E-01
 6.275886353E-01 2.649550185E-01 -2.563294078E-01
 6.493868009E-01 6.610685023E-02 -3.826809417E-01
 6.110792758E-01 1.649522663E-01 -3.321371401E-01
 7.062505694E-01 1.884296456E-01 -2.515021026E-01
 7.503370015E-01 5.606575527E-02 -2.730292053E-01
 7.237510723E-01 5.539484084E-02 -3.042567931E-01
 7.326557069E-01 2.739081019E-01 -2.016675077E-01
 8.136811629E-01 2.034316238E-01 -1.659356549E-01
 8.589999323E-01 3.946668004E-02 -1.535152599E-01
 8.332525921E-01 4.668547442E-02 -1.828577405E-01
 7.678292492E-01 1.365087130E-01 -2.241080866E-01
 8.554349275E-01 1.345650329E-01 -1.325860334E-01
 6.675610609E-01 1.312996360E-01 -3.176587069E-01
 5.424979574E-01 1.439745710E-01 -3.870877010E-01
 1.480083946E-01 1.240417960E-01 -2.559958760E-01
 1.483286238E-01 5.933515820E-02 -3.414308807E-01
 6.233395905E-01 1.064770142E-01 -3.719059039E-01
 6.253771482E-01 6.764206960E-02 -4.056227327E-01
 2.435213656E-01 1.263668793E-01 -3.454316667E-01
 8.142567820E-01 1.051217482E-01 -1.858089910E-01
 9.048610845E-01 2.027086461E-01 -8.182772643E-02
 9.560856883E-01 1.358105765E-01 -3.015184818E-02
 8.916059482E-01 9.265645667E-02 -9.059375179E-02
 8.824499570E-01 3.436791368E-02 -1.171056284E-01
 9.889406736E-01 1.967898112E-01 -2.510450741E-02
 1.153810608E+00 2.806790287E-01 -8.196795939E-03
 1.021855308E+00 1.263733143E-01 3.433593134E-02
 9.835425334E-01 7.777791139E-02 5.331929356E-02
 1.039666010E+00 5.088501196E-02 1.013350504E-01
 3.191059338E-01 1.217447201E-01 -3.912663519E-01
 3.118131967E-01 7.618602919E-02 -4.393369510E-01
 4.166196718E-01 1.290799117E-01 -4.151516866E-01
 4.769146975E-01 1.336424702E-01 -4.136008864E-01
 8.671968819E-02 1.021003053E-01 -1.857603015E-01
 6.884960130E-01 4.008687590E-01 -1.800546713E-01
 5.140374540E-01 1.113165905E-01 -4.321072603E-01
 5.162989217E-01 7.507022362E-02 -4.743645291E-01
 3.829602684E-01 1.087300568E-01 -4.308219586E-01
 3.708542327E-01 7.315660157E-02 -4.675337963E-01
 1.401776801E-01 4.534518135E-01 -8.651073993E-02
 5.511628203E-01 1.076931379E-01 -4.202651634E-01
 -8.493092539E-03 -6.038666358E-02 3.285760483E-01
 8.438989446E-03 -1.774467890E-02 3.703899142E-01
 2.035794251E-02 -2.804385625E-02 1.185572556E-01
 3.514180038E-01 1.061145852E-01 -4.220012797E-01
 4.219428923E-01 4.072885619E-01 -2.108470324E-01
 5.577818511E-01 5.247929895E-01 -1.824981572E-01
 2.802850117E-02 -7.418288279E-02 8.500412410E-02
 5.325067906E-02 -4.493461093E-02 -1.236463588E-01
 1.210308125E-01 8.666118289E-02 -2.658241865E-01
 8.514641024E-01 3.169907158E-01 -1.347930720E-01
 1.585948520E-02 6.268787690E-02 3.987231913E-02
 5.232254432E-02 7.950073118E-02 -1.359742654E-01
 6.815496675E-02 4.325913209E-02 -2.566299527E-01
 6.916964160E-02 -9.086835796E-02 -1.039468006E-01
 1.023313802E-01 -5.805112004E-02 -2.502147548E-01
 8.243661783E-02 -1.395016728E-01 -6.309843471E-02
 1.142045768E-01 -1.100657928E-01 -1.923408193E-01
 1.588872881E-01 -6.691980048E-02 -3.278718443E-01
 9.997013338E-01 3.564580225E-02 1.586016256E-01
 9.911167444E-01 1.648057201E-02 1.869288899E-01
 9.798870752E-01 1.663873104E-02 1.415611159E-01
 6.557852074E-01 9.918942055E-02 -3.503903517E-01
 6.725314541E-01 6.384502483E-02 -3.569654058E-01
 6.904327839E-01 9.719209287E-02 -3.151401644E-01
 7.136480104E-01 1.349663513E-01 -2.699426258E-01
 7.337802012E-01 9.902082891E-02 -2.705323703E-01
 3.920027780E-01 8.775735058E-02 -4.572604747E-01
 3.596254308E-01 7.394421412E-02 -4.624226661E-01
 3.263931722E-01 8.961924561E-02 -4.305935418E-01
 2.990651463E-01 9.345901810E-02 -4.132908080E-01
 3.341843468E-01 7.250767089E-02 -4.527611944E-01
 6.835250049E-01 6.056932973E-02 -3.473678359E-01
 2.988664715E-01 7.295052179E-02 -4.363001608E-01
 2.695220226E-01 9.269345796E-02 -3.947497017E-01
 2.595058533E-01 7.283157906E-02 -4.139075503E-01
 2.459800924E-01 8.930153134E-02 -3.841041813E-01
 2.210174613E-01 8.749965309E-02 -3.684088762E-01
 2.105724216E-01 6.788964384E-02 -3.872462636E-01
 1.993419248E-01 7.925265397E-02 -3.623674803E-01
 1.733093812E-01 8.074828019E-02 -3.341833683E-01
 1.995101284E-01 1.128848162E-01 -3.319888489E-01
 3.228681469E-01 7.233274689E-02 -4.485227371E-01
 6.366620190E-01 6.486189790E-02 -3.968182542E-01
 6.369734184E-01 8.068920629E-02 -3.832706754E-01
 6.171187306E-01 7.972864768E-02 -4.032448147E-01
 5.827019175E-01 1.091637950E-01 -3.974035727E-01
 6.640271201E-01 8.080239593E-02 -3.565744765E-01
 4.765771324E-01 7.779320932E-02 -4.793695042E-01
 4.877944136E-01 9.666586470E-02 -4.538940370E-01
 4.660081412E-01 9.382327505E-02 -4.607621028E-01
 4.405115131E-01 9.842018769E-02 -4.515029670E-01
 6.615272823E-01 6.330021831E-02 -3.713095828E-01
 4.639173490E-01 7.621485034E-02 -4.825379250E-01
 5.516484436E-01 7.221985896E-02 -4.614081088E-01
 4.239975438E-01 8.057283615E-02 -4.737164051E-01
 4.119196263E-01 9.808402148E-02 -4.493481563E-01
 1.473826632E-01 8.218961497E-02 -3.038836955E-01
 1.333179994E-01 6.724781234E-02 -3.116785746E-01
 1.622102375E-01 6.324119968E-02 -3.516372355E-01
 -1.205130505E-01 2.695290891E-01 4.282188845E-02
 1.994312453E-01 6.351172680E-02 -3.854126624E-01
 4.373091559E-01 7.762815636E-02 -4.796454554E-01
 2.227968682E-01 6.722253381E-02 -3.971725377E-01
 3.839866520E-01 7.455728860E-02 -4.699445824E-01
 3.953722893E-01 7.394135979E-02 -4.749721201E-01
 2.557128742E+00 2.074377653E-01 6.373127024E-03
 2.475505246E-01 6.945899220E-02 -4.123001135E-01
 -2.051123466E-02 -3.106820562E-02 5.067988346E-01
 4.346712588E-04 -1.393223517E-02 5.835145952E-01
 -2.372565359E-02 -6.159233368E-03 7.294269396E-01
 -1.122280109E-02 1.549943336E-02 5.841545022E-01
 2.720427625E-01 7.191717032E-02 -4.226043499E-01
 1.025281790E-03 -3.916413015E-02 3.734846523E-01
 2.050898599E-02 -5.075436017E-02 1.297769735E-01
 1.750557924E-01 6.015403648E-02 -3.669095778E-01
 5.035854287E-01 8.790880897E-02 -4.608938060E-01
 3.678312740E-01 8.766548055E-02 -4.503723946E-01
 9.877479779E-02 7.605744581E-02 -2.424824508E-01
 1.337509143E-01 -1.552032096E-01 -1.739047084E-01
 1.555153227E-01 -1.103469742E-01 -2.554062866E-01
 1.860185275E-01 -1.573331174E-01 -2.368844060E-01
 2.370526584E-01 -2.096930618E-01 -2.260460167E-01
 2.813762620E-01 -1.541942082E-01 -3.166730345E-01
 3.215905453E-01 -2.114462122E-01 -2.629671205E-01
 2.925885264E-01 -3.004441509E-01 -1.822694772E-01
 3.973750668E-01 -2.736585968E-01 -1.968946788E-01
 4.266039496E-01 -1.832399945E-01 -2.629045463E-01
 4.986317208E-01 -2.430186981E-01 -1.635088202E-01
 4.568194589E-01 -7.762498480E-02 -3.846511790E-01
 4.936653142E-01 -3.762932826E-01 -1.070505542E-01
 5.241634593E-01 -1.626770426E-01 -1.939449672E-01
 6.274048086E-01 -5.206771711E-02 -6.761988644E-02
 5.898421048E-01 -2.152582020E-01 -9.694181013E-02
 6.535202530E-01 -5.356940810E-02 -2.461652420E-02
 5.376486381E-01 -6.960887846E-02 -2.317486977E-01
 5.900865765E-01 -1.442140076E-01 -1.176759199E-01
 6.659362954E-01 -1.670484439E-01 -2.443756775E-02
 7.357375030E-01 -4.031811145E-02 9.055537892E-02
 7.596248976E-01 -3.207504769E-02 1.279383404E-01
 6.764985425E-01 -2.687335775E-01 -1.711149329E-02
 7.590878622E-01 -1.967503616E-01 5.227077612E-02
 8.562261386E-01 -1.773134896E-02 2.548857380E-01
 8.313633138E-01 -1.918714833E-02 2.226952015E-01
 7.302335574E-01 -1.255198031E-01 4.984890663E-02
 8.381073445E-01 -1.500254064E-01 1.286013900E-01
 9.697782011E-01 -1.165840964E-02 2.858661641E-01
 9.403078579E-01 -1.073936422E-02 3.090892691E-01
 8.478615747E-01 -2.524539099E-01 8.212056467E-02
 9.255259251E-01 -1.655102019E-01 1.464044278E-01
 9.695261598E-01 -2.893753008E-01 8.838706748E-02
 1.041252956E+00 -1.841844926E-01 1.291729472E-01
 8.840748155E-01 -9.132227928E-02 2.006136986E-01
 9.627026112E-01 -9.850722915E-02 2.059240288E-01
 1.075710253E+00 -8.530431687E-02 1.470148904E-01
 1.170804160E+00 -1.754022786E-01 8.962379307E-02
 1.173966125E+00 -4.313893517E-02 8.455903976E-02
 1.120160537E+00 -3.061613849E-01 7.821616063E-02
 1.117157255E+00 8.315820508E-02 6.586128869E-02
 1.252422640E+00 6.267933610E-02 4.895788757E-02
 1.321413054E+00 2.592086681E-01 8.427747230E-03
 1.026251853E+00 -4.325686722E-01 5.371879028E-02
 8.196669558E-01 -8.441805953E-02 1.595221371E-01
 9.267625188E-01 -6.111425276E-02 2.503320322E-01
 6.776241304E-01 -1.084664994E-01 -9.360178589E-04
 3.325216658E-01 -1.469871299E-01 -3.493044384E-01
 3.767844169E-01 -7.831022660E-02 -4.754936697E-01
 6.280744508E-01 -1.005481389E-01 -6.560732041E-02
 6.020149822E-01 -5.659991834E-02 -1.101199041E-01
 7.179413584E-01 -8.069816147E-02 5.016185053E-02
 7.075883886E-01 -4.086910248E-02 5.370400283E-02
 4.638944782E-01 -1.369054958E-01 -2.873210120E-01
 8.486076537E-01 -5.635591633E-02 2.074877827E-01
 1.306610215E+00 -1.139129063E-01 5.477475220E-02
 1.438956801E+00 1.484712267E-02 2.856597978E-02
 8.489375647E-01 -4.173385935E-01 3.891615890E-02
 1.009658048E+00 -6.391229887E-02 2.068033531E-01
 5.455203039E-01 -1.161242645E-01 -1.888729689E-01
 7.660992056E-01 -8.244534896E-02 1.068818839E-01
 1.953623452E-01 -1.130864777E-01 -3.032190136E-01
 2.142216800E-01 -7.570217701E-02 -3.833329558E-01
 8.164158318E-01 -5.292422631E-02 1.787684455E-01
 8.090403272E-01 -2.124522037E-02 1.971020824E-01
 3.032807789E-01 -1.192168056E-01 -3.842207834E-01
 3.239973093E-01 -8.027573440E-02 -4.670878337E-01
 9.544896617E-01 -1.078736816E-02 3.281946354E-01
 9.476411090E-01 -3.320312941E-02 2.912609226E-01
 9.275685495E-01 -2.366312898E-02 2.874727223E-01
 5.826076209E-01 -9.799312385E-02 -1.394044749E-01
 2.715443259E-01 -1.147463275E-01 -3.729262165E-01
 7.393509006E-01 -6.123003194E-02 8.859215979E-02
 1.290162402E+00 -2.870629981E-01 5.764272373E-02
 6.835677564E-01 -7.701612902E-02 1.146932513E-02
 6.584306035E-01 -7.802176921E-02 -2.335367132E-02
 8.429207630E-01 -2.030688718E-02 2.366138422E-01
 8.545733115E-01 -3.352791841E-02 2.338636982E-01
 8.773335873E-01 -1.518528886E-02 2.775910384E-01
 8.735424913E-01 -4.687657715E-02 2.429609151E-01
 8.883612195E-01 -1.211282078E-02 2.895431977E-01
 8.690002811E-01 -2.592768742E-02 2.557547706E-01
 7.964383505E-01 -2.439053955E-02 1.787690760E-01
 7.943098219E-01 -4.057980513E-02 1.644092947E-01
 7.750251721E-01 -4.006355149E-02 1.391023284E-01
 5.548596057E-01 -8.105421910E-02 -1.888729681E-01
 3.523241268E-01 -4.344124124E-01 -1.068261725E-01
 6.398620503E-01 -4.990177841E-02 -4.562260028E-02
 5.486980225E-01 -6.334135579E-02 -2.125769903E-01
 7.473905067E-01 -3.294039790E-02 1.101693606E-01
 7.196827004E-01 -5.282298570E-02 6.652194108E-02
 5.211300245E-01 -7.150744344E-02 -2.658180885E-01
 5.319763271E-01 -9.163673418E-02 -2.291635967E-01
 5.071692328E-01 -8.525248680E-02 -2.801137236E-01
 4.868386563E-01 -9.151968681E-02 -3.126540031E-01
 5.031846257E-01 -1.142700520E-01 -2.658576157E-01
 4.637558650E-01 -1.018091866E-01 -3.422624164E-01
 4.226716123E-01 -1.230897372E-01 -3.491167542E-01
 4.391596383E-01 -9.092908318E-02 -3.891866976E-01
 4.743664170E-01 -7.965116733E-02 -3.518330101E-01
 4.427808120E-01 -7.462467858E-02 -4.142992372E-01
 8.193273734E-01 -2.086140906E-02 2.093273259E-01
 8.667622970E-01 -1.395154337E-02 2.702374046E-01
 5.896067766E-01 -5.783716312E-02 -1.325899889E-01
 7.202851934E-01 -3.706248034E-02 7.389476397E-02
 3.366326871E-01 -1.131275889E-01 -4.063662575E-01
 3.738225512E-01 -1.228705366E-01 -3.869679032E-01
 1.615771202E+00 2.452091396E-01 4.576731247E-03
 1.460029758E+00 5.169957790E-01 -1.799964248E-02
 6.716961986E-01 -6.012594545E-02 -1.019859587E-03
 6.965710707E-01 -5.683460793E-02 3.371740867E-02
 3.760500386E-01 -1.724599040E-01 -3.026678897E-01
 3.987937712E-01 -1.027316583E-01 -4.098526786E-01
 9.650651809E-01 -6.481248810E-01 2.409557822E-02
 1.775168483E-01 -9.330516406E-02 -3.114553136E-01
 1.658489827E+00 -8.361483792E-02 1.991792722E-02
 5.991568188E-01 -7.465570089E-02 -1.158925350E-01
 6.179594762E-01 -6.751037580E-02 -8.420765219E-02
 -1.511450084E-03 3.767059560E-02 1.842268115E-01
 5.914784021E-03 2.098127626E-02 1.138125387E-01
 6.731044021E-03 1.422440253E-02 7.459532609E-03
 1.723620297E-02 3.684768098E-02 -3.393609836E-02
 3.244009561E-02 3.105861225E-02 -1.718653019E-01
 3.268142931E-02 4.415201606E-02 -9.808588646E-02
 1.319058923E-02 1.860838759E-02 -1.038289519E-01
 9.800137815E-01 3.735526764E-02 7.882931940E-02
 9.393143175E-01 2.499809986E-02 1.062135882E-02
 9.504431268E-01 5.430577276E-02 1.555126615E-02
 9.149605911E-01 6.281675285E-02 -5.444006813E-02
 9.542158763E-01 2.315486838E-02 4.345563946E-02
 1.360567296E-01 -8.706506193E-02 -2.537601471E-01
 5.897377648E-01 -2.997696053E-01 -8.034140497E-02
 6.709576752E-01 -3.958007468E-01 -2.707516312E-02
 6.832848338E-01 7.525430866E-02 -3.376124651E-01
 8.867579550E-01 6.594314536E-02 -1.011587329E-01
 8.580527240E-01 8.050197783E-02 -1.400445880E-01
 9.259932582E-01 4.029446666E-02 -2.937510069E-02
 8.274602349E-01 7.175121845E-02 -1.784468666E-01
 7.988993912E-01 7.004615201E-02 -2.135619686E-01
 7.710634180E-01 4.901794907E-02 -2.524793237E-01
 7.611112802E-01 5.098794602E-02 -2.634511528E-01
 7.691311094E-01 6.544101639E-02 -2.496420973E-01
 7.719025246E-01 9.228207041E-02 -2.334751347E-01
 7.843328504E-01 5.149342551E-02 -2.376385747E-01
 7.480442421E-01 7.467260836E-02 -2.673454578E-01
 9.006636878E-01 -1.200921435E-02 2.964864079E-01
 9.081202991E-01 -2.238914796E-02 2.926122577E-01
 5.788063613E-01 8.377806681E-02 -4.321959050E-01
 6.941934891E-01 -4.160397520E-02 3.474835834E-02
 8.797635213E-02 -2.662734200E-01 -3.639442661E-02
 5.779474574E-01 7.024011353E-02 -4.472660612E-01
 2.311603259E-01 -1.326410293E-01 -3.119190528E-01
 2.222036257E-01 -9.355696377E-02 -3.605892265E-01
 1.971579920E-01 -8.390817469E-02 -3.511793723E-01
 1.767747922E-01 -7.054109071E-02 -3.459727903E-01
 4.184201079E-01 -9.533272053E-02 -4.095952550E-01
 4.019418173E-01 -8.481631047E-02 -4.440882051E-01
 3.577548576E-01 -1.007100929E-01 -4.352268233E-01
 3.626658363E-01 -8.474665647E-02 -4.667447595E-01
 3.806629752E-01 -9.304434022E-02 -4.368479712E-01
 7.717604543E-01 -2.696362144E-02 1.435241641E-01
 8.977676550E-01 4.498918498E-02 -8.545411708E-02
 8.725075572E-01 4.968740031E-02 -1.268084559E-01
 5.065322584E-01 -6.902742127E-02 -2.985952644E-01
 2.848897167E-01 1.196962174E-01 -3.758250743E-01
 8.501551832E-01 5.577756253E-02 -1.586676087E-01
 8.164273723E-01 5.371599083E-02 -1.993948909E-01
 2.821994066E-01 4.011825040E-01 -1.933270827E-01
 7.875566600E-01 -5.815737021E-02 1.458231012E-01
 6.678016785E-01 -4.525176199E-02 -3.815851897E-03
 7.074613605E-01 7.724753595E-02 -3.129713361E-01
 5.406558375E-01 -5.448449892E-01 -5.261473046E-02
 9.423953284E-01 4.972381252E-01 -9.241338208E-02
 9.188929035E-01 7.208637046E-01 -1.015890123E-01