TITLE     = "Visualization of the solution"
VARIABLES = "x"
"y"
"Pressure_Coefficient"
ZONE T="Zone"
 STRANDID=0, SOLUTIONTIME=0
 Nodes=690, Elements=1165, ZONETYPE=FEQuadrilateral
 DATAPACKING=POINT
 DT=(DOUBLE DOUBLE DOUBLE )
 9.999222755E-01 5.128252087E-04 2.388555597E-01
 9.873035550E-01 3.081970848E-03 2.628603313E-01
 9.748499393E-01 5.707211792E-03 1.282618190E-01
 9.582954049E-01 9.118335322E-03 8.789559441E-02
 9.434360266E-01 1.215760503E-02 3.059478474E-02
 9.295487404E-01 1.505522244E-02 -4.482374906E-03
 9.177722931E-01 1.739356294E-02 -3.267183881E-02
 9.064725041E-01 1.969800331E-02 -6.205676370E-02
 8.949302435E-01 2.199518494E-02 -9.917738443E-02
 8.834897280E-01 2.428667434E-02 -1.278529160E-01
 8.710215092E-01 2.659290843E-02 -1.405304950E-01
 8.585391641E-01 2.890430018E-02 -1.613028707E-01
 8.463091254E-01 3.112430312E-02 -1.836250800E-01
 8.355594277E-01 3.306567296E-02 -2.039807246E-01
 8.239220977E-01 3.508120775E-02 -2.219956205E-01
 8.113496304E-01 3.723141178E-02 -2.401991901E-01
 7.985819578E-01 3.933683783E-02 -2.502326305E-01
 7.860972285E-01 4.135796800E-02 -2.700579819E-01
 7.741652131E-01 4.329714552E-02 -2.922959467E-01
 7.627387643E-01 4.507478699E-02 -3.063247841E-01
 7.497274876E-01 4.704222828E-02 -3.226366149E-01
 7.361512780E-01 4.904622957E-02 -3.414026532E-01
 7.255236506E-01 5.057539418E-02 -3.547924704E-01
 7.144206762E-01 5.211699754E-02 -3.688717379E-01
 7.027857304E-01 5.371137708E-02 -3.845060988E-01
 6.895649433E-01 5.545825511E-02 -4.015998850E-01
 6.768645644E-01 5.708118156E-02 -4.202748325E-01
 6.665245295E-01 5.835673958E-02 -4.346336549E-01
 6.547973752E-01 5.973846838E-02 -4.534995494E-01
 6.430852413E-01 6.107453257E-02 -4.668125398E-01
 6.311554909E-01 6.232769042E-02 -4.760174932E-01
 6.194772124E-01 6.351660192E-02 -4.869563060E-01
 6.088767648E-01 6.453091651E-02 -5.025327416E-01
 5.969099998E-01 6.564603001E-02 -5.166138499E-01
 5.853147507E-01 6.660509855E-02 -5.223018053E-01
 5.719807148E-01 6.764890254E-02 -5.340897395E-01
 5.594350696E-01 6.854537129E-02 -5.455469961E-01
 5.471474528E-01 6.934516132E-02 -5.504974746E-01
 5.361340046E-01 6.996189803E-02 -5.583304052E-01
 5.245596170E-01 7.058685273E-02 -5.602213403E-01
 5.121790171E-01 7.111294568E-02 -5.623579215E-01
 5.012306571E-01 7.156430930E-02 -5.654426262E-01
 4.879579842E-01 7.198207080E-02 -5.639508536E-01
 4.746010005E-01 7.233569026E-02 -5.676055445E-01
 4.607754350E-01 7.259632647E-02 -5.654064147E-01
 4.473979771E-01 7.274474204E-02 -5.589463591E-01
 4.347400367E-01 7.281022519E-02 -5.598829635E-01
 4.222708046E-01 7.283763587E-02 -5.626307139E-01
 4.097279012E-01 7.275650650E-02 -5.560542609E-01
 3.972462118E-01 7.260033488E-02 -5.521283712E-01
 3.850744367E-01 7.238587737E-02 -5.516365039E-01
 3.733655214E-01 7.211839408E-02 -5.471171215E-01
 3.600632250E-01 7.172705978E-02 -5.411259145E-01
 3.471767902E-01 7.127603889E-02 -5.379019310E-01
 3.337836564E-01 7.072531432E-02 -5.357573139E-01
 3.227478266E-01 7.020818442E-02 -5.314913893E-01
 3.099849522E-01 6.953835487E-02 -5.258320780E-01
 2.968452871E-01 6.876283139E-02 -5.180127811E-01
 2.828432918E-01 6.783987582E-02 -5.156226202E-01
 2.708223164E-01 6.698124111E-02 -5.103681308E-01
 2.587512136E-01 6.601995230E-02 -5.021615739E-01
 2.463469952E-01 6.496496499E-02 -4.980417857E-01
 2.339775562E-01 6.383343041E-02 -4.916374159E-01
 2.217696756E-01 6.262524426E-02 -4.848742351E-01
 2.096493989E-01 6.132695824E-02 -4.752959264E-01
 1.977293640E-01 5.995812267E-02 -4.665915424E-01
 1.853603423E-01 5.845757201E-02 -4.580408126E-01
 1.735278070E-01 5.690119416E-02 -4.471884193E-01
 1.620210409E-01 5.530118942E-02 -4.400397345E-01
 1.502835304E-01 5.356395617E-02 -4.313663493E-01
 1.396142989E-01 5.186647549E-02 -4.175070489E-01
 1.280498952E-01 4.991452023E-02 -4.050674967E-01
 1.168643385E-01 4.791400582E-02 -3.941911895E-01
 1.063367948E-01 4.588239640E-02 -3.812559831E-01
 9.663940966E-02 4.390205815E-02 -3.625926799E-01
 8.591556549E-02 4.156752303E-02 -3.407149132E-01
 7.454635203E-02 3.888065368E-02 -3.196795527E-01
 6.476711482E-02 3.637830913E-02 -2.908337239E-01
 5.497879535E-02 3.366044909E-02 -2.620102026E-01
 4.630093649E-02 3.104755655E-02 -2.325079592E-01
 3.874701634E-02 2.855321765E-02 -1.908295367E-01
 3.207765892E-02 2.616344579E-02 -1.494406158E-01
 2.632514760E-02 2.390605770E-02 -1.030134161E-01
 2.207389101E-02 2.209466882E-02 -6.708099787E-02
 1.798883826E-02 2.019758150E-02 -3.449433340E-02
 1.474073809E-02 1.856132038E-02 -7.750122939E-04
 1.175825577E-02 1.691405848E-02 1.627534900E-02
 9.586053900E-03 1.560503989E-02 5.801288121E-02
 7.660849951E-03 1.434676070E-02 6.529221276E-02
 5.932551809E-03 1.311065070E-02 1.891946121E-01
 3.713315586E-03 1.130628772E-02 3.625775906E-01
 1.817657962E-03 9.462545626E-03 2.238300466E-01
 2.569775388E-04 7.550525945E-03 8.197677383E-01
 -1.237107324E-03 4.842506256E-03 6.351173503E-01
 -1.798389712E-03 2.850771183E-03 1.180886429E+00
 -1.922444324E-03 1.258849632E-03 1.042080164E+00
 -1.737873419E-03 -4.305787734E-04 9.444206837E-01
 -1.250834088E-03 -2.102833008E-03 9.240508296E-01
 -2.401946549E-04 -4.150225781E-03 9.005308530E-01
 1.215896104E-03 -6.208671723E-03 7.233696813E-01
 3.213124815E-03 -8.356673643E-03 6.821788211E-01
 5.012087524E-03 -9.951402433E-03 2.783219247E-01
 7.052349392E-03 -1.152761839E-02 3.524411586E-01
 8.732213639E-03 -1.269016881E-02 2.493498483E-01
 1.083627716E-02 -1.401784178E-02 2.212657935E-01
 1.322166249E-02 -1.539453957E-02 1.676507896E-01
 1.647886448E-02 -1.709302329E-02 9.483517819E-02
 1.938700862E-02 -1.847806945E-02 6.696684052E-03
 2.321149968E-02 -2.014192380E-02 -1.859554262E-02
 2.855985798E-02 -2.224541642E-02 -6.499700541E-02
 3.434661031E-02 -2.429483645E-02 -9.238302435E-02
 4.124654084E-02 -2.649007179E-02 -1.304815298E-01
 4.876722768E-02 -2.867091261E-02 -1.523206376E-01
 5.769639835E-02 -3.101268224E-02 -1.775660400E-01
 6.634104252E-02 -3.307780623E-02 -1.960525043E-01
 7.638505101E-02 -3.529323637E-02 -2.102890131E-01
 8.636066318E-02 -3.731977195E-02 -2.284971847E-01
 9.669160843E-02 -3.926634043E-02 -2.422101482E-01
 1.078348607E-01 -4.122836515E-02 -2.545205753E-01
 1.191609651E-01 -4.308751598E-02 -2.653467414E-01
 1.308834851E-01 -4.488163814E-02 -2.764834894E-01
 1.414202005E-01 -4.640825093E-02 -2.884131920E-01
 1.526236832E-01 -4.792353883E-02 -2.990744544E-01
 1.648180783E-01 -4.947738722E-02 -3.099496368E-01
 1.764630675E-01 -5.086761713E-02 -3.216885322E-01
 1.882816851E-01 -5.218856409E-02 -3.312854127E-01
 1.989594996E-01 -5.330806598E-02 -3.430011769E-01
 2.101584375E-01 -5.439947918E-02 -3.516223103E-01
 2.224163562E-01 -5.551267043E-02 -3.608751763E-01
 2.348910421E-01 -5.655230954E-02 -3.728962853E-01
 2.469500750E-01 -5.746318400E-02 -3.845293846E-01
 2.591058910E-01 -5.828692392E-02 -3.937267900E-01
 2.702561915E-01 -5.897454917E-02 -4.051908142E-01
 2.827569544E-01 -5.963271484E-02 -4.149865521E-01
 2.949003279E-01 -6.017829478E-02 -4.223749066E-01
 3.078249693E-01 -6.063341349E-02 -4.294424706E-01
 3.197492361E-01 -6.095520779E-02 -4.350656749E-01
 3.326650858E-01 -6.119991094E-02 -4.421469098E-01
 3.436323404E-01 -6.129897013E-02 -4.515954463E-01
 3.551931977E-01 -6.128544360E-02 -4.483147605E-01
 3.661752343E-01 -6.118615717E-02 -4.479796124E-01
 3.770520091E-01 -6.096962094E-02 -4.450765124E-01
 3.889352977E-01 -6.063526869E-02 -4.366929262E-01
 4.024786949E-01 -6.010531262E-02 -4.279356070E-01
 4.150098562E-01 -5.947763473E-02 -4.184286729E-01
 4.277373254E-01 -5.869946629E-02 -4.027879762E-01
 4.404683113E-01 -5.781041086E-02 -3.874671552E-01
 4.527328908E-01 -5.681776255E-02 -3.689643183E-01
 4.647117257E-01 -5.571869761E-02 -3.443429931E-01
 4.769855738E-01 -5.451871827E-02 -3.193490578E-01
 4.887596369E-01 -5.325007811E-02 -2.969670156E-01
 5.015454888E-01 -5.179996789E-02 -2.662908909E-01
 5.155014396E-01 -5.014054477E-02 -2.413973290E-01
 5.287907124E-01 -4.844135791E-02 -2.123122708E-01
 5.418317318E-01 -4.672590271E-02 -1.818069167E-01
 5.544922948E-01 -4.500884190E-02 -1.558670664E-01
 5.681470037E-01 -4.314508289E-02 -1.330128330E-01
 5.810263753E-01 -4.131408036E-02 -1.083632973E-01
 5.935076475E-01 -3.952013329E-02 -8.129876544E-02
 6.064249873E-01 -3.765817359E-02 -6.068830700E-02
 6.206933260E-01 -3.556070477E-02 -3.535867599E-02
 6.348601580E-01 -3.347234428E-02 -1.069014325E-02
 6.496570110E-01 -3.132653236E-02 1.043854324E-02
 6.625099778E-01 -2.944785543E-02 2.761434839E-02
 6.756578684E-01 -2.750899643E-02 4.973536513E-02
 6.879318357E-01 -2.572773024E-02 7.018031016E-02
 7.002221346E-01 -2.396426350E-02 8.558503926E-02
 7.149530053E-01 -2.188153937E-02 1.025891173E-01
 7.280711532E-01 -2.004590258E-02 1.191463105E-01
 7.397414446E-01 -1.839801669E-02 1.382634162E-01
 7.533947825E-01 -1.654377766E-02 1.566427457E-01
 7.659376264E-01 -1.488558296E-02 1.692245646E-01
 7.792092562E-01 -1.312995050E-02 1.884150709E-01
 7.913854718E-01 -1.161155477E-02 2.035456219E-01
 8.043496013E-01 -1.000319049E-02 2.170184277E-01
 8.154121041E-01 -8.692631498E-03 2.326079962E-01
 8.265292048E-01 -7.385205012E-03 2.498062906E-01
 8.396549821E-01 -5.993225612E-03 2.616503077E-01
 8.516991138E-01 -4.729307722E-03 2.768848699E-01
 8.639818430E-01 -3.574755276E-03 2.933108106E-01
 8.749104142E-01 -2.614114899E-03 3.039298109E-01
 8.863044977E-01 -1.724143745E-03 3.154406561E-01
 8.988363147E-01 -8.690485847E-04 3.233110011E-01
 9.088619351E-01 -2.937894315E-04 3.344912312E-01
 9.192911983E-01 2.003132977E-04 3.362237762E-01
 9.288039207E-01 5.566572072E-04 3.386968617E-01
 9.373921156E-01 8.080495172E-04 3.490624281E-01
 9.491050243E-01 1.023118035E-03 3.367014559E-01
 9.616500735E-01 1.118815155E-03 3.592618637E-01
 9.761501551E-01 1.050303457E-03 3.349962280E-01
 9.885370731E-01 8.290358237E-04 3.939964752E-01
 -5.000000000E-01 -1.000000000E+00 3.149909353E-02
 3.500000000E+00 -1.000000000E+00 1.776099632E-02
 3.500000000E+00 1.000000000E+00 -8.059434122E-04
 -5.000000000E-01 1.000000000E+00 -5.050623426E-03
 -5.000000000E-01 5.000000000E-01 3.552035978E-02
 -5.000000000E-01 2.752797990E-12 1.010236993E-01
 -5.000000000E-01 -5.000000000E-01 6.539470804E-02
 -9.421907698E-13 -1.000000000E+00 2.246439694E-02
 5.000000000E-01 -1.000000000E+00 -1.438526660E-03
 1.000000000E+00 -1.000000000E+00 1.415980122E-02
 1.500000000E+00 -1.000000000E+00 3.577218489E-02
 2.000000000E+00 -1.000000000E+00 3.153969917E-02
 2.500000000E+00 -1.000000000E+00 2.255316810E-02
 3.000000000E+00 -1.000000000E+00 1.840177406E-02
 3.500000000E+00 -5.000000000E-01 2.068636039E-02
 3.500000000E+00 -2.752797990E-12 1.981923901E-02
 3.500000000E+00 5.000000000E-01 7.727378191E-03
 3.000000000E+00 1.000000000E+00 -3.199877321E-03
 2.500000000E+00 1.000000000E+00 -9.506522180E-03
 2.000000000E+00 1.000000000E+00 -2.509447797E-02
 1.500000000E+00 1.000000000E+00 -6.687078377E-02
 1.000000000E+00 1.000000000E+00 -1.191421045E-01
 5.000000000E-01 1.000000000E+00 -1.101009064E-01
 1.733724275E-12 1.000000000E+00 -3.241561378E-02
 6.835805552E-01 -3.880838237E-02 5.693530539E-02
 7.879279757E-01 -2.474763969E-02 1.887336611E-01
 9.049634322E-01 -9.713105738E-03 3.154579921E-01
 5.883877522E-01 -5.699647774E-02 -9.213117395E-02
 6.981088333E-01 6.877971310E-02 -3.804810992E-01
 2.884077463E-01 -7.485234129E-02 -3.924988307E-01
 2.886834698E-01 8.503996661E-02 -4.937183898E-01
 9.150582784E-01 2.741385645E-02 -4.347227445E-02
 7.934318761E-01 5.342929679E-02 -2.552855542E-01
 5.919316989E-01 7.996033247E-02 -5.000441687E-01
 4.474008234E-01 -7.096132323E-02 -3.515652609E-01
 4.186332045E-01 8.822086785E-02 -5.382258992E-01
 1.788692670E+00 -5.286346765E-01 2.953588065E-02
 1.776822086E+00 6.510936635E-01 -2.243910639E-02
 3.031167130E+00 2.156880024E-01 1.085784292E-02
 7.481512571E-01 -6.091664704E-01 1.168889288E-02
 3.112907803E-01 -6.613617160E-01 -1.886797311E-02
 1.103358478E-01 -5.774643642E-02 -2.229042436E-01
 1.788270165E-01 -6.253404235E-02 -3.048141645E-01
 3.765488649E-01 -7.089431387E-02 -4.244145779E-01
 7.362145687E-01 6.613474790E-01 -1.561151041E-01
 4.938576494E-01 8.395044757E-02 -5.459096637E-01
 3.130643682E-01 7.244094011E-01 -1.255676312E-01
 1.185950325E-01 6.068682639E-02 -3.686959754E-01
 1.779592652E-01 7.404617783E-02 -4.235634677E-01
 2.734868347E+00 -5.326711160E-01 1.779173336E-02
 1.189177751E+00 6.444288061E-01 -6.734647059E-02
 1.014446994E+00 3.745871762E-01 -7.145692639E-02
 8.546478262E-01 4.007905354E-02 -1.664163065E-01
 1.271146574E+00 -6.163802448E-01 4.534211521E-02
 1.497246077E+00 -2.380319560E-01 3.876655733E-02
 2.241011136E+00 -5.768038151E-01 2.113072741E-02
 2.025807711E+00 -1.911567078E-01 1.672500845E-02
 2.420284456E+00 -1.842541660E-01 1.291270093E-02
 2.184688310E+00 1.583877415E-01 6.966095350E-03
 1.827326629E+00 9.052686437E-02 1.030062738E-02
 -2.709454520E-01 -2.371561151E-01 1.183593791E-01
 -1.461971646E-01 -6.012352329E-01 3.048965499E-02
 1.362248062E-01 -3.701858706E-01 -2.763394412E-02
 -2.801954670E-01 2.188075851E-01 9.602306965E-02
 -1.891751992E-01 6.925522643E-01 -1.827541714E-02
 1.069794950E-01 3.306391439E-01 -1.344011685E-01
 6.786074072E-02 4.799166632E-02 -2.624614444E-01
 2.238870712E+00 5.551793696E-01 -5.289277761E-03
 2.745972552E+00 5.961835077E-01 2.313480356E-03
 -2.348086811E-01 -3.705644933E-03 1.555915889E-01
 -1.180727593E-01 -1.423047044E-01 1.633318235E-01
 6.205234814E-02 -4.161193727E-02 -1.547946728E-01
 -7.243621403E-02 -3.068572286E-01 6.352305118E-02
 -2.878433585E-03 -1.708508016E-01 7.537864854E-02
 1.789389303E-01 -2.257169691E-01 -1.451593684E-01
 2.404733467E-01 -6.986534210E-02 -3.592711809E-01
 2.156739683E-01 -7.010980412E-02 -3.368709356E-01
 2.640529445E-01 -7.185361409E-02 -3.769727039E-01
 -3.517938144E-02 -9.863169799E-02 2.398678585E-01
 2.960120937E-02 -3.006737135E-02 -3.002632565E-02
 -1.074332284E-01 -2.511720776E-02 3.122015031E-01
 2.969650515E-02 -1.068951915E-01 5.901339808E-02
 3.109371911E+00 -2.612568907E-01 1.767810704E-02
 -4.132535145E-02 -3.813309839E-02 4.090226271E-01
 -5.593467442E-03 -6.073326335E-02 2.637921126E-01
 1.109312299E-02 -1.726384428E-02 2.377513343E-01
 3.408427000E-02 -7.113827051E-02 2.819024095E-02
 4.419294297E-02 -3.750341879E-02 -1.017132491E-01
 7.814962206E-02 -9.090722626E-02 -9.739282144E-02
 1.464191000E-01 -5.892067781E-02 -2.742600633E-01
 7.633371835E-02 -4.509912037E-02 -1.830844927E-01
 7.486670182E-02 -1.427902463E-01 -5.285509743E-02
 1.257635108E-01 -1.142156435E-01 -1.685288097E-01
 2.562867425E+00 2.041001368E-01 5.747424309E-03
 -1.607061489E-02 -3.280216672E-02 4.725637736E-01
 3.911254739E-03 -1.278215485E-02 3.684923043E-01
 -4.624146212E-02 9.445286716E-03 5.159258349E-01
 1.463447180E-02 2.220400770E-02 1.798828617E-02
 2.268613321E-03 -3.634195566E-02 3.504275138E-01
 2.041864083E-02 -2.229670030E-02 3.367946995E-02
 2.373053352E-02 -4.585301641E-02 1.028483730E-01
 1.532073363E-02 -2.990757074E-02 1.700959060E-01
 4.586407309E-02 -5.192392295E-02 -4.936131233E-02
 6.868785325E-02 -5.994026802E-02 -1.158511292E-01
 1.119470852E-01 -7.988743862E-02 -1.880666072E-01
 -8.012448678E-02 3.851433535E-01 -5.218676157E-03
 2.173369044E-02 2.244559084E-01 -4.360048388E-02
 1.691086791E-01 2.255275397E-01 -2.350677960E-01
 3.545232150E-01 8.327413196E-02 -5.233241936E-01
 3.278178938E-01 8.002405831E-02 -5.190042131E-01
 3.819690601E-01 8.558171456E-02 -5.306199740E-01
 2.380866554E-01 7.370860154E-02 -4.761358617E-01
 2.622919956E-01 8.218845175E-02 -4.827550625E-01
 2.120334297E-01 7.530771963E-02 -4.535552692E-01
 2.485372477E-01 3.213308639E-01 -2.303988316E-01
 3.085281713E-01 1.978219683E-01 -3.696948588E-01
 3.869892147E-01 2.817153023E-01 -3.232368807E-01
 4.023488138E-01 1.831835681E-01 -4.210795686E-01
 4.816617881E-01 2.433498552E-01 -3.667741818E-01
 5.432886066E-01 7.834385841E-02 -5.394244745E-01
 5.657383517E-01 8.092122087E-02 -5.213982962E-01
 4.521237792E-01 8.544579585E-02 -5.456903210E-01
 4.927552435E-01 3.304275083E-01 -3.042456607E-01
 5.828126138E-01 2.740271037E-01 -3.169368410E-01
 5.969175503E-01 1.855099626E-01 -3.776390640E-01
 6.501067027E-01 7.140264127E-02 -4.450092088E-01
 6.274595210E-01 7.389833723E-02 -4.672044107E-01
 6.736343712E-01 7.047741628E-02 -4.139266511E-01
 6.720350097E-01 2.165267982E-01 -3.055975972E-01
 7.460474037E-01 6.140786682E-02 -3.199876890E-01
 7.224202889E-01 6.522622767E-02 -3.496121708E-01
 4.782839077E-01 1.647110728E-01 -4.446811465E-01
 2.423000903E-01 1.570000626E-01 -3.713132629E-01
 6.519249629E-01 1.473616812E-01 -3.688966381E-01
 7.301465046E-01 1.554371837E-01 -2.895578908E-01
 7.643230797E-01 2.361144164E-01 -2.171453424E-01
 8.162127306E-01 1.514712455E-01 -1.933466229E-01
 9.962315922E-02 1.694429772E-01 -1.709312142E-01
 3.477293553E-01 1.520441896E-01 -4.334686183E-01
 7.753756423E-01 1.095225244E-01 -2.596417078E-01
 8.356654927E-01 9.772824220E-02 -1.839673164E-01
 8.903998399E-01 1.414240151E-01 -1.051811008E-01
 9.675420459E-01 2.121754867E-02 9.335187749E-02
 8.237544102E-01 4.980027622E-02 -2.147828158E-01
 8.923185533E-01 8.300590218E-02 -9.277603137E-02
 9.416209201E-01 1.276786641E-01 -3.416273792E-02
 8.820169957E-01 3.792643617E-02 -1.192297102E-01
 9.543784051E-01 7.483110914E-02 6.689222707E-03
 9.958448865E-01 1.096900451E-01 2.607399236E-02
 9.383826998E-01 2.867898981E-02 9.298222158E-03
 8.662579527E-01 2.404903630E-01 -1.379972411E-01
 -1.228543951E-01 1.474697264E-01 1.336215350E-01
 -2.028764092E-02 1.275615794E-01 9.938266022E-02
 3.158681229E-02 3.446308346E-02 -1.079180895E-01
 4.996210857E-02 1.114973531E-01 -9.995029832E-02
 5.977002929E-01 1.314430240E-01 -4.343091602E-01
 6.929244539E-01 1.172185059E-01 -3.517636027E-01
 4.292846942E-01 1.366449220E-01 -4.773450701E-01
 8.055664082E-01 3.831322402E-01 -1.638450766E-01
 9.853940377E-01 1.809131747E-02 1.548335369E-01
 9.770476337E-01 3.215414856E-02 1.007589966E-01
 5.429418085E-01 1.476975899E-01 -4.468778066E-01
 9.572529094E-01 3.904811278E-02 4.805352819E-02
 6.999724866E-03 7.883401832E-02 1.005983922E-01
 -5.685649636E-02 7.214970299E-02 2.755489383E-01
 8.633826192E-01 7.726857074E-02 -1.426634273E-01
 1.054001393E-01 1.065138961E-01 -2.571916027E-01
 1.555755788E-01 1.399063653E-01 -3.000229832E-01
 1.433075344E-01 9.590076366E-02 -3.386883345E-01
 1.432772238E-01 6.959924684E-02 -3.868361389E-01
 2.036864879E-01 1.203449329E-01 -3.799663893E-01
 1.742291038E-01 1.001123503E-01 -3.712122634E-01
 -2.758872898E-02 4.293472502E-02 4.267348836E-01
 6.298999564E-01 1.079573518E-01 -4.270328243E-01
 6.609786615E-01 1.049399971E-01 -3.972780014E-01
 8.045544241E-01 8.889131146E-02 -2.258888424E-01
 7.704101261E-01 5.727939919E-02 -2.894073978E-01
 9.219297893E-01 6.400098764E-02 -3.991009247E-02
 5.627377569E-01 1.161781512E-01 -4.757029276E-01
 5.312349793E-01 1.128415581E-01 -4.961969702E-01
 5.171861514E-01 8.244713128E-02 -5.438183892E-01
 4.644809441E-01 1.216957672E-01 -4.985177193E-01
 5.054569774E-01 8.119633967E-02 -5.483988093E-01
 5.070174855E-01 9.724292848E-02 -5.260402150E-01
 5.029895701E-01 1.256185137E-01 -4.874362687E-01
 4.686866865E-01 8.588144685E-02 -5.473456522E-01
 4.825556678E-01 9.839798705E-02 -5.266418632E-01
 5.531202963E-01 7.836084430E-02 -5.339387700E-01
 5.483469197E-01 9.345872843E-02 -5.144163011E-01
 5.786555462E-01 9.657861011E-02 -4.885426354E-01
 6.048524833E-01 9.589913644E-02 -4.659918130E-01
 3.698805522E-03 4.812111860E-02 2.169448529E-01
 9.900416559E-01 2.505279176E-01 -5.655159230E-02
 1.125394736E+00 2.572229242E-01 -7.107226018E-03
 6.071687950E-01 4.341480356E-01 -2.304842071E-01
 6.162200536E-01 7.280202762E-02 -4.809092240E-01
 6.067148967E-01 7.770158895E-02 -4.887714401E-01
 2.833315786E-02 5.939910244E-02 -3.126924840E-02
 4.812235995E-02 4.160976259E-02 -1.955692778E-01
 5.328730551E-02 7.672989198E-02 -1.344514958E-01
 9.187256471E-02 5.361106772E-02 -3.242138065E-01
 5.325157688E-01 8.167611482E-02 -5.393737304E-01
 6.207470075E-01 8.553865356E-02 -4.626764392E-01
 6.393351338E-01 8.497347935E-02 -4.418028985E-01
 5.250165647E-02 5.757639094E-02 -1.678253511E-01
 7.800126927E-02 8.506080805E-02 -2.112677134E-01
 7.611899773E-02 6.243224763E-02 -2.553852058E-01
 1.022366177E-01 6.808527156E-02 -3.085064525E-01
 1.237752901E-01 7.934568708E-02 -3.366198407E-01
 1.592934478E-01 7.878445485E-02 -3.930253457E-01
 1.969409099E-01 8.719857558E-02 -4.238903904E-01
 9.363680534E-01 4.727299780E-02 1.078574926E-04
 8.998353506E-01 4.698077409E-02 -8.343790104E-02
 8.788469628E-01 5.780574527E-02 -1.219535646E-01
 8.408966713E-01 6.610788541E-02 -1.806267878E-01
 2.169235218E-01 9.813792351E-02 -4.286059846E-01
 2.442460223E-01 1.022012600E-01 -4.372260762E-01
 2.757744803E-01 9.741730575E-02 -4.720997207E-01
 2.985326473E-01 1.053660547E-01 -4.717228220E-01
 2.806726590E-01 1.316120474E-01 -4.285482544E-01
 3.073349955E-01 8.486746640E-02 -5.010652721E-01
 3.232848403E-01 1.018615116E-01 -4.879590422E-01
 -5.419216682E-03 2.762405225E-02 3.359294847E-01
 7.263729564E-03 1.734708739E-02 2.135976163E-01
 -1.358750891E-03 1.401332355E-02 5.375571495E-01
 -1.224083157E-02 1.033723962E-02 7.545380546E-01
 -2.167149876E-02 -1.315563030E-02 6.351882640E-01
 -7.004122425E-03 -6.335077407E-03 9.757988337E-01
 -7.146610108E-03 -2.144596564E-02 5.472968725E-01
 2.578617102E-03 -2.172242636E-02 3.994613617E-01
 9.901859498E-01 6.793949461E-02 5.680583429E-02
 5.079629485E-01 6.446087608E-01 -1.700011423E-01
 3.184877308E-01 1.342602946E-01 -4.429948660E-01
 3.463223791E-01 1.209248221E-01 -4.740195660E-01
 3.657536158E-01 1.017210955E-01 -5.056840317E-01
 3.892285726E-01 1.062334545E-01 -5.083962467E-01
 3.851882105E-01 1.302867492E-01 -4.738862733E-01
 4.112693840E-01 1.090015252E-01 -5.072993821E-01
 4.366885436E-01 9.958049249E-02 -5.236799150E-01
 4.007892195E-01 9.025542914E-02 -5.308572120E-01
 8.190211165E-01 6.958538143E-02 -2.117799140E-01
 7.843090225E-01 7.188439871E-02 -2.589102782E-01
 7.619504066E-01 7.276844800E-02 -2.905518978E-01
 7.389989790E-01 8.135113548E-02 -3.167193784E-01
 7.112714171E-01 8.480196890E-02 -3.511533501E-01
 6.837143977E-01 8.512639473E-02 -3.849809523E-01
 7.297433994E-01 1.096662637E-01 -3.111319745E-01
 5.787242125E-01 7.834283291E-02 -5.131071330E-01
 3.427303973E-01 9.346872914E-02 -5.075053009E-01
 3.840973406E-01 4.533721151E-01 -2.129116832E-01
 8.679130447E-01 4.118758311E-02 -1.425495228E-01
 8.578111821E-01 5.483635703E-02 -1.567297658E-01
 1.742796395E+00 -1.415516324E-01 2.213206130E-02
 1.555246142E+00 3.629843436E-02 2.057757569E-02
 1.275601200E+00 -1.534302801E-01 6.619139305E-02
 1.566041731E+00 3.354115807E-01 -7.018513171E-03
 1.339439430E+00 1.847381203E-01 1.749683293E-02
 1.462642648E+00 6.105550572E-01 -3.351977940E-02
 7.926284414E-02 4.889663168E-02 -3.005627054E-01
 8.404143915E-01 4.429925086E-02 -1.896151385E-01
 1.007474042E+00 -6.677219118E-01 4.569711070E-02
 1.049311815E+00 -3.711631398E-01 7.775831413E-02
 7.939365580E-01 -3.127457094E-01 6.173063403E-02
 8.467716330E-01 -1.579179073E-02 2.594093472E-01
 1.283895352E+00 -3.588263799E-01 5.881178727E-02
 8.631167480E-01 -4.339573240E-01 5.385793716E-02
 9.629895523E-01 -2.006018551E-01 1.414748989E-01
 9.573247783E-01 -1.396554337E-02 3.340994226E-01
 5.923649358E-01 -4.235443326E-01 -3.025264241E-02
 5.100042086E-01 -6.712939647E-02 -2.367717354E-01
 6.178441560E-01 -2.348133599E-01 -3.460480356E-02
 1.122662441E+00 -2.155893387E-01 1.071534150E-01
 1.134350663E+00 -7.934432522E-02 1.099845387E-01
 1.244169488E+00 1.812330178E-02 5.577211611E-02
 1.138855910E+00 4.097815281E-02 7.926272511E-02
 1.080956021E+00 -1.768025289E-02 1.373404993E-01
 1.057025243E+00 -7.095007081E-02 1.653298855E-01
 1.027757060E+00 -3.298216160E-02 2.051550409E-01
 1.003867200E+00 -8.142101335E-02 2.113959836E-01
 1.037268467E+00 9.446393736E-03 1.587539106E-01
 9.997563161E-01 3.618675711E-02 1.348898453E-01
 1.031851184E+00 6.671407543E-02 1.051364557E-01
 1.087707818E+00 1.236582210E-01 4.991671511E-02
 9.928000242E-01 -4.180923350E-02 2.593951508E-01
 9.569624621E-01 -6.501605683E-02 2.519641363E-01
 9.849797335E-01 -9.156708824E-03 4.125411302E-01
 1.034689381E+00 -1.369886567E-01 1.593949572E-01
 1.076780203E+00 4.278441330E-02 1.035574998E-01
 1.282857215E+00 4.011572775E-01 -2.219742032E-02
 9.634836970E-01 -3.953016735E-02 2.907692461E-01
 9.232319632E-01 -4.438757588E-02 2.743034900E-01
 9.139922171E-01 -8.553506931E-02 2.282309090E-01
 9.303627314E-01 -1.014317806E-02 3.258445473E-01
 8.780582016E-01 -5.567286957E-02 2.419327422E-01
 8.687123655E-01 -1.059840749E-01 1.938108687E-01
 7.372754731E-01 -3.324995925E-02 1.263212578E-01
 8.273328986E-01 -6.613771239E-02 1.989634232E-01
 8.124013739E-01 -2.029258170E-02 2.202558531E-01
 8.188528098E-01 -1.222514441E-01 1.518488421E-01
 7.835933999E-01 -7.989931420E-02 1.508456695E-01
 7.631970901E-01 -1.352288584E-01 1.031977328E-01
 7.088425525E-01 -1.086573110E-01 6.247884581E-02
 6.307926974E-01 -5.394043466E-02 -1.984012060E-02
 8.681728479E-01 -1.245507747E-02 2.853770870E-01
 6.941336565E-01 -1.751272494E-01 3.026752440E-02
 6.553776704E-01 -1.178136451E-01 4.836686588E-03
 5.656683225E-01 -1.501396339E-01 -1.026954128E-01
 5.472550934E-01 -5.931873091E-02 -1.663420188E-01
 6.763849093E-01 -7.738635946E-02 3.427825206E-02
 6.589072365E-01 -4.283224268E-02 2.089429528E-02
 7.121961119E-01 -7.333133137E-02 7.864193634E-02
 7.105363464E-01 -3.606592764E-02 9.163914877E-02
 6.379308910E-01 -8.201934991E-02 -1.749768071E-02
 8.732945339E-01 -1.743477941E-01 1.458027338E-01
 7.987416408E-01 -5.611171862E-02 1.770090902E-01
 7.620126440E-01 -2.954634063E-02 1.576762878E-01
 1.000130762E+00 -1.920905693E-02 3.584035563E-01
 6.456187305E-01 -4.410820025E-02 1.401075289E-03
 6.537661150E-01 -5.905037645E-02 1.033156316E-02
 6.090155592E-01 -6.812676487E-02 -5.734771957E-02
 6.040756973E-01 -1.076038000E-01 -6.162962901E-02
 5.824437932E-01 -8.021567194E-02 -9.704443710E-02
 5.730034076E-01 -6.443936592E-02 -1.161970901E-01
 5.574279943E-01 -7.620644444E-02 -1.432501904E-01
 5.322726151E-01 -7.283921494E-02 -1.895024845E-01
 5.387481186E-01 -9.894955804E-02 -1.598474325E-01
 5.114789016E-01 -9.367590876E-02 -2.132231811E-01
 4.808236043E-01 -6.389701438E-02 -3.006335962E-01
 5.110233980E-01 -1.334934558E-01 -1.782430909E-01
 5.233670395E-01 -1.972724562E-01 -1.317978755E-01
 4.562302088E-01 -1.543677066E-01 -2.294702717E-01
 4.096328728E-01 -7.112569117E-02 -4.002080107E-01
 4.547225389E-01 -2.209836296E-01 -1.744485295E-01
 3.719358251E-01 -1.901968445E-01 -2.351846925E-01
 3.902077409E-01 -2.844554874E-01 -1.416569639E-01
 3.982190236E-01 -1.292585238E-01 -3.029652878E-01
 3.377256128E-01 -7.233561407E-02 -4.188923065E-01
 3.360615555E-01 -1.395729024E-01 -3.030499498E-01
 2.867143096E-01 -2.328154783E-01 -1.883072325E-01
 2.420069675E-01 -1.602141417E-01 -2.321076643E-01
 2.874596352E-01 -1.224611651E-01 -3.125522610E-01
 4.406102624E-01 -1.096636804E-01 -3.009102466E-01
 3.642879404E-01 -1.078186656E-01 -3.511589478E-01
 4.982078851E-01 -2.980152348E-01 -9.688398545E-02
 3.271624564E-01 -1.060899075E-01 -3.543507774E-01
 3.148198589E-01 -7.011887442E-02 -4.145978760E-01
 6.732556324E-01 -5.258460044E-02 3.879610358E-02
 2.637331228E-01 -3.964435572E-01 -8.504682994E-02
 4.332071794E-01 -4.464771474E-01 -6.080668117E-02
 8.006852997E-01 -2.013291086E-02 2.061864768E-01
 8.051481822E-01 -3.649067882E-02 1.993425089E-01
 8.260709961E-01 -3.055898350E-02 2.270997539E-01
 7.787532763E-01 -4.359748357E-02 1.696526560E-01
 7.539761057E-01 -4.852236261E-02 1.376080482E-01
 3.249102496E-01 -7.022397478E-02 -4.196535651E-01
 7.260169954E-01 -5.010233043E-02 1.052784099E-01
 6.153679148E-01 -4.891378092E-02 -4.757170189E-02
 8.971719902E-01 -3.698625989E-02 2.768363965E-01
 4.780127412E-01 -1.095077755E-01 -2.492592778E-01
 1.013849987E+00 -6.229830759E-03 1.929668334E-01
 7.233705947E-01 -3.226913186E-02 1.099687457E-01
 1.802448677E-01 -1.512579067E-01 -1.918401613E-01
 2.120502647E-01 -1.145386331E-01 -2.693714197E-01
 2.496135180E-01 -1.101450094E-01 -3.070001191E-01
 4.945074388E-01 -6.300601232E-02 -2.740156003E-01
 5.347512717E-01 -5.760715525E-02 -1.920198349E-01
 5.239418404E-01 -5.995595961E-02 -2.140372883E-01
 3.892408007E-01 -9.870857128E-02 -3.611488846E-01
 4.232640223E-01 -7.134308456E-02 -3.857878109E-01
 4.154802515E-01 -8.778164734E-02 -3.569326237E-01
 4.364658200E-01 -8.252404908E-02 -3.491077514E-01
 4.595012171E-01 -8.723525632E-02 -3.054085809E-01
 3.939114447E-01 -7.709907117E-02 -3.995977042E-01
 8.229139880E-01 -1.673065383E-02 2.358107412E-01
 8.466862111E-01 -3.756470941E-02 2.411035155E-01
 8.347711692E-01 -1.900409468E-02 2.459480851E-01
 7.413037093E-01 -8.262358466E-02 1.112344002E-01
 4.853487874E-01 -7.946463839E-02 -2.711911554E-01
 8.798532322E-01 -1.084126200E-02 2.966026218E-01
 8.793885154E-01 -2.552553833E-02 2.802634123E-01
 8.613247775E-01 -2.548312814E-02 2.681195881E-01
 2.969524050E-01 -1.699660986E-01 -2.553235412E-01
 6.974909457E-01 -5.110106095E-02 6.996808689E-02
 8.932663683E-01 -1.436005666E-02 3.016215103E-01
 2.997658431E-01 -9.228473631E-02 -3.670832798E-01
 2.738724501E-01 -8.922889935E-02 -3.553081767E-01
 4.631133999E-01 -7.180110499E-02 -3.226824803E-01
 3.731488501E-01 -8.506991235E-02 -3.943619457E-01
 3.473166218E-01 -8.578676947E-02 -3.944922648E-01
 9.633334541E-01 -1.175162517E-01 1.900883412E-01
 1.003988801E+00 1.043907899E-02 2.292507964E-01
 6.274199005E-01 -1.570995377E-01 -3.351478483E-02
 7.492800900E-01 -2.925209137E-02 1.436291575E-01
 9.713268936E-01 -9.538145760E-03 3.214350620E-01
 2.516128247E-01 -8.271543431E-02 -3.485844945E-01
 2.289369867E-01 -8.576227966E-02 -3.221443503E-01
 2.053396183E-01 -8.717815826E-02 -2.943818964E-01
 1.970599264E-01 -6.570179890E-02 -3.218486490E-01
 1.813394562E-01 -7.684865268E-02 -2.856451261E-01
 1.624569266E-01 -7.159518363E-02 -2.732932171E-01
 1.699247493E-01 -9.855770989E-02 -2.502974746E-01
 1.406329372E-01 -8.125301155E-02 -2.224769270E-01