TITLE     = "Visualization of the solution"
VARIABLES = "x"
"y"
"Pressure_Coefficient"
ZONE T="Zone"
 STRANDID=0, SOLUTIONTIME=0
 Nodes=692, Elements=1169, ZONETYPE=FEQuadrilateral
 DATAPACKING=POINT
 DT=(DOUBLE DOUBLE DOUBLE )
 9.997687340E-01 5.298755132E-04 2.236207520E-01
 9.853059053E-01 3.251463640E-03 1.720947344E-01
 9.732774496E-01 5.489181727E-03 1.166628704E-01
 9.593424797E-01 8.046177216E-03 4.905299526E-02
 9.465701580E-01 1.044779737E-02 1.036832555E-02
 9.353173971E-01 1.249660552E-02 -1.942494935E-02
 9.245973825E-01 1.440581586E-02 -5.293744313E-02
 9.128479958E-01 1.649412885E-02 -8.857326325E-02
 9.014819860E-01 1.841620356E-02 -1.058612629E-01
 8.890985250E-01 2.040619031E-02 -1.317994180E-01
 8.770253062E-01 2.232752927E-02 -1.491884752E-01
 8.647674322E-01 2.413135208E-02 -1.594863933E-01
 8.522001505E-01 2.595979534E-02 -1.756839994E-01
 8.403013945E-01 2.763123997E-02 -1.882184615E-01
 8.283027411E-01 2.925993502E-02 -1.960870687E-01
 8.148325086E-01 3.101148643E-02 -2.036240219E-01
 8.015530705E-01 3.272829577E-02 -2.122909241E-01
 7.894977927E-01 3.424124047E-02 -2.265167411E-01
 7.769027352E-01 3.582471237E-02 -2.354208893E-01
 7.644080520E-01 3.730548918E-02 -2.462552197E-01
 7.515834570E-01 3.885583207E-02 -2.604319951E-01
 7.374933958E-01 4.046490043E-02 -2.687416142E-01
 7.263876200E-01 4.172345996E-02 -2.830362790E-01
 7.149310708E-01 4.299387336E-02 -2.931229148E-01
 7.028512955E-01 4.427743331E-02 -3.023101561E-01
 6.892894506E-01 4.569468275E-02 -3.179078555E-01
 6.760517955E-01 4.703911766E-02 -3.301179856E-01
 6.650562286E-01 4.809679464E-02 -3.385116939E-01
 6.532884240E-01 4.920513183E-02 -3.524247431E-01
 6.423484683E-01 5.020107701E-02 -3.632960953E-01
 6.299870610E-01 5.126402527E-02 -3.726317459E-01
 6.185321212E-01 5.220608786E-02 -3.826483105E-01
 6.076508164E-01 5.305992067E-02 -3.935556276E-01
 5.951934457E-01 5.398745090E-02 -4.054771298E-01
 5.830809474E-01 5.482050404E-02 -4.115284789E-01
 5.691552162E-01 5.570174754E-02 -4.209423260E-01
 5.559358597E-01 5.648504943E-02 -4.299717133E-01
 5.426847339E-01 5.717757344E-02 -4.380803686E-01
 5.312496424E-01 5.772697553E-02 -4.441238118E-01
 5.189563632E-01 5.823814869E-02 -4.498956417E-01
 5.058976412E-01 5.871569365E-02 -4.533756235E-01
 4.948286414E-01 5.903699622E-02 -4.537494791E-01
 4.816815257E-01 5.937936902E-02 -4.601995681E-01
 4.687658846E-01 5.963049829E-02 -4.574660183E-01
 4.544074535E-01 5.980622396E-02 -4.576228664E-01
 4.402348995E-01 5.991637334E-02 -4.601396501E-01
 4.270709753E-01 5.993434042E-02 -4.574098660E-01
 4.136441350E-01 5.985439196E-02 -4.575214179E-01
 4.012536705E-01 5.973625928E-02 -4.550967634E-01
 3.882524967E-01 5.952498689E-02 -4.545545063E-01
 3.764774203E-01 5.928247795E-02 -4.531308046E-01
 3.654200435E-01 5.898342282E-02 -4.440023669E-01
 3.520961404E-01 5.856127292E-02 -4.423999853E-01
 3.401962221E-01 5.814062804E-02 -4.395935104E-01
 3.278625906E-01 5.761918426E-02 -4.350044537E-01
 3.179056942E-01 5.715407804E-02 -4.301688963E-01
 3.060583472E-01 5.655236542E-02 -4.264249385E-01
 2.937563658E-01 5.586690456E-02 -4.226632818E-01
 2.800224423E-01 5.501683429E-02 -4.143924415E-01
 2.675680518E-01 5.416378751E-02 -4.061415107E-01
 2.556919158E-01 5.330366641E-02 -4.023798612E-01
 2.432036102E-01 5.234010145E-02 -3.974833325E-01
 2.302294225E-01 5.124669150E-02 -3.893954995E-01
 2.182190865E-01 5.016348511E-02 -3.810817017E-01
 2.064326555E-01 4.903796688E-02 -3.744035352E-01
 1.952074617E-01 4.790950939E-02 -3.692008055E-01
 1.829031557E-01 4.660299048E-02 -3.618778379E-01
 1.710940003E-01 4.526101798E-02 -3.558584663E-01
 1.594219506E-01 4.386756197E-02 -3.468693229E-01
 1.477658749E-01 4.238707945E-02 -3.401888287E-01
 1.369656175E-01 4.095029458E-02 -3.346767051E-01
 1.259453148E-01 3.940460086E-02 -3.278726741E-01
 1.147151813E-01 3.772947565E-02 -3.183583075E-01
 1.040360034E-01 3.604302183E-02 -3.123040881E-01
 9.441830218E-02 3.444235399E-02 -3.076460546E-01
 8.357898891E-02 3.252897784E-02 -2.947073820E-01
 7.201505452E-02 3.033181652E-02 -2.877073000E-01
 6.226981804E-02 2.833258733E-02 -2.805863882E-01
 5.281531811E-02 2.624180168E-02 -2.649267333E-01
 4.376718402E-02 2.406056970E-02 -2.482249475E-01
 3.586249053E-02 2.196047269E-02 -2.203110953E-01
 2.908812463E-02 1.998341829E-02 -2.106143884E-01
 2.333006449E-02 1.813184284E-02 -2.208524937E-01
 1.914370991E-02 1.663571969E-02 -2.185057658E-01
 1.522955298E-02 1.510187145E-02 -2.248117635E-01
 1.248713490E-02 1.390905026E-02 -2.081979099E-01
 1.011971477E-02 1.278280560E-02 -2.020578722E-01
 8.394141681E-03 1.188721694E-02 -1.749734466E-01
 6.753424648E-03 1.096608769E-02 -1.757309722E-01
 5.245096982E-03 1.002721768E-02 -3.357729950E-02
 3.290629713E-03 8.646124974E-03 -1.563392308E-01
 1.653807936E-03 7.262788713E-03 2.848966105E-01
 2.540938149E-04 5.789888091E-03 3.452511897E-01
 -1.108659315E-03 3.803812433E-03 3.621240691E-01
 -1.792403054E-03 2.197562018E-03 1.007394504E+00
 -2.089243382E-03 9.037374984E-04 7.512499269E-01
 -2.170008840E-03 -7.354796981E-04 9.706976226E-01
 -1.840192126E-03 -2.784348559E-03 7.171066648E-01
 -9.256135672E-04 -5.119123962E-03 7.822604838E-01
 6.376371020E-04 -7.638598792E-03 7.051441296E-01
 2.865988063E-03 -1.026943047E-02 5.990307433E-01
 4.876505118E-03 -1.220208686E-02 5.067046382E-01
 7.282080594E-03 -1.420147717E-02 4.808339139E-01
 9.005228989E-03 -1.548876148E-02 3.255211040E-01
 1.114222594E-02 -1.695587672E-02 3.134220303E-01
 1.369348168E-02 -1.856094785E-02 2.430293015E-01
 1.703362726E-02 -2.047623508E-02 1.882929905E-01
 2.036964335E-02 -2.222709917E-02 1.207391067E-01
 2.464375272E-02 -2.426841110E-02 6.669803292E-02
 3.029162809E-02 -2.671748586E-02 2.189628216E-03
 3.616629913E-02 -2.901387773E-02 -5.958998880E-02
 4.357816279E-02 -3.163864836E-02 -9.466097952E-02
 5.119007826E-02 -3.407906741E-02 -1.512456803E-01
 5.997190252E-02 -3.664422780E-02 -1.867629698E-01
 6.871857494E-02 -3.897826374E-02 -2.160756343E-01
 7.935243100E-02 -4.158178717E-02 -2.324933649E-01
 8.917897940E-02 -4.379931837E-02 -2.640251982E-01
 9.998823702E-02 -4.604941979E-02 -2.798724518E-01
 1.111223698E-01 -4.820200428E-02 -2.963649233E-01
 1.229895055E-01 -5.033423007E-02 -3.128588513E-01
 1.344629377E-01 -5.224597082E-02 -3.270442294E-01
 1.447471380E-01 -5.385597423E-02 -3.406434653E-01
 1.558337361E-01 -5.547974631E-02 -3.515441065E-01
 1.674410999E-01 -5.708109960E-02 -3.678610453E-01
 1.788149476E-01 -5.853471905E-02 -3.835609756E-01
 1.903191060E-01 -5.991528928E-02 -3.940589753E-01
 2.004208118E-01 -6.103836372E-02 -4.050707136E-01
 2.113014162E-01 -6.218193844E-02 -4.130487385E-01
 2.232024223E-01 -6.332909316E-02 -4.247186586E-01
 2.349905819E-01 -6.438104063E-02 -4.371413438E-01
 2.466502041E-01 -6.531246006E-02 -4.475977519E-01
 2.589855790E-01 -6.621296704E-02 -4.585393987E-01
 2.699123323E-01 -6.690590084E-02 -4.696258816E-01
 2.823124528E-01 -6.760364771E-02 -4.768463771E-01
 2.944211662E-01 -6.816307455E-02 -4.858559652E-01
 3.071595132E-01 -6.865063310E-02 -4.939601477E-01
 3.185209334E-01 -6.897187233E-02 -5.032525884E-01
 3.305693269E-01 -6.919401139E-02 -5.051552116E-01
 3.407084942E-01 -6.930544227E-02 -5.120312859E-01
 3.518703878E-01 -6.931180507E-02 -5.135090114E-01
 3.628969789E-01 -6.921099126E-02 -5.105458319E-01
 3.735281825E-01 -6.903604418E-02 -5.099625770E-01
 3.850386739E-01 -6.871771067E-02 -5.055732025E-01
 3.974985778E-01 -6.823979318E-02 -4.941185787E-01
 4.094659686E-01 -6.765794009E-02 -4.829856839E-01
 4.225705564E-01 -6.689451635E-02 -4.709277202E-01
 4.350556433E-01 -6.601120532E-02 -4.562183377E-01
 4.483806789E-01 -6.492082775E-02 -4.319050387E-01
 4.611738026E-01 -6.374563277E-02 -4.065300447E-01
 4.737182558E-01 -6.249337643E-02 -3.828740553E-01
 4.857416749E-01 -6.117543206E-02 -3.602737864E-01
 4.979225099E-01 -5.975262448E-02 -3.322872083E-01
 5.113657117E-01 -5.808704719E-02 -3.037527201E-01
 5.250784755E-01 -5.630480498E-02 -2.748399092E-01
 5.378462076E-01 -5.457694456E-02 -2.485915764E-01
 5.519069433E-01 -5.257878825E-02 -2.181690204E-01
 5.648212433E-01 -5.071233958E-02 -1.891045334E-01
 5.783738494E-01 -4.869694263E-02 -1.652628067E-01
 5.913074613E-01 -4.672690108E-02 -1.372693105E-01
 6.042073965E-01 -4.475783929E-02 -1.143540867E-01
 6.170611382E-01 -4.274788871E-02 -9.042080628E-02
 6.310676336E-01 -4.057193920E-02 -6.737173131E-02
 6.443764567E-01 -3.846664354E-02 -4.427128450E-02
 6.579421163E-01 -3.634416685E-02 -2.423747233E-02
 6.715512276E-01 -3.417905420E-02 -4.783719641E-03
 6.842803955E-01 -3.217439726E-02 1.743296437E-02
 6.967687607E-01 -3.020645864E-02 3.356127360E-02
 7.118059993E-01 -2.782035805E-02 5.915987295E-02
 7.252886891E-01 -2.576038428E-02 7.685377955E-02
 7.366786003E-01 -2.397456765E-02 8.997348671E-02
 7.493176460E-01 -2.202794887E-02 1.115061881E-01
 7.625662088E-01 -2.003019303E-02 1.299839712E-01
 7.758358121E-01 -1.805814728E-02 1.448806381E-01
 7.878462076E-01 -1.625766978E-02 1.672685228E-01
 8.009739518E-01 -1.441701036E-02 1.823690165E-01
 8.120185733E-01 -1.285056770E-02 1.969153177E-01
 8.233056068E-01 -1.132262032E-02 2.131798239E-01
 8.349824548E-01 -9.722729214E-03 2.326076830E-01
 8.474642634E-01 -8.179389872E-03 2.511379164E-01
 8.595572710E-01 -6.740230136E-03 2.607838563E-01
 8.706952333E-01 -5.479713902E-03 2.775499620E-01
 8.820747137E-01 -4.268513992E-03 2.930186117E-01
 8.947922587E-01 -3.080984810E-03 3.061351863E-01
 9.047203660E-01 -2.247485798E-03 3.163741476E-01
 9.148854613E-01 -1.505293301E-03 3.217559712E-01
 9.245901704E-01 -9.043150931E-04 3.279301443E-01
 9.342439175E-01 -4.104056570E-04 3.362866480E-01
 9.469009042E-01 9.424045857E-05 3.268292021E-01
 9.613490105E-01 4.669325426E-04 3.462252121E-01
 9.764940143E-01 6.422689185E-04 3.441686768E-01
 9.898514748E-01 6.173884030E-04 3.575728957E-01
 -5.000000000E-01 -1.000000000E+00 2.308540170E-02
 3.500000000E+00 -1.000000000E+00 1.469950917E-02
 3.500000000E+00 1.000000000E+00 3.286053846E-03
 -5.000000000E-01 1.000000000E+00 9.540024834E-04
 -5.000000000E-01 5.000000000E-01 3.445999335E-02
 -5.000000000E-01 2.752797990E-12 9.631798900E-02
 -5.000000000E-01 -5.000000000E-01 5.577896890E-02
 -9.421907698E-13 -1.000000000E+00 7.108958444E-03
 5.000000000E-01 -1.000000000E+00 -2.155049610E-02
 1.000000000E+00 -1.000000000E+00 -1.670252534E-03
 1.500000000E+00 -1.000000000E+00 2.228503283E-02
 2.000000000E+00 -1.000000000E+00 2.295002544E-02
 2.500000000E+00 -1.000000000E+00 1.754838610E-02
 3.000000000E+00 -1.000000000E+00 1.485856761E-02
 3.500000000E+00 -5.000000000E-01 1.765029255E-02
 3.500000000E+00 -2.752797990E-12 1.779958190E-02
 3.500000000E+00 5.000000000E-01 9.556045672E-03
 3.000000000E+00 1.000000000E+00 3.968946616E-04
 2.500000000E+00 1.000000000E+00 -5.369558414E-03
 2.000000000E+00 1.000000000E+00 -1.815059331E-02
 1.500000000E+00 1.000000000E+00 -4.831031445E-02
 1.000000000E+00 1.000000000E+00 -8.845679636E-02
 5.000000000E-01 1.000000000E+00 -8.163877878E-02
 1.733724275E-12 1.000000000E+00 -2.437592465E-02
 6.806254180E-01 -4.271426443E-02 8.394092490E-03
 7.832357553E-01 -2.762156969E-02 1.531244638E-01
 9.018879452E-01 -1.340433976E-02 2.971538633E-01
 5.859619609E-01 -6.126725984E-02 -1.478254717E-01
 6.961009190E-01 5.782660440E-02 -3.038776538E-01
 2.862930773E-01 6.986018848E-02 -4.009770229E-01
 9.088295564E-01 2.729841936E-02 -8.527102194E-02
 7.984754256E-01 4.520828192E-02 -2.124622999E-01
 5.917831364E-01 6.781156580E-02 -3.915693126E-01
 4.077336703E-01 7.425795181E-02 -4.385412252E-01
 4.282708404E-01 -7.892954598E-02 -4.378961116E-01
 1.826050025E+00 -6.005306582E-01 2.395814969E-02
 1.760177828E+00 5.985335809E-01 -1.333881128E-02
 3.031188691E+00 2.156779842E-01 1.083966712E-02
 7.900262635E-01 -6.021510481E-01 -3.303610732E-03
 2.887700181E-01 -8.042942954E-02 -4.589557463E-01
 3.566211224E-01 -8.259062022E-02 -4.798955757E-01
 5.047928368E-01 -6.897195120E-02 -3.072407080E-01
 3.525439650E-01 -6.538449491E-01 -4.610681971E-02
 1.252693814E-01 -6.375600514E-02 -2.899146617E-01
 1.941184353E-01 -7.354604651E-02 -3.754458693E-01
 7.559159747E-01 5.629187321E-01 -1.198290332E-01
 4.859023650E-01 7.351285360E-02 -4.392983871E-01
 2.734815159E+00 -5.327243532E-01 1.477705267E-02
 1.152048413E+00 6.873396514E-01 -5.970891643E-02
 9.978396249E-01 3.302826772E-01 -5.323205365E-02
 9.687312496E-01 2.146090895E-02 7.237737623E-02
 1.253717822E+00 -6.327769510E-01 3.069083516E-02
 1.485472907E+00 -2.630804269E-01 3.489814714E-02
 3.328695678E-01 6.148320654E-01 -1.107577163E-01
 1.091688873E-01 4.905972772E-02 -2.930897252E-01
 1.762414326E-01 5.581322832E-02 -3.445187599E-01
 2.247190737E+00 -5.888593358E-01 1.669533899E-02
 1.980840649E+00 -2.200485899E-01 1.577446552E-02
 2.412548184E+00 -1.880375660E-01 1.120808981E-02
 2.184508750E+00 1.579634960E-01 6.181224356E-03
 1.777482266E+00 1.254153483E-01 8.394483529E-03
 -2.740882745E-01 2.322367885E-01 8.707486794E-02
 -1.003081894E-01 6.204277166E-01 -1.762408462E-02
 1.825083620E-02 3.392021636E-01 -3.635921925E-02
 4.651676044E-02 3.251208509E-02 -2.288744450E-01
 -2.714777239E-01 -2.368511681E-01 1.125885950E-01
 -1.460053631E-01 -6.021573033E-01 1.785470416E-02
 1.221915932E-01 -3.780616199E-01 -5.022700745E-02
 6.979641403E-02 -5.092762375E-02 -1.793680227E-01
 2.207924272E+00 5.813723860E-01 -2.968468111E-03
 2.740824512E+00 6.005447608E-01 4.146127588E-03
 -2.355075896E-01 -4.560527309E-03 1.491986327E-01
 -1.277151069E-01 1.263698100E-01 1.418470509E-01
 -1.101709642E-01 -1.273554868E-01 1.762840821E-01
 -7.629089617E-02 -3.221348702E-01 4.344652455E-02
 7.717732361E-03 -1.819861876E-01 5.280795816E-02
 3.782393392E-02 -3.611027260E-02 -3.708564276E-02
 1.553814031E-01 -2.276479281E-01 -1.452599225E-01
 2.401114900E-01 -7.823591290E-02 -4.199953819E-01
 -2.279543408E-02 -9.909114417E-02 2.075767387E-01
 -1.102418287E-01 -2.344634465E-02 2.872046500E-01
 -7.076130247E-02 5.508196509E-02 2.633974590E-01
 2.005941279E-02 2.136901968E-02 -2.032468158E-01
 3.198711911E-02 -1.161504895E-01 5.009125670E-02
 3.109342124E+00 -2.613035294E-01 1.552552378E-02
 -5.144361853E-02 -3.909966766E-02 3.438165999E-01
 -5.132965940E-02 1.120702487E-02 4.738233777E-01
 -2.179754961E-02 5.352682944E-02 2.833753058E-01
 -3.904438193E-02 1.018782422E-01 1.479797430E-01
 2.574205893E-02 1.013143320E-01 -3.905817724E-02
 7.496635084E-02 4.139495477E-02 -2.645014964E-01
 -6.186225576E-03 1.881686265E-01 1.966108427E-02
 8.055234193E-02 1.592748353E-01 -1.197055718E-01
 1.729853876E-01 2.856979072E-01 -1.582984998E-01
 3.457818921E-01 6.865658205E-02 -4.282879231E-01
 2.372642217E-01 6.467678773E-02 -3.784922459E-01
 2.067109213E-01 1.765357823E-01 -2.437276751E-01
 2.845136024E-01 2.543615370E-01 -2.434312719E-01
 2.982201220E-01 1.654181276E-01 -3.143055977E-01
 3.680496903E-01 2.195678542E-01 -2.945817048E-01
 3.692757749E-01 1.411679751E-01 -3.594090073E-01
 4.454258556E-01 7.358488814E-02 -4.429837598E-01
 4.373510019E-01 1.810330976E-01 -3.341386735E-01
 5.374184166E-01 7.054361618E-02 -4.262206234E-01
 5.644534637E-01 6.999387067E-02 -4.118140917E-01
 4.469444427E-01 2.737781657E-01 -2.624536618E-01
 5.322165287E-01 2.080461165E-01 -3.030473799E-01
 5.447434198E-01 3.461882986E-01 -2.216014634E-01
 6.360421242E-01 2.616883096E-01 -2.336464977E-01
 6.497194573E-01 6.048877864E-02 -3.468373810E-01
 6.191946577E-01 1.646631166E-01 -2.970786688E-01
 7.142518021E-01 1.841977885E-01 -2.260927455E-01
 7.445103882E-01 5.292347738E-02 -2.592994268E-01
 7.216479825E-01 5.571889988E-02 -2.804696382E-01
 7.414745642E-01 2.692449121E-01 -1.880524762E-01
 8.230400679E-01 1.992266311E-01 -1.499844763E-01
 8.591521726E-01 3.704871520E-02 -1.598370391E-01
 8.381713237E-01 4.308785691E-02 -1.790948795E-01
 7.747026790E-01 1.259175518E-01 -2.061125169E-01
 8.653060196E-01 1.312935240E-01 -1.210534280E-01
 6.757704245E-01 1.269403777E-01 -2.844444910E-01
 5.498790684E-01 1.391398869E-01 -3.531444380E-01
 1.427062478E-01 1.323106364E-01 -2.259663874E-01
 1.409660399E-01 5.329785734E-02 -3.183372588E-01
 6.325749960E-01 1.059386397E-01 -3.252476045E-01
 6.145689372E-01 6.427954336E-02 -3.755365676E-01
 8.254713718E-01 9.838750082E-02 -1.688849249E-01
 2.474421641E-01 1.312667529E-01 -3.140235035E-01
 9.105954604E-01 1.973228912E-01 -7.780331655E-02
 9.561853647E-01 1.215417923E-01 -2.896510138E-02
 1.004623562E+00 2.080877869E-01 -1.941346029E-02
 1.043729280E+00 1.216987806E-01 3.945000659E-02
 1.110986692E+00 2.555320797E-01 -9.951742208E-03
 1.188447808E+00 1.307418980E-01 3.832248614E-02
 1.297249189E+00 2.911246244E-01 -2.792517870E-04
 1.397162739E+00 9.790153941E-02 2.312851720E-02
 1.277143919E+00 -7.318597896E-02 5.512751065E-02
 1.132575595E+00 1.877939294E-02 8.562530904E-02
 9.073236459E-01 8.927577532E-02 -7.642617942E-02
 3.236212597E-01 1.146154509E-01 -3.704290396E-01
 3.110546657E-01 7.170067035E-02 -4.126226296E-01
 9.040057594E-02 9.973958071E-02 -1.887528000E-01
 4.214059990E-01 1.244049387E-01 -3.862384658E-01
 4.809795793E-01 1.290157990E-01 -3.815497612E-01
 1.066675150E+00 4.687553787E-02 1.140840013E-01
 1.069506736E+00 -4.505327322E-02 1.396591182E-01
 9.749822097E-01 -1.383050404E-02 3.015969081E-01
 5.199226944E-01 1.076174475E-01 -3.934959244E-01
 5.154203995E-01 6.824076105E-02 -4.393122968E-01
 6.835624370E-01 3.844539353E-01 -1.698338949E-01
 1.063042891E+00 4.348230492E-03 1.352256730E-01
 1.419405565E-01 4.527213433E-01 -8.066026958E-02
 9.839126330E-01 6.964645536E-02 4.113471788E-02
 -8.807844545E-03 -6.075779772E-02 3.357915140E-01
 8.864524763E-03 -1.824774420E-02 3.483305851E-01
 2.115779113E-02 -2.843925925E-02 1.282140535E-01
 4.275472729E-01 4.067648083E-01 -1.937230434E-01
 2.806759450E-02 -7.408796675E-02 8.970549376E-02
 5.478632723E-02 -4.549734259E-02 -1.213246108E-01
 1.982700240E-02 6.004498120E-02 -5.113317168E-03
 1.572826074E+00 3.097265271E-01 6.599935081E-04
 3.844422622E-01 1.047413659E-01 -4.018384291E-01
 3.694148052E-01 6.794647636E-02 -4.380974015E-01
 3.559829901E-01 1.055528846E-01 -3.924080883E-01
 6.625275229E-01 9.199853133E-02 -3.136545514E-01
 6.707297327E-01 5.896515380E-02 -3.274773020E-01
 6.984989658E-01 9.732438963E-02 -2.817664561E-01
 7.204057735E-01 1.249419832E-01 -2.456204831E-01
 7.364385018E-01 9.248833285E-02 -2.489619437E-01
 6.775529612E-02 -9.139992300E-02 -9.793049358E-02
 9.140283510E-02 -5.698048689E-02 -2.252560438E-01
 8.150683458E-02 -1.381289021E-01 -6.977645167E-02
 1.098600739E-01 -1.018824594E-01 -1.919456655E-01
 1.593423902E-01 -6.513961406E-02 -3.424998277E-01
 7.598618079E-01 5.143827645E-02 -2.451641218E-01
 1.292363050E-01 9.217724328E-02 -2.554106138E-01
 1.162481341E+00 -6.523325501E-02 8.996414473E-02
 1.088992827E+00 -1.238655862E-01 1.279833626E-01
 1.009449874E+00 -1.037453762E-01 1.891010699E-01
 1.042049886E+00 -2.051988686E-01 1.148734725E-01
 9.239268267E-01 -1.714665881E-01 1.432281262E-01
 8.297650252E-01 -2.187366494E-02 2.149641088E-01
 8.675635365E-01 -2.010818832E-02 2.576049389E-01
 1.157457776E+00 -2.172150273E-01 8.077035535E-02
 9.551079291E-01 -2.907153263E-01 8.775748449E-02
 8.354292067E-01 -2.616159628E-01 6.920127652E-02
 8.130985464E-01 -1.514153750E-01 1.058145931E-01
 7.345261302E-01 -3.426387869E-02 8.508062485E-02
 7.585394757E-01 -3.331450176E-02 1.180077962E-01
 7.313500235E-01 -2.165366692E-01 2.394863131E-02
 7.235139328E-01 -1.251765348E-01 3.864678402E-02
 6.395452847E-01 -5.104507028E-02 -5.823551517E-02
 6.410013106E-01 -1.725612312E-01 -5.884121717E-02
 6.400774096E-01 -2.487833816E-01 -6.245972443E-02
 5.527484884E-01 -2.077722989E-01 -1.457597163E-01
 5.442186275E-01 -3.163553536E-01 -1.060701533E-01
 4.440792275E-01 -2.514926320E-01 -2.015767977E-01
 4.830051454E-01 -1.702015225E-01 -2.355171397E-01
 4.690988271E-01 -7.611911951E-02 -3.727125198E-01
 3.693181674E-01 -1.898508310E-01 -2.883536129E-01
 3.926643220E-01 -7.812488154E-02 -4.772163461E-01
 3.403571381E-01 -2.920845974E-01 -1.895002631E-01
 8.793131055E-01 -9.806953940E-02 1.891584919E-01
 5.374158509E-01 -1.361669109E-01 -1.995635644E-01
 5.455652087E-01 -6.635761626E-02 -2.243524221E-01
 7.804665775E-01 -8.570630400E-02 1.166665710E-01
 6.590592156E-01 -1.053459057E-01 -3.642123665E-02
 4.044259219E-01 -1.391031833E-01 -3.520638969E-01
 4.908567785E-01 -1.147044218E-01 -2.862328136E-01
 2.890861720E-01 -2.119379162E-01 -2.536008766E-01
 3.131010851E-01 -1.512018189E-01 -3.451536176E-01
 3.234038736E-01 -8.419275435E-02 -4.724459126E-01
 2.532091140E-01 -1.396610086E-01 -3.363365268E-01
 4.320784671E-01 -3.845934837E-01 -1.175526761E-01
 7.026814212E-01 -8.403750386E-02 2.715624111E-02
 7.062636894E-01 -3.984843309E-02 4.495677803E-02
 6.086135693E-01 -1.199524185E-01 -9.665898793E-02
 6.263489413E-01 -9.029763486E-02 -7.884440170E-02
 6.135920205E-01 -5.354530603E-02 -9.608060128E-02
 1.094598859E+00 -3.963855823E-01 5.878858683E-02
 5.224490939E-01 -1.041178513E-01 -2.484799978E-01
 2.935265366E-01 -1.187100334E-01 -3.874866706E-01
 2.635623357E-01 -7.993791712E-02 -4.389593076E-01
 5.196971338E-01 -6.854504424E-02 -2.799252288E-01
 3.594568797E-01 6.752769099E-02 -4.334762744E-01
 1.623122874E-01 9.192267147E-02 -2.849365105E-01
 1.973127481E-01 1.204838769E-01 -2.885204570E-01
 1.996473636E-01 8.588145728E-02 -3.273306380E-01
 2.112114558E-01 5.790915972E-02 -3.672453382E-01
 1.017568347E+00 4.354643223E-02 1.132562974E-01
 3.905932020E-01 8.297447898E-02 -4.258078336E-01
 4.100668070E-01 9.599965135E-02 -4.166713759E-01
 4.266517237E-01 7.927649300E-02 -4.368327491E-01
 4.448428389E-01 9.465490371E-02 -4.163604873E-01
 4.723722560E-01 8.836521757E-02 -4.231163903E-01
 4.976494134E-01 9.242468349E-02 -4.168502481E-01
 1.289382783E+00 -3.671726130E-01 4.729339363E-02
 1.019308983E+00 -6.655784333E-01 2.872180998E-02
 1.423281003E+00 5.283930753E-01 -2.025464752E-02
 3.326662775E-01 7.040637606E-02 -4.223321125E-01
 4.931602610E-01 -7.183464731E-02 -3.293741535E-01
 5.044062375E-01 -8.602542064E-02 -2.897738244E-01
 4.832310704E-01 -8.591827443E-02 -3.303313135E-01
 4.607998988E-01 -9.235415553E-02 -3.624443616E-01
 2.316815154E-01 9.960148264E-02 -3.349270606E-01
 2.613381829E-01 6.658358433E-02 -3.905961835E-01
 2.645595735E-01 1.028848875E-01 -3.543454600E-01
 1.941763942E-01 6.960559794E-02 -3.425522042E-01
 2.956444556E-01 9.015026374E-02 -3.832325657E-01
 6.363054334E-01 6.202008271E-02 -3.584915076E-01
 6.447912898E-01 7.771213011E-02 -3.400193621E-01
 6.268217827E-01 7.532405487E-02 -3.562523211E-01
 6.067109545E-01 8.456214473E-02 -3.645607680E-01
 5.818707325E-01 8.492196073E-02 -3.862980218E-01
 5.610900568E-01 -6.445205731E-02 -1.936904309E-01
 5.557358762E-01 -8.189657344E-02 -1.945597091E-01
 5.739979044E-01 -7.469628641E-02 -1.669967173E-01
 5.978501646E-01 -7.827933200E-02 -1.243828062E-01
 5.342486632E-01 -8.179464630E-02 -2.409223252E-01
 5.597882512E-01 5.289419201E-01 -1.659616895E-01
 3.941658624E-01 6.942077624E-02 -4.441024102E-01
 6.731232579E-01 -7.224646846E-02 -1.003320908E-02
 5.042901741E-01 7.304647090E-02 -4.368879192E-01
 6.610145737E-01 7.005973572E-02 -3.293813790E-01
 5.326218734E-01 -6.579645238E-02 -2.518160857E-01
 6.820801931E-01 5.646420762E-02 -3.184866304E-01
 4.602092464E-01 7.445532310E-02 -4.421173407E-01
 7.196109680E-01 -4.006226817E-02 6.381663267E-02
 7.309507796E-01 -5.011150627E-02 7.507015858E-02
 4.442391328E-01 -7.838671270E-02 -4.143470115E-01
 4.391589913E-01 -9.371200170E-02 -3.972213397E-01
 4.154895085E-01 -9.831939076E-02 -4.107737102E-01
 3.859308368E-01 -1.143894356E-01 -4.083876104E-01
 4.468710130E-01 -1.252206776E-01 -3.308457154E-01
 3.745614563E-01 -9.423668493E-02 -4.547721177E-01
 3.561173994E-01 -1.043228423E-01 -4.350867088E-01
 3.583842620E-01 -1.349877121E-01 -3.806595348E-01
 3.272653844E-01 -1.106067759E-01 -4.164133446E-01
 3.048590920E-01 -9.315366465E-02 -4.444883744E-01
 2.757888196E-01 -9.774777819E-02 -4.141582179E-01
 2.520789439E-01 -9.434943219E-02 -4.020258554E-01
 2.277125352E-01 -9.477177547E-02 -3.766675028E-01
 2.032367565E-01 -1.322996263E-01 -2.921297751E-01
 2.165677571E-01 -7.631739380E-02 -3.976795392E-01
 2.040965195E-01 -9.287597075E-02 -3.569149246E-01
 1.778476761E-01 -8.191829982E-02 -3.425336148E-01
 3.407902201E-01 -8.969776649E-02 -4.654671243E-01
 7.519106970E-01 7.037182325E-02 -2.453177078E-01
 7.737938806E-01 6.456089526E-02 -2.275825716E-01
 6.031814580E-01 6.474012509E-02 -3.856317128E-01
 5.710218443E-01 -1.082406101E-01 -1.574244513E-01
 4.737862555E-01 7.106865232E-02 -4.449644795E-01
 7.106724576E-01 -3.623619077E-01 -1.195792239E-02
 8.855127111E-01 -4.229624325E-01 4.223654546E-02
 8.560652974E-01 3.338056603E-01 -1.193619885E-01
 5.642856848E-01 -5.074753840E-01 -5.608725664E-02
 5.561743279E-01 -7.255455619E-01 -3.899818934E-02
 6.808459096E-01 7.256682916E-02 -3.087311650E-01
 7.109272283E-01 7.154125768E-02 -2.827805218E-01
 6.600903719E-01 5.839834092E-02 -3.385485477E-01
 6.245345351E-01 -5.164836682E-02 -7.992068410E-02
 2.522777105E-01 -7.680973786E-02 -4.347666173E-01
 1.828372700E-01 -6.838522960E-02 -3.679691716E-01
 6.676501303E-01 -5.139971192E-02 -1.341728693E-02
 5.728490029E-01 -5.996497715E-02 -1.714605492E-01
 2.985613823E-01 6.882607851E-02 -4.093327238E-01
 3.205969634E-01 8.281868397E-02 -4.033862529E-01
 4.049986779E-01 -8.068514557E-02 -4.605693770E-01
 4.161591104E-01 -7.849730775E-02 -4.534322513E-01
 2.760691917E-01 -7.852493468E-02 -4.524482088E-01
 7.838972006E-01 4.785417144E-02 -2.245128870E-01
 7.922481897E-01 6.061682415E-02 -2.129033847E-01
 8.122424292E-01 6.042015255E-02 -1.924694964E-01
 8.411367135E-01 6.725341209E-02 -1.649088577E-01
 7.717727353E-01 4.739670894E-02 -2.357666571E-01
 7.471706506E-01 -4.314740923E-02 9.750324418E-02
 7.644660973E-01 -5.150757393E-02 1.164748368E-01
 7.390512000E-01 -7.078488262E-02 7.503512541E-02
 8.103755027E-01 -6.030408128E-02 1.628682073E-01
 8.088874565E-01 -2.480652096E-02 1.847684965E-01
 7.952977109E-01 -2.842507995E-02 1.674583878E-01
 8.737461426E-01 3.550260644E-02 -1.444205435E-01
 8.637326489E-01 5.315296369E-02 -1.433374988E-01
 8.892220141E-01 4.918657037E-02 -1.104732122E-01
 8.498398738E-01 4.909215880E-02 -1.616060134E-01
 8.682799728E-01 8.129122593E-02 -1.298527417E-01
 9.168682894E-01 5.630704574E-02 -6.616113172E-02
 9.424552032E-01 2.354786722E-02 -9.044472308E-03
 9.282489880E-01 3.752109660E-02 -4.254792554E-02
 9.429152821E-01 6.585481274E-02 -1.679123977E-02
 9.579619745E-01 3.874758072E-02 2.857485117E-02
 9.832820815E-01 3.677188417E-02 8.301667913E-02
 9.548860219E-01 1.950955442E-02 3.112195319E-02
 5.212709151E-01 8.101379995E-02 -4.198183508E-01
 5.499817332E-01 8.937561294E-02 -3.955332795E-01
 2.695670901E-01 -4.324952650E-01 -1.022472379E-01
 6.922288629E-01 -4.200566944E-02 2.615298111E-02
 6.885288719E-01 -5.869263801E-02 1.629623573E-02
 7.113308276E-01 -5.507755735E-02 4.846395365E-02
 1.718453842E-01 -6.784392420E-02 -3.525337672E-01
 4.567384680E-01 -7.510528965E-02 -3.955681661E-01
 8.850662897E-01 3.163804133E-02 -1.305079388E-01
 1.477157130E-01 -6.567673622E-02 -3.252649850E-01
 1.588400142E-01 -7.752308060E-02 -3.220051148E-01
 1.603364524E-01 -1.044594823E-01 -2.767305887E-01
 1.382474910E-01 -1.504283960E-01 -1.959464013E-01
 2.053009880E-01 -7.319194265E-02 -3.917220488E-01
 -1.196046287E-01 2.677323172E-01 4.123373073E-02
 1.422763591E+00 -1.125169427E-01 3.763773571E-02
 8.409492620E-01 -1.845734606E-02 2.315015823E-01
 8.414886668E-01 -3.195321732E-02 2.186005058E-01
 8.214198729E-01 -3.566414831E-02 1.926517615E-01
 7.908278477E-01 8.471534793E-02 -2.035211499E-01
 6.252430671E-01 6.101875881E-02 -3.698047452E-01
 6.520378542E-01 -4.883737773E-02 -3.444777858E-02
 6.486793082E-01 -6.783657940E-02 -4.180247257E-02
 9.302080488E-01 2.259560568E-02 -3.543672743E-02
 9.209463943E-01 2.366301327E-02 -6.353382767E-02
 8.045159440E-01 -3.945823847E-02 1.697158710E-01
 7.869944495E-01 -4.620036045E-02 1.447982073E-01
 6.023876004E-01 -5.915137802E-02 -1.173695706E-01
 5.908952240E-01 1.161632611E-01 -3.511284622E-01
 2.555511451E+00 2.084534749E-01 6.287477606E-03
 5.251889890E-01 6.767209836E-02 -4.353515649E-01
 3.821619130E-01 6.926265113E-02 -4.405197648E-01
 8.478255247E-01 3.687993454E-02 -1.725079197E-01
 5.654309591E-02 7.673077919E-02 -1.517207715E-01
 -2.071859632E-02 -3.141002910E-02 5.068870941E-01
 1.582334566E-03 -1.462026457E-02 5.736441244E-01
 -2.365174836E-02 -6.517789102E-03 7.171845327E-01
 -1.014833674E-02 1.533786903E-02 5.607414662E-01
 2.221815448E-01 6.203477984E-02 -3.710212164E-01
 2.285169573E-01 -7.540704319E-02 -4.112139932E-01
 4.808946905E-01 -7.246002605E-02 -3.560496271E-01
 7.092916992E-01 5.447161372E-02 -2.918652795E-01
 8.190793070E-01 -2.130350445E-02 2.008022017E-01
 1.631286915E+00 -1.184617200E-01 2.512414561E-02
 9.482460307E-04 -3.970743623E-02 3.786693024E-01
 1.755265422E-02 -5.126045888E-02 1.700164700E-01
 1.359584432E-01 -7.774901202E-02 -2.764467731E-01
 7.326053101E-01 5.237901096E-02 -2.710422851E-01
 1.376307227E-01 -6.265673968E-02 -3.124270761E-01
 8.130088832E-02 7.022850385E-02 -2.171371160E-01
 5.902445505E-02 5.487121182E-02 -1.989443054E-01
 8.885939322E-02 5.305411724E-02 -2.629624160E-01
 3.920340813E-01 -9.120113082E-02 -4.450013769E-01
 6.771816620E-02 -2.641953206E-01 -2.310027818E-02
 5.780686992E-01 6.664992976E-02 -4.037509114E-01
 7.719396331E-01 -3.278872436E-02 1.346683209E-01
 2.859051802E-01 4.034468636E-01 -1.801280557E-01
 1.011268832E+00 -4.823516466E-02 2.182053307E-01
 9.718720704E-01 -6.586672652E-02 2.490376234E-01
 9.302479769E-01 -9.773960447E-03 3.136640577E-01
 8.526984722E-01 -2.072780413E-02 2.418848365E-01
 8.605398893E-01 -3.740999531E-02 2.318842411E-01
 8.814972414E-01 -3.557684838E-02 2.533492132E-01
 8.438791036E-01 -5.967615336E-02 1.978906185E-01
 8.259921517E-01 -9.302353123E-02 1.532703801E-01
 8.751125285E-01 -5.715211020E-02 2.248958958E-01
 9.051963065E-01 -5.249496433E-02 2.453369670E-01
 9.321838655E-01 -9.103005295E-02 2.042817477E-01