TITLE     = "Visualization of the solution"
VARIABLES = "x"
"y"
"Pressure_Coefficient"
ZONE T="Zone"
 STRANDID=0, SOLUTIONTIME=0
 Nodes=705, Elements=1195, ZONETYPE=FEQuadrilateral
 DATAPACKING=POINT
 DT=(DOUBLE DOUBLE DOUBLE )
 1.000362635E+00 5.227930378E-04 2.050103120E-01
 9.878344536E-01 2.926742192E-03 2.267282183E-01
 9.756349325E-01 5.296486430E-03 1.115578698E-01
 9.603158236E-01 8.231597953E-03 6.744418378E-02
 9.463424683E-01 1.090845186E-02 1.822551640E-02
 9.331636429E-01 1.349684782E-02 -2.571535383E-02
 9.215357304E-01 1.564881578E-02 -4.841296815E-02
 9.095189571E-01 1.787277311E-02 -8.284307028E-02
 8.980434537E-01 1.997397281E-02 -1.101301797E-01
 8.862034678E-01 2.204165049E-02 -1.324185044E-01
 8.743560314E-01 2.406070568E-02 -1.567247029E-01
 8.625414968E-01 2.600829862E-02 -1.781236800E-01
 8.505100608E-01 2.791373618E-02 -1.907593533E-01
 8.392000198E-01 2.961477265E-02 -1.991779937E-01
 8.278344274E-01 3.131300583E-02 -2.122305825E-01
 8.154747486E-01 3.310736269E-02 -2.255125766E-01
 8.028156757E-01 3.490622714E-02 -2.394379475E-01
 7.904331088E-01 3.660754859E-02 -2.510336829E-01
 7.778286934E-01 3.829704225E-02 -2.609408606E-01
 7.656337619E-01 3.989462927E-02 -2.777292535E-01
 7.522537112E-01 4.163058847E-02 -2.932070439E-01
 7.382026315E-01 4.334877431E-02 -3.031637767E-01
 7.270271182E-01 4.468569160E-02 -3.147037384E-01
 7.153816819E-01 4.604946822E-02 -3.260767609E-01
 7.034782767E-01 4.740120843E-02 -3.403128102E-01
 6.899199486E-01 4.889789224E-02 -3.529395230E-01
 6.764478087E-01 5.030566826E-02 -3.630172121E-01
 6.657103896E-01 5.139425397E-02 -3.770565209E-01
 6.539118886E-01 5.255524814E-02 -3.902832375E-01
 6.423252821E-01 5.363015458E-02 -3.972877588E-01
 6.300527453E-01 5.470414460E-02 -4.121883435E-01
 6.184597015E-01 5.570112541E-02 -4.193602322E-01
 6.073910594E-01 5.654548854E-02 -4.268992611E-01
 5.949447155E-01 5.749752373E-02 -4.405533402E-01
 5.830159187E-01 5.831448361E-02 -4.467431600E-01
 5.693501234E-01 5.917855352E-02 -4.567751235E-01
 5.565886497E-01 5.991311371E-02 -4.615251492E-01
 5.438144207E-01 6.055834889E-02 -4.668722918E-01
 5.324315429E-01 6.108602136E-02 -4.699641431E-01
 5.203253031E-01 6.157165021E-02 -4.753718372E-01
 5.078119040E-01 6.202568859E-02 -4.807371418E-01
 4.965469837E-01 6.234254315E-02 -4.807099390E-01
 4.831712842E-01 6.266157329E-02 -4.808940297E-01
 4.700058699E-01 6.287688762E-02 -4.788014368E-01
 4.559679031E-01 6.303856522E-02 -4.799035186E-01
 4.424607754E-01 6.311470270E-02 -4.781544048E-01
 4.296438098E-01 6.310866773E-02 -4.746847392E-01
 4.167259634E-01 6.303543597E-02 -4.763941056E-01
 4.046248496E-01 6.291534752E-02 -4.722549200E-01
 3.920717835E-01 6.269464642E-02 -4.680586269E-01
 3.799841404E-01 6.245179102E-02 -4.678940223E-01
 3.683512509E-01 6.214689091E-02 -4.639998502E-01
 3.551152349E-01 6.173262373E-02 -4.577326452E-01
 3.425841331E-01 6.126194075E-02 -4.536960490E-01
 3.301861286E-01 6.076007336E-02 -4.523083330E-01
 3.193542361E-01 6.024802476E-02 -4.443712674E-01
 3.068582416E-01 5.960474908E-02 -4.409417841E-01
 2.939223647E-01 5.888430774E-02 -4.376013111E-01
 2.803035378E-01 5.803028867E-02 -4.316856096E-01
 2.678808868E-01 5.717862397E-02 -4.261182831E-01
 2.563243508E-01 5.632872507E-02 -4.211727436E-01
 2.439388037E-01 5.535211787E-02 -4.137340087E-01
 2.317257673E-01 5.431816727E-02 -4.076854749E-01
 2.194993794E-01 5.321747810E-02 -4.018407627E-01
 2.079802305E-01 5.210476369E-02 -3.940809381E-01
 1.961046457E-01 5.088393763E-02 -3.862119494E-01
 1.839825213E-01 4.956924170E-02 -3.809428606E-01
 1.721814275E-01 4.820826650E-02 -3.743428906E-01
 1.607363224E-01 4.679987952E-02 -3.634301220E-01
 1.487481594E-01 4.523860291E-02 -3.570784774E-01
 1.378382593E-01 4.373541474E-02 -3.468762671E-01
 1.262335181E-01 4.203415662E-02 -3.365938855E-01
 1.149322987E-01 4.027829692E-02 -3.286458460E-01
 1.041089296E-01 3.849382699E-02 -3.211271861E-01
 9.426777065E-02 3.676376119E-02 -3.109546248E-01
 8.316585422E-02 3.468675539E-02 -2.990606056E-01
 7.155226171E-02 3.233894333E-02 -2.876278434E-01
 6.172246113E-02 3.017793596E-02 -2.714852109E-01
 5.215943232E-02 2.791168354E-02 -2.619570873E-01
 4.363610968E-02 2.569757216E-02 -2.459799199E-01
 3.615116701E-02 2.357385308E-02 -2.414913177E-01
 2.957945131E-02 2.152012102E-02 -2.056456306E-01
 2.406566963E-02 1.963329315E-02 -1.892086736E-01
 2.002905868E-02 1.811298542E-02 -1.455856723E-01
 1.625402644E-02 1.655611396E-02 -1.501276563E-01
 1.336615626E-02 1.525472011E-02 -1.049649007E-01
 1.072325464E-02 1.394924708E-02 -8.704431084E-02
 8.760659955E-03 1.288214605E-02 -9.421277209E-02
 7.039122283E-03 1.185869239E-02 1.300528127E-02
 5.449792836E-03 1.082382724E-02 7.651104488E-02
 3.361446317E-03 9.258382022E-03 1.163655965E-01
 1.610777690E-03 7.673743181E-03 1.303432537E-01
 1.947453566E-04 6.046602037E-03 5.024327325E-01
 -1.125118113E-03 3.832828719E-03 7.104071997E-01
 -1.700179768E-03 2.081901301E-03 9.363627180E-01
 -1.872436842E-03 6.519199815E-04 1.233370826E+00
 -1.766574685E-03 -9.679896757E-04 9.964538328E-01
 -1.303451718E-03 -2.730255481E-03 1.622794430E+00
 -3.468055802E-04 -4.754016176E-03 8.328386113E-01
 1.125466311E-03 -6.883042399E-03 9.033499574E-01
 3.127788426E-03 -9.076944552E-03 5.957009266E-01
 4.990692250E-03 -1.075707376E-02 3.191288977E-01
 7.135760039E-03 -1.243355870E-02 3.413129234E-01
 8.845565841E-03 -1.362881716E-02 2.893198200E-01
 1.093497500E-02 -1.496946253E-02 2.312580327E-01
 1.333189290E-02 -1.637105085E-02 1.761608396E-01
 1.659299247E-02 -1.809544675E-02 8.569809224E-02
 1.965103671E-02 -1.957344078E-02 4.933407878E-02
 2.345705219E-02 -2.125744149E-02 1.521184521E-02
 2.864506468E-02 -2.333680540E-02 -4.443934107E-02
 3.415500745E-02 -2.532897331E-02 -7.050860498E-02
 4.092793912E-02 -2.753821574E-02 -1.130525238E-01
 4.824019596E-02 -2.969973162E-02 -1.457864205E-01
 5.690761656E-02 -3.202265128E-02 -1.714466428E-01
 6.556116790E-02 -3.414228559E-02 -2.014915540E-01
 7.553596795E-02 -3.638312221E-02 -2.184196016E-01
 8.521657437E-02 -3.837565333E-02 -2.381628153E-01
 9.535528719E-02 -4.031154513E-02 -2.497853912E-01
 1.062259227E-01 -4.224700853E-02 -2.640808290E-01
 1.175098196E-01 -4.411168024E-02 -2.762663565E-01
 1.290590167E-01 -4.589322954E-02 -2.860524707E-01
 1.398638189E-01 -4.744695127E-02 -3.028523487E-01
 1.511386633E-01 -4.897534475E-02 -3.122483771E-01
 1.632232219E-01 -5.050634593E-02 -3.214024122E-01
 1.749453992E-01 -5.189177766E-02 -3.338673498E-01
 1.869634688E-01 -5.321937799E-02 -3.443824337E-01
 1.978001595E-01 -5.432811752E-02 -3.549724174E-01
 2.092494220E-01 -5.542770773E-02 -3.642561324E-01
 2.215579748E-01 -5.651262775E-02 -3.751042534E-01
 2.337891459E-01 -5.749963596E-02 -3.854372194E-01
 2.460708916E-01 -5.839487538E-02 -3.942959796E-01
 2.586363554E-01 -5.922617391E-02 -4.052738380E-01
 2.699973583E-01 -5.986982211E-02 -4.150713763E-01
 2.827253342E-01 -6.051264331E-02 -4.205869309E-01
 2.952110469E-01 -6.102412194E-02 -4.298724623E-01
 3.078762293E-01 -6.144252047E-02 -4.384046235E-01
 3.197642267E-01 -6.173185632E-02 -4.473834178E-01
 3.323585391E-01 -6.190692633E-02 -4.499661859E-01
 3.430668116E-01 -6.195886806E-02 -4.516503133E-01
 3.545579910E-01 -6.192265078E-02 -4.499829932E-01
 3.657137156E-01 -6.180299073E-02 -4.549573328E-01
 3.767226636E-01 -6.156443805E-02 -4.540313497E-01
 3.883755505E-01 -6.121178716E-02 -4.470102737E-01
 4.012005627E-01 -6.067182496E-02 -4.378360431E-01
 4.135814607E-01 -6.002179161E-02 -4.233811221E-01
 4.266714752E-01 -5.922314525E-02 -4.129781474E-01
 4.390115142E-01 -5.831140280E-02 -3.964780914E-01
 4.512883425E-01 -5.731417984E-02 -3.756369086E-01
 4.633384943E-01 -5.620214343E-02 -3.556122353E-01
 4.758141935E-01 -5.494062230E-02 -3.277700902E-01
 4.877569079E-01 -5.365370587E-02 -3.021118026E-01
 5.002617836E-01 -5.224631354E-02 -2.804089760E-01
 5.138179064E-01 -5.058918893E-02 -2.536007397E-01
 5.270022750E-01 -4.889993370E-02 -2.203033143E-01
 5.401234031E-01 -4.718317091E-02 -1.935131246E-01
 5.531038046E-01 -4.542049021E-02 -1.706925297E-01
 5.663205385E-01 -4.355798289E-02 -1.406937587E-01
 5.795858502E-01 -4.169891030E-02 -1.166015099E-01
 5.918908119E-01 -3.989553079E-02 -9.381157457E-02
 6.046565175E-01 -3.804047033E-02 -6.662564103E-02
 6.183199883E-01 -3.603396192E-02 -4.672876677E-02
 6.324851513E-01 -3.393632174E-02 -2.152689365E-02
 6.470006704E-01 -3.181639314E-02 -6.834178968E-04
 6.600555778E-01 -2.989071049E-02 1.729182062E-02
 6.736115217E-01 -2.789992653E-02 3.828284284E-02
 6.864238977E-01 -2.604243346E-02 5.674293322E-02
 6.989387274E-01 -2.424251288E-02 7.059957576E-02
 7.132761478E-01 -2.215247415E-02 9.287126825E-02
 7.266536951E-01 -2.030248754E-02 1.100796183E-01
 7.381632924E-01 -1.864915155E-02 1.241971253E-01
 7.514087558E-01 -1.682548784E-02 1.481889755E-01
 7.641698718E-01 -1.514503919E-02 1.583223769E-01
 7.772504687E-01 -1.340157352E-02 1.743636072E-01
 7.895449996E-01 -1.185952593E-02 1.921712618E-01
 8.021793962E-01 -1.028227620E-02 2.035387573E-01
 8.132265806E-01 -8.945466951E-03 2.230450553E-01
 8.248314857E-01 -7.637242787E-03 2.338980982E-01
 8.372381926E-01 -6.270204671E-03 2.446129218E-01
 8.492093086E-01 -4.992547445E-03 2.636772805E-01
 8.614701033E-01 -3.807614790E-03 2.786625483E-01
 8.726728559E-01 -2.809170634E-03 2.895318739E-01
 8.841547966E-01 -1.887691906E-03 2.999904247E-01
 8.971663117E-01 -9.831729112E-04 3.074304386E-01
 9.075200558E-01 -3.751833574E-04 3.177226852E-01
 9.180217981E-01 1.496712939E-04 3.245781357E-01
 9.280415177E-01 5.386440898E-04 3.295793964E-01
 9.375122190E-01 8.130450733E-04 3.322570113E-01
 9.497346878E-01 1.041970565E-03 3.221362395E-01
 9.630101919E-01 1.133565675E-03 3.470824103E-01
 9.765664339E-01 1.061468967E-03 3.218165858E-01
 9.890790582E-01 8.456231444E-04 3.459707772E-01
 -5.000000000E-01 -1.000000000E+00 2.561023233E-02
 3.500000000E+00 -1.000000000E+00 1.528263988E-02
 3.500000000E+00 1.000000000E+00 1.012645249E-03
 -5.000000000E-01 1.000000000E+00 -3.912660025E-03
 -5.000000000E-01 5.000000000E-01 3.243101627E-02
 -5.000000000E-01 2.752797990E-12 9.213295856E-02
 -5.000000000E-01 -5.000000000E-01 5.796854336E-02
 -9.421907698E-13 -1.000000000E+00 1.463864779E-02
 5.000000000E-01 -1.000000000E+00 -8.431951473E-03
 1.000000000E+00 -1.000000000E+00 1.122020489E-02
 1.500000000E+00 -1.000000000E+00 2.914417165E-02
 2.000000000E+00 -1.000000000E+00 2.621172612E-02
 2.500000000E+00 -1.000000000E+00 1.939160620E-02
 3.000000000E+00 -1.000000000E+00 1.585624683E-02
 3.500000000E+00 -5.000000000E-01 1.802940270E-02
 3.500000000E+00 -2.752797990E-12 1.761715735E-02
 3.500000000E+00 5.000000000E-01 7.996506292E-03
 3.000000000E+00 1.000000000E+00 -1.685250502E-03
 2.500000000E+00 1.000000000E+00 -7.635991137E-03
 2.000000000E+00 1.000000000E+00 -2.123544444E-02
 1.500000000E+00 1.000000000E+00 -5.695532460E-02
 1.000000000E+00 1.000000000E+00 -9.965234104E-02
 5.000000000E-01 1.000000000E+00 -9.210256487E-02
 1.733724275E-12 1.000000000E+00 -2.926047463E-02
 6.806657528E-01 -4.019869428E-02 4.292952505E-02
 7.839338554E-01 -2.466792187E-02 1.755452135E-01
 9.041104387E-01 -1.435438381E-02 2.957550587E-01
 6.996272209E-01 5.961468372E-02 -3.354286787E-01
 2.747750698E-01 -7.178415980E-02 -3.960004050E-01
 2.718744369E-01 6.941324407E-02 -4.133223315E-01
 9.042693097E-01 2.803091871E-02 -9.077638001E-02
 7.984984979E-01 4.936304706E-02 -2.365028400E-01
 5.759991737E-01 -6.009586435E-02 -1.209941679E-01
 6.031290135E-01 7.242468795E-02 -4.155737122E-01
 4.081635792E-01 -7.180234019E-02 -4.064830759E-01
 4.352731998E-01 7.626719258E-02 -4.631838923E-01
 1.839835562E+00 -5.948609757E-01 2.672371121E-02
 1.780342030E+00 6.385902692E-01 -1.824734804E-02
 3.031172113E+00 2.156856557E-01 1.004154923E-02
 7.732907004E-01 -5.646002814E-01 1.728769475E-02
 4.821016629E-01 -6.682614818E-02 -3.006871319E-01
 3.349710814E-01 -6.906324106E-01 -2.672380658E-02
 1.245381459E-01 -5.703142752E-02 -2.599222471E-01
 1.794197724E-01 -6.170664838E-02 -3.222760291E-01
 7.398018127E-01 5.486653337E-01 -1.419477734E-01
 5.136153994E-01 7.120972441E-02 -4.662868389E-01
 3.054626958E-01 6.975633563E-01 -1.052112123E-01
 1.054790485E-01 5.168233973E-02 -2.936501014E-01
 1.632322319E-01 5.896153602E-02 -3.481465966E-01
 3.626821174E-01 7.394042261E-02 -4.478053808E-01
 2.734856207E+00 -5.326833072E-01 1.553280972E-02
 1.177869532E+00 6.304487205E-01 -5.651864832E-02
 9.973094485E-01 3.560241217E-01 -6.671216235E-02
 1.256241078E+00 -6.545089693E-01 3.766206425E-02
 1.492967573E+00 -2.539881183E-01 3.602938279E-02
 2.249524311E+00 -5.878581092E-01 1.817987951E-02
 1.990687285E+00 -2.100296087E-01 1.618727027E-02
 2.414622480E+00 -1.861096886E-01 1.127244840E-02
 2.184647652E+00 1.582908260E-01 5.668134660E-03
 1.804240404E+00 1.135481334E-01 6.873623829E-03
 -2.683572280E-01 2.170724095E-01 8.108080477E-02
 -9.608831905E-02 6.297388709E-01 -2.446013562E-02
 2.808346921E-02 3.291585821E-01 -5.819122903E-02
 4.398846625E-02 3.581620527E-02 -1.863515763E-01
 -2.710269119E-01 -2.366805266E-01 1.064151651E-01
 -1.460051020E-01 -6.012448561E-01 2.306932548E-02
 1.118118718E-01 -3.806246418E-01 -3.047141088E-02
 2.225645734E+00 5.669444240E-01 -4.172128223E-03
 2.743770677E+00 5.981433495E-01 2.623752691E-03
 -2.342228610E-01 -7.070305319E-03 1.512193925E-01
 -1.345566003E-01 1.004603368E-01 1.428187303E-01
 -1.188735498E-01 -1.421168512E-01 1.547664730E-01
 6.819301824E-02 -4.308537509E-02 -1.709599002E-01
 4.337974521E-02 -3.699332591E-02 -8.492971276E-02
 -7.991249436E-02 -3.222460753E-01 5.004363548E-02
 -2.320714283E-03 -1.828597911E-01 6.053678353E-02
 1.765562966E-01 -2.188178655E-01 -1.476295671E-01
 3.393938129E-01 -7.368558971E-02 -4.252029339E-01
 3.694161078E-01 -7.198524512E-02 -4.311519081E-01
 3.123643848E-01 -7.129791698E-02 -4.223736995E-01
 2.283098964E-01 -7.124031592E-02 -3.574355709E-01
 -3.701916428E-02 -9.785657272E-02 2.331879574E-01
 1.988655479E-02 -2.418726472E-02 1.069447972E-01
 -1.093245734E-01 -2.381863027E-02 2.732362558E-01
 -7.254018920E-02 5.703143372E-02 2.724118043E-01
 3.676383527E-02 -1.109642761E-01 2.991502217E-02
 3.109365120E+00 -2.612676002E-01 1.563107369E-02
 5.919995126E-03 -6.886283568E-02 2.142708611E-01
 -3.985064428E-02 -4.136534677E-02 4.187676711E-01
 -5.260048835E-02 7.482429276E-03 4.047830252E-01
 -3.257377709E-02 4.313874532E-02 2.994817387E-01
 2.355373356E-02 2.558093131E-02 -1.133172060E-01
 -4.112259494E-02 1.077794015E-01 1.274828686E-01
 2.705236783E-02 9.184316049E-02 -1.785004055E-02
 7.482129702E-02 4.475031695E-02 -2.584177172E-01
 1.109186571E-02 1.605427344E-01 9.350683576E-03
 7.104386099E-02 1.329923737E-01 -1.243268281E-01
 6.803504627E-02 8.740055206E-02 -1.582625858E-01
 1.127916264E-01 9.607145856E-02 -2.304211556E-01
 2.124952775E-01 6.561249128E-02 -3.806106928E-01
 1.338877288E-01 1.481311329E-01 -2.079270177E-01
 2.357622824E-01 6.570145429E-02 -3.943467916E-01
 1.903291492E-01 6.370914785E-02 -3.668504614E-01
 1.315046546E-01 5.297459493E-02 -3.269009692E-01
 1.603996437E-01 1.048613546E-01 -2.910177706E-01
 1.934382157E-01 1.498438692E-01 -2.767315418E-01
 1.707569108E-01 2.051927090E-01 -2.161433655E-01
 2.503259244E-01 2.111896086E-01 -2.692909291E-01
 1.943621903E-01 3.124759629E-01 -1.786316823E-01
 3.230920483E-01 2.774523646E-01 -2.616845254E-01
 3.780398717E-01 2.089720922E-01 -3.193929200E-01
 3.993554304E-01 7.228094867E-02 -4.596890799E-01
 4.380279673E-01 2.827748440E-01 -2.789594087E-01
 4.765439719E-01 1.826517965E-01 -3.552887399E-01
 4.789630554E-01 7.900566069E-02 -4.607204846E-01
 5.399486903E-01 2.551510139E-01 -2.874251417E-01
 5.784458383E-01 1.773042645E-01 -3.328942384E-01
 6.501289701E-01 6.426198867E-02 -3.811457836E-01
 6.733931362E-01 6.005522343E-02 -3.614154030E-01
 5.500558436E-01 7.215419702E-02 -4.504323855E-01
 6.374613273E-01 2.437441340E-01 -2.655714826E-01
 6.774810728E-01 1.739267951E-01 -2.802717573E-01
 7.472585948E-01 5.545386354E-02 -2.896702849E-01
 7.225734845E-01 5.755479551E-02 -3.128302201E-01
 7.316254824E-01 2.065759794E-01 -2.313551471E-01
 7.603591706E-01 1.475590004E-01 -2.306755726E-01
 8.563996861E-01 4.071302650E-02 -1.711297137E-01
 8.360989195E-01 4.159405299E-02 -1.970506699E-01
 5.298054136E-01 3.876315931E-01 -2.226898273E-01
 8.133105827E-01 2.010605131E-01 -1.713683710E-01
 8.409736495E-01 1.304478656E-01 -1.622625735E-01
 3.010490924E-01 1.458998720E-01 -3.486763995E-01
 3.244763665E-01 7.278478047E-02 -4.362737776E-01
 2.997770586E-01 7.025563335E-02 -4.272185548E-01
 4.144454532E-01 1.527244420E-01 -3.771551477E-01
 5.274990240E-01 1.417841069E-01 -3.827265467E-01
 2.484485454E-01 1.220204640E-01 -3.382420472E-01
 6.128679029E-01 1.319726035E-01 -3.535767374E-01
 8.952878436E-01 1.837928232E-01 -9.594501750E-02
 9.715188235E-01 1.979103623E-02 9.382555564E-02
 9.418607120E-01 2.293378865E-02 1.596392720E-03
 9.269197092E-01 1.154836777E-01 -6.049409936E-02
 9.790981812E-01 1.771829079E-01 -3.080307959E-02
 1.081721227E+00 2.276571692E-01 -1.196522789E-02
 1.105862466E+00 9.711351692E-02 5.663664681E-02
 1.241679151E+00 1.829702775E-01 1.670149235E-02
 1.007982901E+00 1.023484822E-01 3.088127851E-02
 1.242618121E+00 2.368888023E-02 5.226330335E-02
 1.127975298E+00 -2.987022144E-02 9.687373726E-02
 1.224439172E+00 -1.133175655E-01 7.118496935E-02
 1.080408407E+00 -1.406007649E-01 1.266338930E-01
 9.547190892E-01 -1.140160475E-02 3.174956852E-01
 9.330285782E-01 -8.691883409E-03 3.104023689E-01
 9.466720773E-01 -2.933001011E-02 2.943800835E-01
 1.184578728E+00 -2.560131458E-01 7.569003067E-02
 1.022534138E+00 -2.757788989E-01 9.576334667E-02
 9.591757128E-01 -1.665227254E-01 1.484526178E-01
 8.434794370E-01 -1.747367444E-02 2.447802388E-01
 8.830761444E-01 -2.659588730E-01 9.131006856E-02
 8.237931242E-01 -1.633922161E-01 1.217637910E-01
 7.468670620E-01 -2.564000777E-01 4.267263379E-02
 7.345713929E-01 -3.214817259E-02 1.154006674E-01
 7.110800136E-01 -1.718592001E-01 3.671145730E-02
 6.397158865E-01 -2.156905848E-01 -2.317724566E-02
 6.271868539E-01 -4.703424145E-02 -3.477410596E-02
 6.040347211E-01 -1.491779019E-01 -7.013350376E-02
 5.386631000E-01 -2.251020489E-01 -1.142755315E-01
 5.231992086E-01 -6.285003503E-02 -2.203790306E-01
 5.472383668E-01 -5.911945798E-02 -1.762434329E-01
 6.323212890E-01 -3.498160361E-01 -2.945473184E-02
 4.597250242E-01 -3.202334120E-01 -1.171484149E-01
 4.313666318E-01 -1.976172122E-01 -2.096365742E-01
 4.467384286E-01 -7.425054317E-02 -3.523755694E-01
 3.410249476E-01 -2.737465907E-01 -1.668958208E-01
 5.166389536E-01 -1.459345479E-01 -1.806926977E-01
 7.635740788E-01 -1.059639348E-01 1.078155994E-01
 3.280786600E-01 -1.779376452E-01 -2.561265428E-01
 8.890226271E-01 -1.042413399E-01 1.883890766E-01
 6.509630354E-01 -1.115936273E-01 -7.327543679E-03
 4.557183474E-01 -1.327260300E-01 -2.629606834E-01
 9.214179391E-01 -2.403008730E-02 2.902959728E-01
 9.331446512E-01 -5.157786284E-02 2.544464359E-01
 9.748504456E-01 -5.440206089E-02 2.450406254E-01
 9.845494153E-01 -9.721352688E-03 3.916503627E-01
 1.444045808E+00 1.100046127E-01 1.835046918E-02
 1.403815686E+00 3.102226801E-01 -1.289536435E-03
 8.800317158E-01 8.727154426E-02 -1.167002069E-01
 7.438353008E-01 3.001612456E-01 -1.904692826E-01
 7.953760140E-01 1.087826414E-01 -2.115589659E-01
 7.076364960E-01 1.149313029E-01 -2.912647766E-01
 5.625351694E-01 -1.060344315E-01 -1.309648622E-01
 9.418924731E-01 -4.284881271E-01 5.471928803E-02
 9.590408521E-01 6.694879364E-02 2.845681367E-03
 1.057945050E+00 -6.338362839E-02 1.604303572E-01
 7.493908014E-02 2.204354075E-01 -8.336461419E-02
 1.610809292E-01 4.856343590E-01 -9.825540720E-02
 1.062264865E+00 3.197900586E-03 1.231455752E-01
 9.989025485E-01 5.593411576E-02 8.030502414E-02
 9.841453675E-01 1.652184538E-02 1.235282938E-01
 -6.807956636E-02 2.222723019E-01 4.729771733E-02
 5.206518867E-01 -1.016829717E-01 -2.008056461E-01
 4.824052367E-01 -1.039112100E-01 -2.540578305E-01
 1.392070031E+00 -7.932241661E-02 3.885963682E-02
 2.014121174E-01 1.041365359E-01 -3.256319053E-01
 2.873969958E-01 1.077541804E-01 -3.830164009E-01
 3.296152932E-01 1.103770882E-01 -3.971015637E-01
 -8.079195500E-03 -4.046217753E-02 4.397836537E-01
 1.078725366E-02 -1.804570171E-02 2.889361333E-01
 5.131088405E-03 -1.334518371E-02 4.013225150E-01
 5.146728590E-01 -5.056605275E-01 -4.634876766E-02
 2.865903926E-01 7.143251378E-02 -4.201855219E-01
 3.476608626E-01 7.371901307E-02 -4.427985444E-01
 3.525587102E-01 9.045164600E-02 -4.253285052E-01
 3.754834315E-01 8.756375919E-02 -4.364389286E-01
 3.607133305E-01 1.110130228E-01 -4.084938587E-01
 3.340379972E-01 8.437954065E-02 -4.253142518E-01
 3.139330016E-01 8.801807396E-02 -4.125179815E-01
 3.128865265E-01 -4.334023116E-01 -8.315205592E-02
 -2.569434275E-02 -1.845753288E-02 5.984051392E-01
 3.942649559E-01 -1.404444419E-01 -3.056653162E-01
 3.431970376E-01 -1.208671609E-01 -3.339177688E-01
 2.864982336E-01 -1.337418996E-01 -3.113417241E-01
 2.645600447E-01 -2.287203357E-01 -1.921995591E-01
 4.175689022E-01 -1.074330860E-01 -3.341921783E-01
 4.501205995E-01 -9.870900648E-02 -3.111173413E-01
 3.795615728E-01 -1.060316153E-01 -3.599209331E-01
 4.259677881E-01 -8.409702174E-02 -3.672184667E-01
 4.685396549E-01 -8.015529417E-02 -3.083957929E-01
 3.976559940E-01 -8.586889498E-02 -3.867570605E-01
 4.216039496E-01 -6.893146926E-02 -3.991351163E-01
 5.079300160E-01 -6.528620793E-02 -2.505023812E-01
 3.103069649E-01 -1.073079617E-01 -3.526820772E-01
 1.005853258E+00 -1.006027215E-01 1.810793484E-01
 1.019061832E+00 -3.976397219E-02 2.055645505E-01
 4.696140951E-01 -6.506362146E-02 -3.267835592E-01
 9.803429741E-01 3.678410582E-02 8.106347959E-02
 1.003640654E+00 2.972704322E-02 1.506623178E-01
 1.033738813E+00 4.915535944E-02 1.173481975E-01
 9.570329325E-01 3.502209676E-02 2.804345719E-02
 9.309048900E-01 5.297769431E-02 -4.066650950E-02
 9.298076965E-01 3.440638449E-02 -3.407091060E-02
 9.161300133E-01 2.743137539E-02 -6.611285630E-02
 3.874149226E-01 7.441642959E-02 -4.550389311E-01
 3.022635836E-01 -7.094509833E-02 -4.175371458E-01
 2.885167570E-01 -7.178833348E-02 -4.073793751E-01
 2.821138716E-01 -9.309134634E-02 -3.616076105E-01
 2.522005423E-01 -7.112587598E-02 -3.811851104E-01
 2.504098120E-01 -1.113268917E-01 -3.228455025E-01
 3.357890976E-01 7.058106966E-02 -4.423355922E-01
 1.018732768E+00 5.204718923E-03 1.657797342E-01
 3.128797809E-01 7.018225232E-02 -4.335934496E-01
 8.938877659E-01 3.111061856E-02 -1.158277762E-01
 9.074203879E-01 4.285686629E-02 -7.939512012E-02
 8.836275662E-01 4.904693249E-02 -1.208692283E-01
 9.079325933E-01 7.418922496E-02 -7.661086211E-02
 8.587348889E-01 6.375153014E-02 -1.605649690E-01
 4.110048181E-01 7.423766767E-02 -4.604348182E-01
 3.986709539E-01 8.624703658E-02 -4.446702300E-01
 4.224562366E-01 9.456380160E-02 -4.358472175E-01
 4.449631015E-01 9.303165616E-02 -4.462050501E-01
 9.168197620E-01 -9.460373315E-03 3.086035357E-01
 9.027621008E-01 -3.391529851E-02 2.694073094E-01
 8.660998232E-01 -1.568751611E-02 2.673740777E-01
 8.884703290E-01 -1.792943168E-02 2.833581393E-01
 8.745121881E-01 -3.087747615E-02 2.560001302E-01
 4.511508737E-01 7.770680096E-02 -4.619373121E-01
 8.816420521E-01 3.230521930E-02 -1.385519914E-01
 8.545459799E-01 -1.448973799E-02 2.596640092E-01
 8.524712276E-01 -3.048733714E-02 2.376248859E-01
 8.210485862E-01 -2.043563428E-02 2.192984433E-01
 8.625168385E-01 -6.021416811E-02 2.189003494E-01
 8.328485236E-01 -5.310516099E-02 2.058227144E-01
 8.326155399E-01 -2.941901336E-02 2.226470644E-01
 8.127920345E-01 -3.528410543E-02 2.002294398E-01
 7.979988236E-01 -6.219294017E-02 1.645325318E-01
 8.314675570E-01 -9.179120069E-02 1.690484963E-01
 7.556416288E-01 -6.398010433E-02 1.219300382E-01
 7.223802961E-01 -7.815487338E-02 7.826117000E-02
 7.100023051E-01 -3.695426522E-02 8.214306039E-02
 7.593949545E-01 -2.834345860E-02 1.457972121E-01
 6.841684340E-01 -7.804475244E-02 3.558267139E-02
 6.535084861E-01 -4.887674702E-02 5.105558987E-03
 6.519569182E-01 -7.606050705E-02 -3.673492898E-03
 6.143510436E-01 -9.456863427E-02 -5.439385163E-02
 6.014554642E-01 -5.162350963E-02 -7.602831217E-02
 5.820740102E-01 -8.200053327E-02 -1.066196538E-01
 8.318426483E-01 -1.624715391E-02 2.327125100E-01
 5.598996070E-01 -5.621976155E-02 -1.517286340E-01
 5.607925030E-01 -7.290945931E-02 -1.449396232E-01
 5.378519233E-01 -7.656697522E-02 -1.837193292E-01
 5.177070726E-01 -8.021413604E-02 -2.197759136E-01
 4.964341948E-01 -8.032781686E-02 -2.617006756E-01
 5.885739659E-01 -5.232489643E-02 -9.843971359E-02
 5.350479722E-01 -5.939234740E-02 -1.993874846E-01
 3.747831726E-01 7.210385866E-02 -4.549254906E-01
 2.615365112E-01 -8.380381787E-02 -3.654794680E-01
 4.231238472E-01 7.383919585E-02 -4.644727417E-01
 8.695502869E-01 3.931428545E-02 -1.520976231E-01
 8.224469968E-01 4.422685917E-02 -2.111493543E-01
 8.332560324E-01 5.638650512E-02 -1.922945727E-01
 8.128832020E-01 5.833373671E-02 -2.157677496E-01
 8.257162884E-01 8.321906390E-02 -1.905566794E-01
 7.889667759E-01 7.035380228E-02 -2.342995389E-01
 7.582076692E-01 9.438468495E-02 -2.587249672E-01
 7.734545960E-01 5.321981225E-02 -2.598871679E-01
 7.260833526E-01 8.782590036E-02 -2.956201154E-01
 7.615099933E-01 6.835271997E-02 -2.663903744E-01
 8.104238242E-01 4.398744655E-02 -2.254497437E-01
 7.601188334E-01 5.170254811E-02 -2.768578654E-01
 7.855669812E-01 4.816612654E-02 -2.491904183E-01
 4.591067421E-01 -6.688943861E-02 -3.441210649E-01
 9.961632274E-01 1.248486435E-02 2.133458553E-01
 2.559341076E+00 2.060535355E-01 5.383848565E-03
 4.328003359E-01 -6.923226636E-02 -3.839919491E-01
 4.228140490E-02 -7.229115982E-02 -1.945302867E-02
 9.117923843E-02 -1.015037721E-01 -1.365475554E-01
 9.644648963E-02 -5.177277871E-02 -2.271743116E-01
 8.092706720E-01 -1.919756835E-02 2.086154890E-01
 7.985514736E-01 -2.303397931E-02 1.926212182E-01
 7.935878837E-01 -3.691247812E-02 1.794851046E-01
 7.732903373E-01 -4.053651072E-02 1.530516503E-01
 7.487985652E-01 -4.257406894E-02 1.272413090E-01
 7.279255539E-01 -4.918827876E-02 9.962476185E-02
 7.051115412E-01 -5.792909227E-02 6.851762594E-02
 6.713650543E-01 -5.590029491E-02 2.562710597E-02
 1.131288547E+00 -4.376347737E-01 5.799444408E-02
 1.029761759E+00 -6.224699348E-01 4.171382857E-02
 1.329675107E+00 -3.749908052E-01 4.717610586E-02
 1.632650101E+00 -7.579324871E-02 2.230555266E-02
 8.483681705E-01 5.134691944E-02 -1.795152730E-01
 3.566007260E-01 -9.824204726E-02 -3.839732587E-01
 3.336878554E-01 -9.160693311E-02 -3.909583652E-01
 3.543609062E-01 -8.061285318E-02 -4.124021748E-01
 5.246227565E-03 5.595973356E-02 1.095046962E-01
 2.416548847E-01 -8.279380685E-02 -3.525648763E-01
 2.189531141E-01 -9.027792472E-02 -3.244142548E-01
 2.038828411E-01 -6.388659020E-02 -3.464253583E-01
 1.899768674E-01 -9.385959853E-02 -2.839114939E-01
 2.128165540E-01 -1.284025913E-01 -2.548702406E-01
 1.630150552E-01 -1.339270921E-01 -2.148270484E-01
 1.533652818E-01 -9.006039122E-02 -2.502685943E-01
 1.435552729E-01 -5.750780393E-02 -2.850166219E-01
 1.004580678E-01 -1.610138661E-01 -9.164693447E-02
 2.531532668E-01 -1.664912048E-01 -2.440006170E-01
 7.249220704E-02 -2.565700565E-01 -2.146635899E-02
 2.147398662E-01 -6.953683615E-02 -3.462256470E-01
 1.915353778E-01 -6.772359598E-02 -3.273328248E-01
 1.299859940E-01 -1.068680498E-01 -1.826948242E-01
 6.245869281E-01 -7.521786439E-01 -1.678062307E-02
 8.463345006E-01 3.860105513E-02 -1.873237113E-01
 2.773170866E-01 8.665963811E-02 -3.962559280E-01
 2.573087829E-01 8.123159399E-02 -3.927322056E-01
 9.998975914E-01 -2.234673627E-02 2.867843962E-01
 1.490965384E-02 -4.314484301E-02 1.639806626E-01
 3.047107370E-02 -3.180805361E-02 -3.764611982E-03
 6.989646731E-01 8.855137934E-02 -3.187891651E-01
 9.479721428E-01 -9.494236859E-02 2.161655557E-01
 7.116325427E-01 7.118799056E-02 -3.147715271E-01
 7.373965529E-01 6.995527974E-02 -2.891744924E-01
 7.078525060E-02 -7.569693677E-02 -9.282259938E-02
 8.077778277E-02 -5.619009679E-02 -1.785128219E-01
 5.300681367E-02 -5.319963716E-02 -9.294459508E-02
 9.514440420E-02 -6.959912308E-02 -1.848834066E-01
 7.932696175E-01 -3.927210627E-01 4.048144799E-02
 5.962873541E-01 -6.787744151E-02 -8.291027814E-02
 6.148723389E-01 -6.193992203E-02 -5.398555119E-02
 1.324129753E+00 -2.171629156E-01 5.227575245E-02
 3.557040194E-01 1.506900132E-01 -3.672928234E-01
 6.867493232E-01 7.142980913E-02 -3.398584919E-01
 6.700068295E-01 9.285710107E-02 -3.406680289E-01
 6.345449834E-01 1.009333935E-01 -3.627753779E-01
 6.239016123E-01 6.404836708E-02 -4.070111988E-01
 6.061655007E-01 9.696130392E-02 -3.887173289E-01
 5.768137128E-01 6.971774897E-02 -4.384252437E-01
 6.370869556E-01 6.442797556E-02 -3.939779030E-01
 6.136566204E-01 6.570903225E-02 -4.120730308E-01
 6.218110629E-01 7.861415092E-02 -3.940894347E-01
 5.750062038E-01 1.253112602E-01 -3.827513258E-01
 5.488344888E-01 1.065139303E-01 -4.114809556E-01
 5.145776512E-01 1.085966765E-01 -4.214689626E-01
 4.870263746E-01 1.256998216E-01 -4.065008658E-01
 4.918030671E-01 9.625818136E-02 -4.393129745E-01
 5.774223842E-01 9.827056572E-02 -4.067788118E-01
 5.880601817E-01 8.164395581E-02 -4.183273892E-01
 5.644648684E-01 8.403593186E-02 -4.298881105E-01
 5.347387981E-01 8.643215749E-02 -4.389277555E-01
 7.224858190E-01 -3.214913565E-02 9.933073072E-02
 -2.729878693E-02 7.701483833E-03 6.685245323E-01
 -1.290787098E-02 2.697575482E-02 3.934053195E-01
 1.061437486E-02 1.692196861E-02 -8.295719578E-03
 4.739698292E-03 1.303483012E-02 1.982272042E-01
 9.320377108E-02 7.182662475E-02 -2.341180937E-01
 5.112495509E-02 6.673371527E-02 -1.225500621E-01
 3.181597550E-02 5.273218195E-02 -9.149157258E-02
 9.756965709E-03 3.564321002E-02 7.869274589E-02
 1.694446131E-02 2.023717874E-02 -1.048983218E-01
 5.742356289E-02 4.517531247E-02 -2.089345199E-01
 1.195376400E-02 2.433206500E-02 1.396917047E-02
 1.862455633E-03 2.220688990E-02 2.578597639E-01
 5.831847988E-04 9.453003236E-03 3.595917894E-01
 -8.169690960E-03 2.783977909E-03 9.047454354E-01
 -2.324509364E-03 6.082073351E-03 9.411130431E-01