TITLE     = "Visualization of the solution"
VARIABLES = "x"
"y"
"Pressure_Coefficient"
ZONE T="Zone"
 STRANDID=0, SOLUTIONTIME=0
 Nodes=693, Elements=1171, ZONETYPE=FEQuadrilateral
 DATAPACKING=POINT
 DT=(DOUBLE DOUBLE DOUBLE )
 9.998323321E-01 5.110147758E-04 2.328805735E-01
 9.856583476E-01 3.074874403E-03 1.790990537E-01
 9.723823071E-01 5.524820182E-03 1.129121772E-01
 9.566959739E-01 8.407981135E-03 4.947290865E-02
 9.427730441E-01 1.104270201E-02 9.227378256E-03
 9.287821651E-01 1.354349311E-02 -1.819100329E-02
 9.171037078E-01 1.562709175E-02 -4.395493389E-02
 9.044809341E-01 1.786473207E-02 -7.801592622E-02
 8.928744793E-01 1.993111707E-02 -1.015695830E-01
 8.802335262E-01 2.202101052E-02 -1.173272884E-01
 8.678294420E-01 2.407938428E-02 -1.415781268E-01
 8.558044434E-01 2.602865733E-02 -1.579724086E-01
 8.435386419E-01 2.795866318E-02 -1.725867212E-01
 8.322817087E-01 2.967892587E-02 -1.894342887E-01
 8.209088445E-01 3.140440956E-02 -2.003032828E-01
 8.083546758E-01 3.322109580E-02 -2.128765886E-01
 7.958988547E-01 3.503326699E-02 -2.301107613E-01
 7.841749191E-01 3.667587787E-02 -2.424247712E-01
 7.721132040E-01 3.833103180E-02 -2.549175636E-01
 7.604114413E-01 3.989698365E-02 -2.650151227E-01
 7.477509975E-01 4.155389220E-02 -2.797844203E-01
 7.345021963E-01 4.327760637E-02 -2.983117282E-01
 7.239151001E-01 4.460810870E-02 -3.107309675E-01
 7.127883434E-01 4.595952481E-02 -3.211024428E-01
 7.013297677E-01 4.732363671E-02 -3.343907037E-01
 6.879271269E-01 4.887422547E-02 -3.510457096E-01
 6.750654578E-01 5.031041056E-02 -3.668431772E-01
 6.648942828E-01 5.139371008E-02 -3.762946107E-01
 6.532912254E-01 5.258287489E-02 -3.896390486E-01
 6.420910358E-01 5.369582400E-02 -3.977125246E-01
 6.303166747E-01 5.478743836E-02 -4.124590721E-01
 6.191945672E-01 5.581562221E-02 -4.275880797E-01
 6.082472801E-01 5.672827363E-02 -4.320692213E-01
 5.958703756E-01 5.770815164E-02 -4.432588030E-01
 5.841865540E-01 5.858730152E-02 -4.546330476E-01
 5.706821084E-01 5.951269343E-02 -4.633275776E-01
 5.580268502E-01 6.029430032E-02 -4.701807525E-01
 5.455836654E-01 6.099131703E-02 -4.764196547E-01
 5.343189240E-01 6.155439839E-02 -4.821537346E-01
 5.226340294E-01 6.208465993E-02 -4.867864637E-01
 5.098379254E-01 6.257843226E-02 -4.903115386E-01
 4.986714423E-01 6.293944269E-02 -4.933185319E-01
 4.854836464E-01 6.329503655E-02 -4.925056907E-01
 4.721034765E-01 6.354853511E-02 -4.907554032E-01
 4.577153027E-01 6.376357377E-02 -4.931289382E-01
 4.439381361E-01 6.385843456E-02 -4.899163786E-01
 4.306322038E-01 6.386226416E-02 -4.878061757E-01
 4.174198806E-01 6.380574405E-02 -4.845877797E-01
 4.047873914E-01 6.366906315E-02 -4.810533631E-01
 3.919607401E-01 6.347168982E-02 -4.787324942E-01
 3.794462979E-01 6.319662184E-02 -4.751103576E-01
 3.679940403E-01 6.289654225E-02 -4.705290983E-01
 3.548022807E-01 6.247553602E-02 -4.655678864E-01
 3.425396979E-01 6.202781200E-02 -4.620636264E-01
 3.298503160E-01 6.149859726E-02 -4.601430813E-01
 3.191860020E-01 6.100019813E-02 -4.560542915E-01
 3.067882359E-01 6.034737453E-02 -4.490634434E-01
 2.935731113E-01 5.957845971E-02 -4.406667792E-01
 2.796499431E-01 5.869165063E-02 -4.352526247E-01
 2.671074271E-01 5.782336742E-02 -4.309946457E-01
 2.551018000E-01 5.692311749E-02 -4.220431680E-01
 2.424373925E-01 5.589694902E-02 -4.142299307E-01
 2.296361476E-01 5.479875579E-02 -4.100291090E-01
 2.173039466E-01 5.365598202E-02 -4.017973001E-01
 2.055205703E-01 5.249166116E-02 -3.956060251E-01
 1.940815747E-01 5.130048841E-02 -3.898764665E-01
 1.815290749E-01 4.990233108E-02 -3.796930512E-01
 1.695373058E-01 4.846907407E-02 -3.709145870E-01
 1.578858197E-01 4.701095819E-02 -3.648787248E-01
 1.460012943E-01 4.543378204E-02 -3.565932779E-01
 1.352615505E-01 4.391587526E-02 -3.463586203E-01
 1.238432229E-01 4.221218079E-02 -3.386125161E-01
 1.124973074E-01 4.041247070E-02 -3.282472743E-01
 1.019491106E-01 3.862632439E-02 -3.192032418E-01
 9.222499281E-02 3.687859699E-02 -3.105874447E-01
 8.131121844E-02 3.479283303E-02 -2.940681093E-01
 6.979933381E-02 3.240788355E-02 -2.789481027E-01
 6.027301028E-02 3.027396463E-02 -2.647511426E-01
 5.089335144E-02 2.800536342E-02 -2.553111260E-01
 4.231451824E-02 2.572452463E-02 -2.335135737E-01
 3.499800339E-02 2.359613776E-02 -2.163428531E-01
 2.855813690E-02 2.153598145E-02 -1.837950509E-01
 2.313445136E-02 1.962676458E-02 -1.646655099E-01
 1.920632832E-02 1.810642704E-02 -1.393770172E-01
 1.552004833E-02 1.653904095E-02 -1.303253530E-01
 1.279267855E-02 1.527485438E-02 -6.593016089E-02
 1.036892273E-02 1.404138841E-02 -1.603459756E-02
 8.589815348E-03 1.305748150E-02 -1.552550193E-02
 6.975309458E-03 1.208737586E-02 -3.978239410E-02
 5.467764102E-03 1.109076198E-02 6.940975934E-02
 3.488190006E-03 9.612725116E-03 3.390696046E-01
 1.809051377E-03 8.108583279E-03 2.356143378E-01
 3.895714181E-04 6.523193326E-03 5.647269842E-01
 -9.556922596E-04 4.400476348E-03 3.957848420E-01
 -1.577561139E-03 2.731387736E-03 1.069277111E+00
 -1.812334056E-03 1.380449976E-03 7.157267509E-01
 -1.793818083E-03 -2.156372066E-04 7.830633929E-01
 -1.406244119E-03 -1.994815888E-03 8.887592026E-01
 -5.149830249E-04 -4.028579686E-03 5.220792462E-01
 9.218314080E-04 -6.170110777E-03 5.294197658E-01
 2.970636124E-03 -8.417803794E-03 4.725147630E-01
 4.834058229E-03 -1.007244922E-02 3.648236522E-01
 6.973649375E-03 -1.170951966E-02 3.148490004E-01
 8.602455258E-03 -1.282750815E-02 2.379856937E-01
 1.063030213E-02 -1.409170497E-02 2.179539755E-01
 1.300787460E-02 -1.544611994E-02 1.682773615E-01
 1.621711440E-02 -1.710516028E-02 1.176999593E-01
 1.924048550E-02 -1.852113567E-02 7.740506659E-02
 2.310901694E-02 -2.017198876E-02 4.427983308E-02
 2.842267975E-02 -2.222493477E-02 -3.332670795E-02
 3.403543308E-02 -2.416996099E-02 -8.701316494E-02
 4.107162356E-02 -2.636518329E-02 -1.220451083E-01
 4.855640605E-02 -2.847734839E-02 -1.483076455E-01
 5.717770010E-02 -3.067944944E-02 -1.767706292E-01
 6.583212316E-02 -3.269359469E-02 -1.947060092E-01
 7.585923374E-02 -3.483882919E-02 -2.109952174E-01
 8.569672704E-02 -3.678309545E-02 -2.243769560E-01
 9.613140672E-02 -3.869096562E-02 -2.402109369E-01
 1.070429757E-01 -4.054480791E-02 -2.523056399E-01
 1.184486523E-01 -4.235177487E-02 -2.606062627E-01
 1.299015135E-01 -4.405236244E-02 -2.725423522E-01
 1.405375302E-01 -4.553053901E-02 -2.823931085E-01
 1.514632106E-01 -4.696447030E-02 -2.932841164E-01
 1.632415354E-01 -4.841189086E-02 -3.021022790E-01
 1.748991758E-01 -4.976027831E-02 -3.134631523E-01
 1.867450029E-01 -5.104304105E-02 -3.248356570E-01
 1.972971559E-01 -5.211145803E-02 -3.359064478E-01
 2.085848302E-01 -5.317915976E-02 -3.435813484E-01
 2.208538055E-01 -5.425791442E-02 -3.537509555E-01
 2.333659530E-01 -5.526056886E-02 -3.646252058E-01
 2.455608994E-01 -5.616140366E-02 -3.757378727E-01
 2.580665052E-01 -5.697747692E-02 -3.865383821E-01
 2.692674696E-01 -5.763826519E-02 -3.956985511E-01
 2.820785344E-01 -5.829599872E-02 -4.050304587E-01
 2.945714295E-01 -5.883178860E-02 -4.155577113E-01
 3.073185384E-01 -5.926731229E-02 -4.226544354E-01
 3.190858960E-01 -5.957889184E-02 -4.289342942E-01
 3.315506876E-01 -5.979442224E-02 -4.363503088E-01
 3.422094285E-01 -5.987666920E-02 -4.379554672E-01
 3.536463380E-01 -5.989381298E-02 -4.404296975E-01
 3.647046685E-01 -5.978539959E-02 -4.442448152E-01
 3.755081892E-01 -5.958385020E-02 -4.382239489E-01
 3.872107267E-01 -5.928793177E-02 -4.390120279E-01
 3.998074830E-01 -5.880648270E-02 -4.324886107E-01
 4.121188223E-01 -5.821989104E-02 -4.199230172E-01
 4.252502620E-01 -5.744027346E-02 -4.043329640E-01
 4.378309548E-01 -5.657421052E-02 -3.858291066E-01
 4.506263137E-01 -5.557936057E-02 -3.725512073E-01
 4.627344906E-01 -5.447325483E-02 -3.507373228E-01
 4.753281772E-01 -5.324961245E-02 -3.216325007E-01
 4.871160686E-01 -5.200121924E-02 -3.014258002E-01
 4.995256066E-01 -5.061532557E-02 -2.750610539E-01
 5.132606030E-01 -4.898795113E-02 -2.508247273E-01
 5.268024802E-01 -4.726134241E-02 -2.172405156E-01
 5.401359797E-01 -4.553083330E-02 -1.885716977E-01
 5.535477400E-01 -4.370759055E-02 -1.633538494E-01
 5.666450858E-01 -4.190500081E-02 -1.354351889E-01
 5.798221827E-01 -4.002850875E-02 -1.106943082E-01
 5.921196342E-01 -3.824701533E-02 -8.287547130E-02
 6.047284603E-01 -3.644913808E-02 -6.313642979E-02
 6.181852818E-01 -3.448826447E-02 -4.282168891E-02
 6.325243115E-01 -3.240103647E-02 -1.887326010E-02
 6.462584138E-01 -3.038610704E-02 2.309841604E-03
 6.595544219E-01 -2.843016014E-02 2.494811921E-02
 6.732450128E-01 -2.646014094E-02 4.430983535E-02
 6.857063174E-01 -2.466550842E-02 6.053658190E-02
 6.980332136E-01 -2.288973145E-02 7.950139600E-02
 7.125566006E-01 -2.083560638E-02 1.000002611E-01
 7.257384658E-01 -1.904363371E-02 1.131062477E-01
 7.371503711E-01 -1.744022593E-02 1.296245704E-01
 7.498554587E-01 -1.573618874E-02 1.502507408E-01
 7.624999881E-01 -1.407549065E-02 1.617458568E-01
 7.755491734E-01 -1.241109706E-02 1.781742488E-01
 7.874992490E-01 -1.092994865E-02 1.927203799E-01
 8.002664447E-01 -9.392830543E-03 2.059609629E-01
 8.111101389E-01 -8.114060387E-03 2.209624053E-01
 8.222681284E-01 -6.835515611E-03 2.373891681E-01
 8.348525167E-01 -5.518948194E-03 2.510669897E-01
 8.473123908E-01 -4.291093443E-03 2.610052472E-01
 8.592749834E-01 -3.191427328E-03 2.750113615E-01
 8.711502552E-01 -2.210881561E-03 2.857780983E-01
 8.830233812E-01 -1.328745042E-03 2.966728071E-01
 8.960598707E-01 -4.932312295E-04 3.042049330E-01
 9.062582254E-01 4.290921788E-05 3.128821765E-01
 9.169575572E-01 4.918904742E-04 3.130690698E-01
 9.266853333E-01 8.131047362E-04 3.179568188E-01
 9.358391166E-01 1.036872622E-03 3.222087313E-01
 9.482448101E-01 1.210118760E-03 3.121303977E-01
 9.619688392E-01 1.243194216E-03 3.124840441E-01
 9.763374925E-01 1.106234384E-03 3.188330849E-01
 9.891005754E-01 8.424128755E-04 2.921024586E-01
 -5.000000000E-01 -1.000000000E+00 2.685640733E-02
 3.500000000E+00 -1.000000000E+00 1.516507316E-02
 3.500000000E+00 1.000000000E+00 9.603982613E-04
 -5.000000000E-01 1.000000000E+00 -2.958228207E-03
 -5.000000000E-01 5.000000000E-01 2.929952638E-02
 -5.000000000E-01 2.752797990E-12 9.142530732E-02
 -5.000000000E-01 -5.000000000E-01 5.745439206E-02
 -9.421907698E-13 -1.000000000E+00 1.705667307E-02
 5.000000000E-01 -1.000000000E+00 -5.727346062E-03
 1.000000000E+00 -1.000000000E+00 1.067841297E-02
 1.500000000E+00 -1.000000000E+00 2.980439072E-02
 2.000000000E+00 -1.000000000E+00 2.649761028E-02
 2.500000000E+00 -1.000000000E+00 1.926182105E-02
 3.000000000E+00 -1.000000000E+00 1.571494380E-02
 3.500000000E+00 -5.000000000E-01 1.790988495E-02
 3.500000000E+00 -2.752797990E-12 1.728675056E-02
 3.500000000E+00 5.000000000E-01 7.726048164E-03
 3.000000000E+00 1.000000000E+00 -1.782553746E-03
 2.500000000E+00 1.000000000E+00 -7.806978278E-03
 2.000000000E+00 1.000000000E+00 -2.164789523E-02
 1.500000000E+00 1.000000000E+00 -5.560554105E-02
 1.000000000E+00 1.000000000E+00 -9.844418992E-02
 5.000000000E-01 1.000000000E+00 -9.089014587E-02
 1.733724275E-12 1.000000000E+00 -3.136453797E-02
 6.810656259E-01 -3.927932561E-02 4.963087205E-02
 7.847918662E-01 -2.806169554E-02 1.778265946E-01
 9.023809691E-01 -1.104232569E-02 2.958422806E-01
 7.092215751E-01 5.799423884E-02 -3.183597087E-01
 2.756667894E-01 -6.844634170E-02 -3.834200986E-01
 2.872567962E-01 7.201194209E-02 -4.246148366E-01
 9.087467002E-01 2.981233572E-02 -6.555708915E-02
 8.054936883E-01 5.062021664E-02 -2.103323288E-01
 5.758641854E-01 -5.367776734E-02 -1.166345217E-01
 6.042193622E-01 6.992507789E-02 -4.224700527E-01
 4.064711559E-01 -6.917511953E-02 -4.023953458E-01
 4.122874263E-01 7.361587079E-02 -4.718181189E-01
 5.037271824E-01 7.529166811E-02 -4.749180237E-01
 1.839395474E+00 -5.937967031E-01 2.594243280E-02
 1.793286642E+00 6.490151344E-01 -1.805169910E-02
 3.031176728E+00 2.156834838E-01 9.801189411E-03
 7.500000000E-01 -5.669872981E-01 1.012374795E-02
 4.826097141E-01 -6.439932844E-02 -2.964853127E-01
 3.048733521E-01 -7.173175080E-01 -2.461678505E-02
 1.116874005E-01 -5.589989085E-02 -2.230186952E-01
 1.801549297E-01 -6.035757393E-02 -3.027635175E-01
 7.730514088E-01 5.876660623E-01 -1.283389209E-01
 3.212830136E-01 6.372300929E-01 -1.174714794E-01
 1.142693054E-01 5.575217080E-02 -3.019545865E-01
 1.878166482E-01 5.992816331E-02 -3.752736453E-01
 2.734844997E+00 -5.326945702E-01 1.530537313E-02
 1.169481135E+00 6.653238206E-01 -6.313056918E-02
 9.918944851E-01 3.621149453E-01 -7.068284326E-02
 1.244567112E+00 -6.629675450E-01 3.958353294E-02
 1.490557578E+00 -2.500545936E-01 3.734773590E-02
 2.249441139E+00 -5.876960290E-01 1.844697248E-02
 2.038043834E+00 -2.264592713E-01 1.561542206E-02
 2.422489449E+00 -1.888459722E-01 1.169349311E-02
 2.184610174E+00 1.582013078E-01 4.972475589E-03
 1.783624975E+00 1.075305257E-01 8.509704509E-03
 -2.708719420E-01 -2.366212087E-01 1.048178015E-01
 -1.459561197E-01 -6.008344464E-01 2.232463382E-02
 1.360735607E-01 -3.696237392E-01 -3.446163260E-02
 -2.743960404E-01 2.319622094E-01 7.934947470E-02
 -1.029529151E-01 6.243242236E-01 -2.385923508E-02
 1.995008751E-02 3.370928088E-01 -4.508500584E-02
 5.088259707E-02 4.039276232E-02 -2.024207483E-01
 2.241223922E+00 5.548509695E-01 -3.898282098E-03
 2.746369168E+00 5.961268467E-01 2.527064603E-03
 -2.351417530E-01 -4.571124385E-03 1.464097295E-01
 -1.280224828E-01 1.265336642E-01 1.328886112E-01
 -1.188149486E-01 -1.415720586E-01 1.544882581E-01
 6.180992138E-02 -4.034382357E-02 -1.473361253E-01
 -7.192409166E-02 -3.058992119E-01 5.154378816E-02
 -4.158369565E-03 -1.700347621E-01 7.416971314E-02
 3.062384665E-02 -2.970166122E-02 -2.449023279E-03
 1.885630361E-01 -2.274587213E-01 -1.413501029E-01
 3.469665934E-01 -7.367492567E-02 -4.127978278E-01
 3.113776810E-01 -7.266158356E-02 -4.004612072E-01
 2.257988068E-01 -6.662109458E-02 -3.413598762E-01
 -3.665872038E-02 -9.754272614E-02 2.180598979E-01
 -1.091139790E-01 -2.391256657E-02 2.694675059E-01
 -7.074499696E-02 5.560756316E-02 2.489374772E-01
 2.598557307E-02 2.581348389E-02 -1.315523833E-01
 2.811173208E-02 -1.058875295E-01 5.009872936E-02
 3.109358852E+00 -2.612774973E-01 1.538439218E-02
 -4.609828437E-02 -3.626096700E-02 4.292882814E-01
 -5.101655349E-02 1.172463012E-02 4.651964080E-01
 -2.871048087E-02 5.067944783E-02 3.498345732E-01
 -3.702664710E-02 1.031629580E-01 1.321079564E-01
 3.448921482E-02 1.158098328E-01 -3.268364626E-02
 8.365388786E-02 4.806796309E-02 -2.695575978E-01
 -4.756619395E-03 1.907741198E-01 1.817809425E-02
 8.395025302E-02 1.634019086E-01 -1.270926331E-01
 1.721455910E-01 2.909300467E-01 -1.695605648E-01
 3.461786956E-01 7.499268724E-02 -4.491095096E-01
 2.351081201E-01 6.617279172E-02 -3.993743534E-01
 2.084150456E-01 1.811772546E-01 -2.603607983E-01
 3.164478950E-01 2.800593026E-01 -2.597551024E-01
 3.040060934E-01 1.616936100E-01 -3.446274561E-01
 3.789497380E-01 2.101047384E-01 -3.263461803E-01
 3.772437283E-01 1.469645787E-01 -3.853753997E-01
 4.508437720E-01 7.867252733E-02 -4.721516460E-01
 4.454867526E-01 1.887919483E-01 -3.541617768E-01
 5.512948598E-01 7.398477714E-02 -4.568081896E-01
 5.285431202E-01 7.479628605E-02 -4.664938439E-01
 4.420514395E-01 2.757172094E-01 -2.883836371E-01
 5.389714531E-01 2.207298751E-01 -3.176705887E-01
 5.438359695E-01 3.649885448E-01 -2.331513930E-01
 6.455052462E-01 2.829990165E-01 -2.388890587E-01
 6.611856885E-01 6.304677628E-02 -3.720346613E-01
 6.337879760E-01 1.754186201E-01 -3.118445189E-01
 7.231771971E-01 2.115026610E-01 -2.303685622E-01
 7.554620706E-01 5.127652672E-02 -2.659830947E-01
 7.789949766E-01 5.062946099E-02 -2.427710048E-01
 7.632402941E-01 3.152424580E-01 -1.747655128E-01
 7.044033216E-01 1.333208756E-01 -2.825361213E-01
 7.692284216E-01 1.490854472E-01 -2.131922918E-01
 8.688239163E-01 3.426146108E-02 -1.328119105E-01
 8.887293637E-01 3.315425091E-02 -1.012637861E-01
 8.397576287E-01 3.901776746E-02 -1.729362420E-01
 5.616038824E-01 1.492103048E-01 -3.730478766E-01
 1.445494738E-01 1.350236030E-01 -2.427205416E-01
 1.495710963E-01 5.742876669E-02 -3.419905240E-01
 6.514786791E-01 1.187153391E-01 -3.337154216E-01
 6.371002601E-01 6.391042531E-02 -3.968765471E-01
 2.444383669E-01 1.331884177E-01 -3.285058032E-01
 7.484686832E-01 1.039145238E-01 -2.544099817E-01
 7.945393575E-01 9.939461718E-02 -2.057206197E-01
 8.319629044E-01 1.439117643E-01 -1.582219589E-01
 8.117705036E-01 2.177488455E-01 -1.615854162E-01
 8.940134936E-01 1.862781512E-01 -9.730641854E-02
 9.646561535E-01 2.301771368E-02 6.177136846E-02
 9.164542703E-01 1.122806393E-01 -6.137175126E-02
 9.708528272E-01 1.645899712E-01 -3.484151010E-02
 8.383527372E-01 9.484750939E-02 -1.579087481E-01
 4.353328917E-01 1.276329962E-01 -4.136375956E-01
 3.393419807E-01 1.164554353E-01 -3.996816829E-01
 3.108188909E-01 7.782262960E-02 -4.314148611E-01
 6.851745993E-01 9.287784461E-02 -3.247881084E-01
 6.821349626E-01 6.108053307E-02 -3.502044775E-01
 8.850186030E-02 1.035568524E-01 -1.853880695E-01
 1.380015026E-01 4.598855051E-01 -8.946008418E-02
 7.166802014E-01 8.923260038E-02 -2.925538939E-01
 7.304338457E-01 5.713318132E-02 -2.948010245E-01
 4.941195084E-01 1.435539578E-01 -3.974963282E-01
 6.852520413E-01 4.303596801E-01 -1.759262531E-01
 5.287526882E-01 1.160090526E-01 -4.174079817E-01
 5.679337050E-01 1.083868059E-01 -4.084647893E-01
 5.776599630E-01 6.935222390E-02 -4.456308724E-01
 3.710274788E-01 1.073215009E-01 -4.223762482E-01
 3.844647660E-01 7.575910561E-02 -4.621055706E-01
 3.982707851E-01 1.126748013E-01 -4.216011604E-01
 1.313093685E-01 9.134173564E-02 -2.712560383E-01
 1.644836471E-01 1.002721529E-01 -2.979719815E-01
 2.001037736E-01 1.148540578E-01 -3.147384705E-01
 4.694909377E-01 1.098350610E-01 -4.361988142E-01
 4.790115394E-01 7.492710302E-02 -4.760417226E-01
 4.993333091E-01 1.083882552E-01 -4.335798504E-01
 -6.577972504E-03 -6.057007437E-02 2.742643181E-01
 8.704189186E-03 -1.628264178E-02 3.049317482E-01
 3.273018812E-02 -6.995951699E-02 3.185083787E-02
 4.523797436E-02 -3.566825116E-02 -8.894645853E-02
 7.348280676E-02 -8.741222501E-02 -9.887869769E-02
 1.481307417E-01 -5.761604539E-02 -2.745055787E-01
 7.634171994E-02 -4.592016079E-02 -1.812825884E-01
 8.096668061E-02 -1.414014898E-01 -5.796514351E-02
 1.254853433E-01 -1.010205448E-01 -1.802286986E-01
 6.958861228E-01 5.982010847E-02 -3.339850470E-01
 1.753596623E-01 6.078158007E-02 -3.620491670E-01
 4.222143305E-01 4.144707810E-01 -2.077343730E-01
 1.655734076E-02 6.427437006E-02 3.590225370E-02
 3.634441747E-02 3.222359878E-02 -1.679838757E-01
 5.493161128E-02 7.635449731E-02 -1.419353141E-01
 1.986924715E-01 6.254212280E-02 -3.792157481E-01
 1.878869383E-01 7.756440704E-02 -3.469363691E-01
 2.119880442E-01 8.019074189E-02 -3.692876878E-01
 2.350869449E-01 9.945691189E-02 -3.651372356E-01
 2.624637934E-01 6.769428134E-02 -4.163978981E-01
 2.722203152E-01 1.071349826E-01 -3.770848931E-01
 3.078848470E-01 1.070505425E-01 -3.986220179E-01
 3.615259021E-01 7.541534012E-02 -4.544124761E-01
 4.908796862E-01 7.339443741E-02 -4.784964557E-01
 5.155908052E-01 9.003985294E-02 -4.524572940E-01
 5.403190425E-01 9.089846357E-02 -4.424608698E-01
 2.989880106E-01 7.125852143E-02 -4.313822670E-01
 3.311071657E-01 8.697485914E-02 -4.311957018E-01
 4.635627218E-01 7.458467562E-02 -4.782808567E-01
 3.247063800E-01 7.166966524E-02 -4.456513041E-01
 2.219210470E-01 6.632424937E-02 -3.921175365E-01
 3.982043508E-01 7.459959785E-02 -4.664373343E-01
 4.229645129E-01 7.358380121E-02 -4.744696081E-01
 5.681956421E-01 5.400763682E-01 -1.760740444E-01
 6.568250899E-01 8.953664987E-02 -3.548178831E-01
 6.301983711E-01 9.782637863E-02 -3.734287726E-01
 6.085591016E-01 1.256263658E-01 -3.667203168E-01
 5.999577387E-01 9.067262676E-02 -4.049439374E-01
 6.222039346E-01 7.601978226E-02 -4.012171837E-01
 7.655776472E-01 8.003765080E-02 -2.447522087E-01
 5.657146791E-01 7.344218607E-02 -4.499348819E-01
 3.351355281E-01 7.149106554E-02 -4.494191611E-01
 5.606139397E-01 8.705838636E-02 -4.367133735E-01
 2.496665138E-01 6.598820528E-02 -4.078570792E-01
 2.563671038E+00 2.032228890E-01 5.226929743E-03
 5.400119224E-01 7.244504844E-02 -4.639194044E-01
 8.144998068E-01 7.221411135E-02 -1.924246269E-01
 7.886044370E-01 6.600205932E-02 -2.237083774E-01
 8.215301531E-01 5.319488595E-02 -1.908732050E-01
 8.428967079E-01 5.882951877E-02 -1.630422056E-01
 8.728719037E-01 7.600927197E-02 -1.181485176E-01
 2.110852159E-01 6.304095145E-02 -3.862687516E-01
 -1.189546560E-01 2.677297978E-01 3.597738883E-02
 1.028709747E-01 7.533494739E-02 -2.453485724E-01
 1.320901356E-01 6.670764737E-02 -3.053776048E-01
 -1.965954363E-02 -3.057664540E-02 4.040312467E-01
 2.926468846E-03 -1.180300776E-02 4.200014088E-01
 -1.691128803E-02 -5.516434282E-03 6.792474194E-01
 -4.468329787E-03 -1.925567874E-02 6.059812318E-01
 8.345558386E-03 -4.071478205E-02 2.781484990E-01
 2.016796965E-02 -2.276132050E-02 1.088722321E-01
 -8.651349577E-03 1.510468926E-02 5.183842855E-01
 4.752681251E-02 -4.834081162E-02 -6.758579797E-02
 2.989951024E-02 -4.576948057E-02 -2.042719918E-03
 6.314689749E-02 -5.817040314E-02 -1.085992745E-01
 2.001323823E-02 -3.308209271E-02 1.029390881E-01
 1.115095269E-02 -2.604769619E-02 1.526709441E-01
 8.788313258E-02 -4.590082389E-02 -2.070026979E-01
 9.589869195E-02 -6.962209703E-02 -1.776436714E-01
 1.209684662E-01 -7.264771554E-02 -2.073260045E-01
 9.664571959E-02 -5.164956434E-02 -2.025813184E-01
 9.809075012E-02 5.742188187E-02 -2.719236898E-01
 8.099387376E-02 6.814035939E-02 -2.237128473E-01
 6.640554764E-02 5.122938423E-02 -2.157265678E-01
 8.149165641E-02 -5.937947430E-02 -1.602275723E-01
 7.399901325E-01 7.577477488E-02 -2.746428385E-01
 7.204581347E-01 6.832316196E-02 -2.999887809E-01
 7.045721757E-01 7.175619512E-02 -3.176908124E-01
 4.170473502E-01 9.097749741E-02 -4.521067248E-01
 4.434653764E-01 9.931296785E-02 -4.504972728E-01
 -7.028295107E-04 3.803349495E-02 1.690217754E-01
 6.292410812E-03 2.180967719E-02 1.059519299E-01
 6.959454747E-03 1.394229202E-02 -7.989211666E-02
 1.670243870E-02 2.253615651E-02 -9.097117427E-02
 1.815805447E-02 3.694045721E-02 -2.015728386E-02
 1.143932564E-02 1.735723491E-02 -8.369818274E-03
 8.813408163E-01 2.955404433E-01 -1.128218913E-01
 1.102636112E+00 2.474480370E-01 -9.408363124E-03
 1.118330994E+00 1.013096329E-01 5.076234951E-02
 1.232978106E+00 1.997173588E-01 1.090571947E-02
 1.244495464E+00 3.420363260E-02 4.846889435E-02
 1.130498637E+00 -1.979613426E-02 8.516278426E-02
 1.224324177E+00 -1.084992268E-01 7.094747339E-02
 1.090728083E+00 -1.346301257E-01 1.216343949E-01
 9.523901236E-01 -1.374543686E-02 3.071276218E-01
 9.343293683E-01 -9.451890201E-03 2.971846102E-01
 1.174437929E+00 -2.422493693E-01 7.457638283E-02
 1.027879098E+00 -2.610546937E-01 9.943090869E-02
 9.563170740E-01 -1.800146246E-01 1.405940946E-01
 8.462335412E-01 -1.939687703E-02 2.471751949E-01
 8.177809978E-01 -1.700359682E-02 2.230987300E-01
 8.610357615E-01 -1.251254341E-02 2.672822341E-01
 8.824829129E-01 -2.733035034E-01 9.055233637E-02
 8.119589102E-01 -1.695253039E-01 1.125085364E-01
 7.342351124E-01 -3.057493887E-02 1.201858645E-01
 7.574473334E-01 -2.842052429E-02 1.490676141E-01
 7.452879789E-01 -2.818388530E-01 3.388434602E-02
 6.828951926E-01 -1.806014161E-01 1.682276356E-02
 6.261979482E-01 -4.720998650E-02 -3.314407940E-02
 6.183711143E-01 -2.501955439E-01 -3.599956953E-02
 5.695902500E-01 -1.801350348E-01 -9.180657243E-02
 5.215155370E-01 -5.976369611E-02 -2.224126184E-01
 5.511622102E-01 -5.911679992E-02 -1.608438289E-01
 5.222236634E-01 -2.468666054E-01 -1.130381644E-01
 4.509706189E-01 -1.993980285E-01 -1.825793697E-01
 4.443171153E-01 -6.821385809E-02 -3.563548663E-01
 4.034569496E-01 -2.798423789E-01 -1.560412067E-01
 3.413504022E-01 -1.872917504E-01 -2.324326823E-01
 7.360970932E-01 -1.129729487E-01 8.032232173E-02
 6.215350541E-01 -1.298415197E-01 -4.219943460E-02
 8.673530410E-01 -1.100223565E-01 1.735416482E-01
 2.874923296E-01 -2.811673702E-01 -1.511677118E-01
 5.163615453E-01 -1.386109043E-01 -1.725648963E-01
 1.451449852E+00 1.159895189E-01 1.700780114E-02
 1.389836357E+00 3.265771755E-01 -3.706980309E-03
 4.109650684E-01 -1.423278061E-01 -2.724334638E-01
 1.029950125E+00 8.574753439E-02 6.952993812E-02
 1.006995041E+00 -9.411573428E-02 1.722450951E-01
 1.056447695E+00 -4.001268967E-02 1.487229030E-01
 1.058574914E+00 2.383633129E-02 1.049609744E-01
 5.760942806E-01 -3.948507983E-01 -4.818458279E-02
 9.507449755E-01 -4.334086264E-01 5.880538402E-02
 1.392620932E+00 -8.069644287E-02 3.859857437E-02
 3.449745976E-01 -4.332058731E-01 -7.590476767E-02
 1.117831298E+00 -4.435698407E-01 5.859119185E-02
 1.321284818E+00 -3.780053637E-01 4.921547605E-02
 1.588569408E+00 -7.295373769E-02 2.299322143E-02
 1.000348408E+00 -3.715125541E-02 2.781021953E-01
 9.831485404E-01 -1.239906841E-02 3.225671819E-01
 9.596515136E-01 -6.481130709E-02 2.356179748E-01
 9.079602115E-01 -6.330775613E-02 2.353782741E-01
 8.605431716E-01 -5.827933768E-02 2.159457548E-01
 8.184842496E-01 -9.091502142E-02 1.628254756E-01
 7.693131148E-01 -7.466469089E-02 1.362446590E-01
 8.234603890E-01 -5.390861654E-02 1.990468949E-01
 7.928085540E-01 -5.112697746E-02 1.740462015E-01
 8.862610482E-01 -4.102612908E-02 2.536051482E-01
 9.100255060E-01 -3.272668392E-02 2.660780765E-01
 8.885009300E-01 -2.338667617E-02 2.725679145E-01
 9.171971724E-01 -1.757564669E-02 2.918364332E-01
 9.353583333E-01 -3.405168316E-02 2.769944394E-01
 9.788382454E-01 -6.916317562E-01 1.867006330E-02
 1.013650344E+00 4.056912322E-02 1.094203926E-01
 9.834038601E-01 6.759681643E-02 4.311894068E-02
 2.626889621E-01 -1.947718142E-01 -2.129346437E-01
 2.849765998E-01 -1.412764612E-01 -2.833765324E-01
 2.211563444E-01 -1.424151280E-01 -2.358123012E-01
 2.574904890E-01 -1.089960754E-01 -3.097198772E-01
 2.497749183E-01 -6.904794368E-02 -3.611936094E-01
 2.935774651E-01 -1.049006987E-01 -3.352991514E-01
 3.306054440E-01 -1.231723489E-01 -3.257406580E-01
 3.744722572E-01 -1.045345506E-01 -3.485283163E-01
 3.819239789E-01 -6.791859204E-02 -4.208509053E-01
 3.936147605E-01 -6.973937507E-02 -4.121778053E-01
 4.005197119E-01 -8.468036110E-02 -3.799111179E-01
 4.385916356E-01 -1.119474981E-01 -2.933372366E-01
 4.215445599E-01 -8.385561449E-02 -3.555154673E-01
 4.779981896E-01 -1.048236713E-01 -2.562433910E-01
 3.630458287E-01 -8.283528925E-02 -3.947801288E-01
 5.217015867E-01 -9.872959396E-02 -1.950670616E-01
 5.626841886E-01 -1.133815170E-01 -1.222042673E-01
 5.973341122E-01 -8.798328116E-02 -7.745018787E-02
 5.992086158E-01 -4.975441278E-02 -7.374095159E-02
 6.339304327E-01 -8.753137609E-02 -2.485876575E-02
 6.548751127E-01 -4.298759453E-02 1.399170522E-02
 6.745731522E-01 -1.108087163E-01 2.163795457E-02
 7.052780130E-01 -7.856760141E-02 6.591105427E-02
 7.062113301E-01 -3.669510451E-02 8.318654143E-02
 7.352361111E-01 -6.655857879E-02 1.059478051E-01
 6.705702472E-01 -7.518479122E-02 2.377837133E-02
 6.113258068E-01 -4.626711073E-02 -5.509457992E-02
 6.105622251E-01 -6.352314241E-02 -5.355900003E-02
 6.439782627E-01 -6.031465561E-02 -8.744796123E-03
 5.901115509E-01 -6.293335502E-02 -9.012528263E-02
 5.693286100E-01 -7.310597830E-02 -1.229222933E-01
 5.465961289E-01 -8.096267495E-02 -1.603546996E-01
 5.030147849E-01 -7.541610979E-02 -2.505094674E-01
 3.420153677E-01 -9.344805138E-02 -3.708064522E-01
 3.302955800E-01 -7.615640356E-02 -4.037277990E-01
 6.407668098E-01 -4.265987603E-02 -7.408141985E-03
 3.170839904E-01 -9.168192967E-02 -3.687800059E-01
 2.977510130E-01 -8.280614412E-02 -3.778143194E-01
 3.702920381E-01 -6.963371867E-02 -4.191816254E-01
 5.875353657E-01 -4.993703706E-02 -9.430624736E-02
 2.169389055E-01 -1.030550933E-01 -2.817301290E-01
 1.980850598E-01 -6.156372510E-02 -3.215412068E-01
 1.796418445E-01 -1.154744416E-01 -2.319423350E-01
 6.699790478E-01 -5.366843762E-02 3.113766605E-02
 6.920935702E-01 -5.309703452E-02 5.944949218E-02
 3.592690195E-01 -6.937840964E-02 -4.224798273E-01
 8.005061647E-01 -4.119318143E-01 3.819931186E-02
 7.148824598E-01 -5.174249487E-02 8.700084369E-02
 7.467932067E-01 -4.412796268E-02 1.288358840E-01
 7.702211529E-01 -4.168107875E-02 1.515169268E-01
 8.058367593E-01 -3.136305673E-02 1.972953613E-01
 3.537193277E-01 9.052059799E-02 -4.360009901E-01
 3.724502072E-01 8.556874167E-02 -4.468124085E-01
 3.902441564E-01 9.115020746E-02 -4.471370535E-01
 1.920216846E-01 -9.149358421E-02 -2.740221392E-01
 1.639623241E-01 -8.770760539E-02 -2.523036429E-01
 1.617712786E-01 -6.809332717E-02 -2.748185658E-01
 1.415774907E-01 -7.457766157E-02 -2.342565005E-01
 2.362956381E-01 -8.198183640E-02 -3.310551526E-01
 2.104356373E-01 -7.745281066E-02 -3.094620448E-01
 1.301788279E-01 -5.609656995E-02 -2.530328931E-01
 7.203790771E-01 -3.279243980E-02 1.027194339E-01
 7.432656727E-01 5.589497428E-02 -2.802308925E-01
 2.512690381E-01 8.182937393E-02 -3.896884164E-01
 2.734404838E-01 8.017452694E-02 -4.084140817E-01
 5.899502343E-01 7.247084680E-02 -4.323483509E-01
 4.951884461E-01 -6.224722955E-01 -2.490717086E-02
 7.701543761E-01 -2.400879791E-02 1.659907798E-01
 5.160666125E-01 7.295817986E-02 -4.752869165E-01
 1.322638030E+00 -2.125157026E-01 5.253652429E-02
 1.477341003E-01 -1.566023485E-01 -1.527261359E-01
 6.926220114E-01 -3.532534090E-02 6.727137539E-02
 1.589060290E-01 7.285995654E-02 -3.308499811E-01
 9.214279265E-01 -6.817814239E-03 3.060759684E-01
 9.128443701E-01 -6.980197386E-03 3.044840468E-01
 6.489849921E-01 6.444939642E-02 -3.825310310E-01
 6.718819789E-01 7.321673086E-02 -3.518339603E-01
 4.541320149E-02 5.621827574E-02 -1.268422067E-01
 7.954248607E-02 -2.285033788E-01 -2.710892936E-02
 6.677500571E-01 -3.826215560E-02 3.338418546E-02
 1.192947222E+00 4.157038638E-01 -3.352141794E-02
 1.458749913E+00 5.954713389E-01 -2.846017672E-02
 1.745124637E+00 -2.714981899E-01 2.359537137E-02
 2.758501565E-01 -8.360375708E-02 -3.595945972E-01
 7.452528963E-01 -2.730116090E-02 1.353111845E-01
 8.499722488E-01 4.173663266E-01 -1.243295587E-01
 7.762521215E-01 -1.243706502E-01 1.114157015E-01
 6.711533409E-01 5.979608657E-02 -3.635747690E-01
 2.781335713E-01 4.115852536E-01 -1.844525916E-01