TITLE     = "Visualization of the solution"
VARIABLES = "x"
"y"
"Pressure_Coefficient"
ZONE T="Zone"
 STRANDID=0, SOLUTIONTIME=0
 Nodes=693, Elements=1171, ZONETYPE=FEQuadrilateral
 DATAPACKING=POINT
 DT=(DOUBLE DOUBLE DOUBLE )
 9.997768998E-01 5.293363938E-04 1.993822842E-01
 9.871551394E-01 2.813186264E-03 1.786354628E-01
 9.756008983E-01 4.903968424E-03 9.194577332E-02
 9.628148675E-01 7.287772372E-03 4.148098001E-02
 9.500491619E-01 9.604102932E-03 1.743933957E-03
 9.375844598E-01 1.174441539E-02 -2.207624944E-02
 9.269278049E-01 1.362062525E-02 -6.044454780E-02
 9.148930311E-01 1.571185887E-02 -9.463409910E-02
 9.034861326E-01 1.757368073E-02 -1.158251338E-01
 8.911211491E-01 1.948395558E-02 -1.318780056E-01
 8.787491918E-01 2.133525349E-02 -1.542172475E-01
 8.669258952E-01 2.306520194E-02 -1.642122528E-01
 8.537907004E-01 2.483626269E-02 -1.761900480E-01
 8.421379924E-01 2.643348090E-02 -1.915413275E-01
 8.299065828E-01 2.799375355E-02 -1.935083109E-01
 8.165078163E-01 2.966058999E-02 -2.032117640E-01
 8.030530810E-01 3.131702915E-02 -2.161879627E-01
 7.908545136E-01 3.279007971E-02 -2.233045286E-01
 7.778587341E-01 3.430238739E-02 -2.383687504E-01
 7.655302286E-01 3.573995084E-02 -2.491125401E-01
 7.518855333E-01 3.722080588E-02 -2.518355050E-01
 7.375183702E-01 3.879429400E-02 -2.671153921E-01
 7.264231443E-01 3.999291733E-02 -2.826148720E-01
 7.151025534E-01 4.117181897E-02 -2.890464177E-01
 7.028939128E-01 4.238215089E-02 -2.987148703E-01
 6.890468597E-01 4.375084117E-02 -3.118470049E-01
 6.755852699E-01 4.502206296E-02 -3.263882224E-01
 6.652868390E-01 4.596793652E-02 -3.381673407E-01
 6.534756422E-01 4.699421301E-02 -3.450329850E-01
 6.423192024E-01 4.791979492E-02 -3.545196079E-01
 6.302457452E-01 4.889537767E-02 -3.681155147E-01
 6.190823317E-01 4.975211248E-02 -3.756685193E-01
 6.079821587E-01 5.053538084E-02 -3.833660373E-01
 5.952802300E-01 5.140084773E-02 -3.979822432E-01
 5.831842422E-01 5.216033012E-02 -4.020851234E-01
 5.692521334E-01 5.293066800E-02 -4.090872065E-01
 5.564500093E-01 5.359490961E-02 -4.187375444E-01
 5.437106490E-01 5.417808145E-02 -4.220057784E-01
 5.325061679E-01 5.461481586E-02 -4.281660842E-01
 5.207480192E-01 5.504916981E-02 -4.334249230E-01
 5.077650547E-01 5.541667342E-02 -4.330725457E-01
 4.968929887E-01 5.566890165E-02 -4.339636197E-01
 4.837462306E-01 5.591838807E-02 -4.355437317E-01
 4.708836079E-01 5.608099326E-02 -4.357342946E-01
 4.565420449E-01 5.618150905E-02 -4.330515740E-01
 4.425393939E-01 5.617717281E-02 -4.316608394E-01
 4.295440614E-01 5.611801520E-02 -4.280228598E-01
 4.163205624E-01 5.596921965E-02 -4.243348913E-01
 4.041596055E-01 5.578471720E-02 -4.224381500E-01
 3.918268681E-01 5.552966893E-02 -4.176923988E-01
 3.798991740E-01 5.522590503E-02 -4.151605101E-01
 3.691020012E-01 5.490660667E-02 -4.088898386E-01
 3.562120199E-01 5.445957184E-02 -4.037964731E-01
 3.445225358E-01 5.401152372E-02 -4.000877404E-01
 3.323284686E-01 5.348214507E-02 -3.953224837E-01
 3.219936788E-01 5.298751593E-02 -3.895647537E-01
 3.100277483E-01 5.236511305E-02 -3.846440921E-01
 2.972197235E-01 5.164353922E-02 -3.777766096E-01
 2.834633887E-01 5.080249533E-02 -3.715597214E-01
 2.708668709E-01 4.996960610E-02 -3.651289036E-01
 2.589058280E-01 4.912665486E-02 -3.587596439E-01
 2.462820560E-01 4.817845300E-02 -3.511560872E-01
 2.334523797E-01 4.715302214E-02 -3.456163973E-01
 2.213925570E-01 4.612918198E-02 -3.381777799E-01
 2.096798271E-01 4.507983103E-02 -3.328368408E-01
 1.986412853E-01 4.404082522E-02 -3.268684748E-01
 1.862713397E-01 4.281441867E-02 -3.193046624E-01
 1.743667275E-01 4.156962782E-02 -3.161305681E-01
 1.627290845E-01 4.029528797E-02 -3.089834070E-01
 1.507823169E-01 3.890734911E-02 -3.014153434E-01
 1.400073469E-01 3.759642318E-02 -2.962309775E-01
 1.287487745E-01 3.615756333E-02 -2.891388645E-01
 1.170418561E-01 3.456535563E-02 -2.879214341E-01
 1.063708887E-01 3.304325044E-02 -2.793995325E-01
 9.657388180E-02 3.156702593E-02 -2.747099016E-01
 8.524101973E-02 2.974756248E-02 -2.607951016E-01
 7.306366414E-02 2.765026502E-02 -2.577139375E-01
 6.297627091E-02 2.577263117E-02 -2.485443499E-01
 5.305977538E-02 2.377039194E-02 -2.293759423E-01
 4.388509691E-02 2.173658274E-02 -2.220244005E-01
 3.613073751E-02 1.984755881E-02 -2.197936851E-01
 2.943620645E-02 1.804127917E-02 -2.021472073E-01
 2.373262122E-02 1.633467153E-02 -2.019529781E-01
 1.964802295E-02 1.498484612E-02 -1.906807544E-01
 1.592026651E-02 1.362562273E-02 -1.833110121E-01
 1.330091897E-02 1.257716678E-02 -1.663080248E-01
 1.099902671E-02 1.156370714E-02 -1.273929458E-01
 9.296322241E-03 1.074951421E-02 -1.293786905E-01
 7.714886684E-03 9.927378967E-03 -9.792108025E-02
 6.237282418E-03 9.087910876E-03 -9.157247446E-02
 4.277278669E-03 7.822315209E-03 -2.429887274E-02
 2.618889092E-03 6.551854312E-03 -1.383044303E-02
 1.140984823E-03 5.151296966E-03 3.758739221E-01
 -2.650493989E-04 3.332085907E-03 5.205232072E-01
 -9.956402937E-04 1.852924004E-03 2.312161388E-01
 -1.324826851E-03 6.815726520E-04 9.803386405E-01
 -1.445929753E-03 -7.608688320E-04 6.233190747E-01
 -1.199781080E-03 -2.479970921E-03 8.988954874E-01
 -4.448488762E-04 -4.428423475E-03 6.080887397E-01
 9.132848354E-04 -6.519088522E-03 8.916471810E-01
 2.928594593E-03 -8.727062494E-03 3.116970244E-01
 4.715844523E-03 -1.028857194E-02 4.618900995E-01
 6.865886040E-03 -1.189313270E-02 2.959446383E-01
 8.416283876E-03 -1.292248629E-02 2.201709356E-01
 1.037894469E-02 -1.411532611E-02 1.240323807E-01
 1.274104975E-02 -1.542346831E-02 1.467355488E-01
 1.589689218E-02 -1.699454710E-02 8.845755106E-02
 1.897600852E-02 -1.839276776E-02 2.631281155E-02
 2.297505923E-02 -2.003758959E-02 1.395460747E-03
 2.846603841E-02 -2.206966095E-02 -2.281440296E-02
 3.420637175E-02 -2.398572862E-02 -5.704467248E-02
 4.167827964E-02 -2.621479332E-02 -1.001734677E-01
 4.922486842E-02 -2.825502120E-02 -1.289820878E-01
 5.805101246E-02 -3.041441925E-02 -1.533159549E-01
 6.666222215E-02 -3.235156089E-02 -1.715741298E-01
 7.709417492E-02 -3.450809792E-02 -1.890946709E-01
 8.715023845E-02 -3.641978651E-02 -2.025033252E-01
 9.771683812E-02 -3.829841688E-02 -2.207045148E-01
 1.086398885E-01 -4.009481892E-02 -2.351729327E-01
 1.202232391E-01 -4.189256206E-02 -2.451537069E-01
 1.316224188E-01 -4.353601858E-02 -2.595057887E-01
 1.420931071E-01 -4.496853426E-02 -2.671966710E-01
 1.532110423E-01 -4.640241712E-02 -2.778288533E-01
 1.652412117E-01 -4.786099866E-02 -2.881700573E-01
 1.769005805E-01 -4.918388277E-02 -2.992228575E-01
 1.889156550E-01 -5.047868937E-02 -3.122581958E-01
 1.994720101E-01 -5.153996497E-02 -3.219760115E-01
 2.108777165E-01 -5.262195691E-02 -3.324004960E-01
 2.232764661E-01 -5.369526893E-02 -3.396301354E-01
 2.357556075E-01 -5.471264571E-02 -3.504366442E-01
 2.482280284E-01 -5.563199520E-02 -3.645970394E-01
 2.612544000E-01 -5.649908260E-02 -3.752953772E-01
 2.725525796E-01 -5.718012527E-02 -3.881541140E-01
 2.855815291E-01 -5.785240978E-02 -3.981417784E-01
 2.983647883E-01 -5.841746181E-02 -4.071676560E-01
 3.114256263E-01 -5.888530985E-02 -4.170288387E-01
 3.231497407E-01 -5.920823291E-02 -4.260776554E-01
 3.357337117E-01 -5.944702402E-02 -4.328609383E-01
 3.462640345E-01 -5.954319611E-02 -4.384009007E-01
 3.576028049E-01 -5.957012996E-02 -4.396729951E-01
 3.686574697E-01 -5.948685482E-02 -4.418170667E-01
 3.793255687E-01 -5.933379382E-02 -4.448991143E-01
 3.906108141E-01 -5.903737992E-02 -4.421965951E-01
 4.032082856E-01 -5.859337375E-02 -4.349897820E-01
 4.150626361E-01 -5.802227184E-02 -4.244831177E-01
 4.284225106E-01 -5.727861822E-02 -4.122693242E-01
 4.411137104E-01 -5.639532208E-02 -4.008132100E-01
 4.538912177E-01 -5.537251383E-02 -3.760185319E-01
 4.662716091E-01 -5.426292494E-02 -3.547690142E-01
 4.786715508E-01 -5.304456875E-02 -3.313833484E-01
 4.901621640E-01 -5.182021111E-02 -3.110680330E-01
 5.022733808E-01 -5.040329695E-02 -2.791203762E-01
 5.159370899E-01 -4.876359552E-02 -2.499771459E-01
 5.295733213E-01 -4.699807987E-02 -2.212643562E-01
 5.428901315E-01 -4.523481429E-02 -1.925396012E-01
 5.566062927E-01 -4.334344715E-02 -1.641110644E-01
 5.691244006E-01 -4.155574366E-02 -1.348377392E-01
 5.821871161E-01 -3.966591135E-02 -1.091846048E-01
 5.943827033E-01 -3.789282590E-02 -8.549303661E-02
 6.065816879E-01 -3.611839190E-02 -6.591133132E-02
 6.195769906E-01 -3.417996690E-02 -4.246399504E-02
 6.337516904E-01 -3.209448606E-02 -1.757441969E-02
 6.472976208E-01 -3.009775281E-02 1.983421352E-03
 6.606153846E-01 -2.815329283E-02 2.322019136E-02
 6.739152074E-01 -2.620858885E-02 3.983819540E-02
 6.864204407E-01 -2.438166365E-02 6.074864406E-02
 6.988811493E-01 -2.262027934E-02 7.708787595E-02
 7.135939002E-01 -2.054113336E-02 9.231243699E-02
 7.262985706E-01 -1.874107495E-02 1.139298246E-01
 7.376734614E-01 -1.718293503E-02 1.324438453E-01
 7.499122024E-01 -1.554744784E-02 1.426681541E-01
 7.625282407E-01 -1.388650667E-02 1.589443206E-01
 7.754194736E-01 -1.225680858E-02 1.720641843E-01
 7.873677015E-01 -1.077434979E-02 1.874124250E-01
 7.998957038E-01 -9.270500392E-03 2.008577790E-01
 8.108410239E-01 -7.974471897E-03 2.176523993E-01
 8.225021362E-01 -6.700729486E-03 2.297493574E-01
 8.345531225E-01 -5.401166156E-03 2.418497242E-01
 8.470258713E-01 -4.185524303E-03 2.585795717E-01
 8.589019179E-01 -3.089021426E-03 2.665863336E-01
 8.707102537E-01 -2.094174968E-03 2.805192232E-01
 8.829416633E-01 -1.191865187E-03 2.884968042E-01
 8.960949779E-01 -3.622967051E-04 2.967084369E-01
 9.062466621E-01 1.677343244E-04 3.043868007E-01
 9.161130786E-01 5.980550195E-04 3.083732916E-01
 9.253600240E-01 9.123931522E-04 3.100463937E-01
 9.346901774E-01 1.137288054E-03 3.140126481E-01
 9.468262792E-01 1.320417738E-03 3.042090051E-01
 9.607459307E-01 1.360797090E-03 3.207849214E-01
 9.759272337E-01 1.210787450E-03 2.936186950E-01
 9.891934395E-01 9.027863271E-04 3.348412252E-01
 -5.000000000E-01 -1.000000000E+00 2.052105409E-02
 3.500000000E+00 -1.000000000E+00 1.394803824E-02
 3.500000000E+00 1.000000000E+00 1.934610442E-03
 -5.000000000E-01 1.000000000E+00 -1.624063131E-03
 -5.000000000E-01 5.000000000E-01 2.756896759E-02
 -5.000000000E-01 2.752797990E-12 8.342985554E-02
 -5.000000000E-01 -5.000000000E-01 5.106195677E-02
 -9.421907698E-13 -1.000000000E+00 1.321718975E-02
 5.000000000E-01 -1.000000000E+00 -8.927653540E-03
 1.000000000E+00 -1.000000000E+00 7.372761610E-03
 1.500000000E+00 -1.000000000E+00 2.571979382E-02
 2.000000000E+00 -1.000000000E+00 2.355349774E-02
 2.500000000E+00 -1.000000000E+00 1.726095538E-02
 3.000000000E+00 -1.000000000E+00 1.419553260E-02
 3.500000000E+00 -5.000000000E-01 1.564903802E-02
 3.500000000E+00 -2.752797990E-12 1.458565021E-02
 3.500000000E+00 5.000000000E-01 7.291802662E-03
 3.000000000E+00 1.000000000E+00 -1.159453308E-03
 2.500000000E+00 1.000000000E+00 -7.252620511E-03
 2.000000000E+00 1.000000000E+00 -1.985826271E-02
 1.500000000E+00 1.000000000E+00 -4.919472412E-02
 1.000000000E+00 1.000000000E+00 -8.744045026E-02
 5.000000000E-01 1.000000000E+00 -7.944115496E-02
 1.733724275E-12 1.000000000E+00 -2.488204551E-02
 6.793682184E-01 -3.608581987E-02 4.532253530E-02
 7.837695491E-01 -2.044001137E-02 1.763537842E-01
 9.022554429E-01 -8.010719614E-03 2.920749544E-01
 7.092026591E-01 5.719425435E-02 -2.875164221E-01
 2.767252708E-01 6.252777934E-02 -3.573318822E-01
 2.777436415E-01 -6.969158805E-02 -3.729844800E-01
 9.098603887E-01 3.105011161E-02 -9.361149913E-02
 8.101534802E-01 4.301949075E-02 -2.044712532E-01
 6.142753024E-01 6.347821516E-02 -3.679321101E-01
 5.532933364E-01 -5.644232760E-02 -1.663094184E-01
 3.826794854E-01 -6.956414906E-02 -4.212941688E-01
 4.238953861E-01 6.935224722E-02 -4.135188505E-01
 5.144350535E-01 6.761999973E-02 -4.186702788E-01
 1.838906806E+00 -5.991107019E-01 2.417576200E-02
 1.756900174E+00 5.881199480E-01 -1.553668917E-02
 3.031178624E+00 2.156825919E-01 8.591423490E-03
 7.653384576E-01 -5.376985796E-01 1.651259611E-02
 4.583160693E-01 -6.970421329E-02 -3.434324084E-01
 3.027650931E-01 -6.437685368E-01 -3.293343293E-02
 1.134502803E-01 -5.552852288E-02 -2.082391558E-01
 1.802149369E-01 -6.148515095E-02 -2.847409976E-01
 7.515174045E-01 5.652924833E-01 -1.191188383E-01
 2.734840399E+00 -5.326991913E-01 1.359967078E-02
 1.146260744E+00 7.147736173E-01 -6.230142757E-02
 9.966853494E-01 3.298779525E-01 -5.835088448E-02
 1.239708865E+00 -6.330004121E-01 3.577186878E-02
 1.490066229E+00 -2.755523278E-01 3.038876082E-02
 3.327180818E-01 6.147446049E-01 -1.057335341E-01
 9.891950337E-02 4.155328162E-02 -2.610576645E-01
 1.644750735E-01 5.392123501E-02 -2.924355962E-01
 2.249355664E+00 -5.885879684E-01 1.615899485E-02
 1.982741590E+00 -2.180546795E-01 1.465651294E-02
 2.413253276E+00 -1.876041292E-01 1.015615202E-02
 2.184594816E+00 1.581645835E-01 4.543003785E-03
 1.777431805E+00 1.256542226E-01 5.948553989E-03
 -2.735610680E-01 2.316999700E-01 7.221169044E-02
 -9.936385920E-02 6.203518749E-01 -1.968742158E-02
 3.252546911E-02 3.278911052E-01 -3.907136736E-02
 4.470723988E-02 3.303885239E-02 -1.866418037E-01
 -2.710094628E-01 -2.367522185E-01 9.427306962E-02
 -6.903125021E-02 -6.056633707E-01 1.301444136E-02
 1.099726011E-01 -3.505468270E-01 -3.999595279E-02
 2.203022901E+00 5.865841144E-01 -4.762433024E-03
 2.740003206E+00 6.014153233E-01 2.205354824E-03
 -2.348051755E-01 -4.814258973E-03 1.356987768E-01
 -1.269534380E-01 1.259862258E-01 1.226456258E-01
 -1.186435508E-01 -1.418442594E-01 1.460285525E-01
 6.286328004E-02 -4.014562503E-02 -1.364137147E-01
 -6.761702775E-02 -3.138930637E-01 4.400204898E-02
 -3.017933662E-03 -1.715386692E-01 6.690213736E-02
 3.048008819E-02 -3.034124240E-02 1.812156705E-02
 1.644140910E-01 -2.150973426E-01 -1.185866521E-01
 2.294283086E-01 -6.705574638E-02 -3.312170090E-01
 -3.648031308E-02 -9.794945418E-02 2.086436503E-01
 -1.088697927E-01 -2.415969623E-02 2.422073846E-01
 -6.972308804E-02 5.481076822E-02 2.246046858E-01
 2.878278940E-02 -1.060814424E-01 5.436007757E-02
 3.109356281E+00 -2.612815587E-01 1.341673082E-02
 -4.340269855E-02 -3.642433461E-02 4.179448958E-01
 -5.032149960E-02 1.110852158E-02 4.422568549E-01
 -2.052169374E-02 5.265604894E-02 2.512772178E-01
 2.333321653E-02 2.225307671E-02 -1.458900454E-01
 -3.859741533E-02 1.020423805E-01 1.276677979E-01
 2.619533210E-02 1.026102601E-01 -3.100334687E-02
 -2.177389120E-02 1.823682815E-01 3.551999515E-02
 7.468787015E-02 1.940213764E-01 -8.909628883E-02
 2.145605181E-01 5.749297607E-02 -3.237301064E-01
 1.679644765E-01 2.799522728E-01 -1.537369412E-01
 3.497100418E-01 6.527546779E-02 -3.912056583E-01
 3.846451294E-01 6.725494420E-02 -4.039741829E-01
 3.165227787E-01 6.910430820E-02 -3.727571719E-01
 1.911784036E-01 5.513123404E-02 -3.099145170E-01
 2.211767137E-01 1.809132294E-01 -2.252069092E-01
 2.865709437E-01 2.584790520E-01 -2.192535253E-01
 3.030303441E-01 1.643948863E-01 -2.848152626E-01
 3.707669208E-01 2.182957882E-01 -2.726524459E-01
 3.760848624E-01 1.413139233E-01 -3.313268894E-01
 4.403260146E-01 1.795358752E-01 -3.128195776E-01
 5.641068310E-01 6.705623622E-02 -3.988494230E-01
 5.382708701E-01 6.692450102E-02 -4.107358960E-01
 4.786010710E-01 6.606837598E-02 -4.243578595E-01
 4.484876157E-01 2.707776870E-01 -2.498869339E-01
 5.328612897E-01 2.058698504E-01 -2.899197765E-01
 5.442121665E-01 3.423401472E-01 -2.155385274E-01
 6.347742357E-01 2.593667406E-01 -2.269781387E-01
 6.597962293E-01 5.952326701E-02 -3.315186482E-01
 6.194263197E-01 1.587862429E-01 -2.920980618E-01
 7.141382750E-01 1.804142145E-01 -2.249442952E-01
 7.599290053E-01 4.773189814E-02 -2.466394268E-01
 7.396931188E-01 2.675069909E-01 -1.856581391E-01
 8.207602311E-01 1.987565826E-01 -1.523505440E-01
 8.617918207E-01 3.707944749E-02 -1.614151677E-01
 8.360871488E-01 3.787119420E-02 -1.870185546E-01
 7.778385016E-01 1.300207302E-01 -2.020110148E-01
 8.622220036E-01 1.314035978E-01 -1.297425929E-01
 9.594574039E-01 2.034387751E-02 2.426805011E-02
 6.747721700E-01 1.201900012E-01 -2.823278469E-01
 5.488360503E-01 1.366571755E-01 -3.417620536E-01
 2.472761584E-01 1.213923434E-01 -2.902024903E-01
 1.826306195E-01 1.144352747E-01 -2.504745695E-01
 1.357030949E-01 4.762142101E-02 -2.842015121E-01
 5.916380897E-01 1.111278869E-01 -3.409473398E-01
 5.903244265E-01 6.619026292E-02 -3.834701556E-01
 9.080023050E-01 1.969599766E-01 -8.551465115E-02
 9.547457769E-01 1.231786824E-01 -3.774586676E-02
 9.016299684E-01 8.405663801E-02 -8.876186623E-02
 8.857822497E-01 3.429531081E-02 -1.327653666E-01
 1.002834382E+00 2.078502758E-01 -2.550168570E-02
 1.046455559E+00 1.149081187E-01 3.515430186E-02
 1.110315699E+00 2.529601811E-01 -1.599558243E-02
 1.204696809E+00 1.345178763E-01 2.840010187E-02
 1.298290074E+00 2.865856129E-01 -2.138818152E-03
 1.401571867E+00 8.923515329E-02 1.869319808E-02
 1.266934153E+00 -6.273448394E-02 4.745321057E-02
 1.127458113E+00 2.270332471E-02 7.700111077E-02
 8.181405885E-01 9.470175143E-02 -1.768834068E-01
 8.751617255E-02 1.150690196E-01 -1.573581491E-01
 3.284388833E-01 1.179915723E-01 -3.314458485E-01
 4.298976963E-01 1.167900323E-01 -3.646640977E-01
 4.852184103E-01 1.279324216E-01 -3.586707204E-01
 1.057217385E+00 4.659248773E-02 8.211580123E-02
 6.814586672E-01 3.827183502E-01 -1.674727797E-01
 9.882541793E-01 7.701250422E-02 2.981101148E-02
 1.441427538E-01 4.491313547E-01 -7.905887277E-02
 5.206131608E-01 1.061475352E-01 -3.752976491E-01
 4.302898627E-01 3.985533414E-01 -1.848699159E-01
 4.633928948E-01 9.394103968E-02 -3.931839964E-01
 4.496500119E-01 7.155999298E-02 -4.147050243E-01
 6.330429291E-02 7.580463182E-02 -1.513899654E-01
 7.494067952E-02 3.980636498E-02 -2.391723296E-01
 3.648131210E-01 9.760467022E-02 -3.672894888E-01
 3.954136822E-01 1.038175225E-01 -3.731221968E-01
 1.584236523E+00 3.128976871E-01 -1.644262371E-03
 5.529412760E-01 1.009731254E-01 -3.702308450E-01
 2.207573921E-03 -6.094868381E-02 2.508563775E-01
 1.088431509E-02 -2.140369758E-02 2.468954000E-01
 2.146363276E-01 9.073266928E-02 -2.891707451E-01
 2.377966863E-01 5.971496410E-02 -3.366318118E-01
 3.803063619E-02 -6.851746806E-02 -3.698001293E-03
 4.591237499E-02 -3.572104940E-02 -8.110698091E-02
 7.537766796E-02 -8.725980979E-02 -9.165537973E-02
 7.770691486E-02 -4.567948243E-02 -1.672573226E-01
 9.255135239E-02 -1.489928598E-01 -7.055898084E-02
 1.488732137E-01 -5.956560080E-02 -2.569459967E-01
 1.263913542E-01 -1.009671479E-01 -1.681204157E-01
 5.617124841E-01 5.150124629E-01 -1.608074251E-01
 3.630011937E-01 6.671055331E-02 -3.960420966E-01
 1.416663443E+00 5.239995224E-01 -2.398714096E-02
 4.905341214E-01 6.709740174E-02 -4.212373127E-01
 4.826719692E-01 8.034268694E-02 -4.083962408E-01
 5.038929729E-01 8.186288793E-02 -4.034393640E-01
 8.537214663E-01 3.344991589E-01 -1.202322149E-01
 1.015150110E+00 4.060111877E-02 1.015970906E-01
 9.852073758E-01 1.333471570E-02 1.400568037E-01
 1.052787612E+00 2.292727579E-04 1.240263782E-01
 1.091360516E+00 -4.814780410E-02 1.145183226E-01
 9.718359638E-01 -1.353256596E-02 2.820155438E-01
 4.115894268E-01 6.592210933E-02 -4.135291058E-01
 9.106580957E-01 -7.027379263E-03 2.948660497E-01
 9.070401893E-01 -1.932551599E-02 2.786720660E-01
 8.417995856E-01 -1.515707377E-02 2.384353564E-01
 8.656704123E-01 -1.230568116E-02 2.628851029E-01
 9.296669449E-01 -7.363541303E-03 2.975798083E-01
 4.669569333E-01 7.069576631E-02 -4.185554825E-01
 4.364706857E-01 8.347217283E-02 -4.014545705E-01
 4.122170226E-01 8.379913000E-02 -3.938221798E-01
 2.523459772E-01 6.129654157E-02 -3.448036290E-01
 2.447012288E-01 8.242473463E-02 -3.197929139E-01
 2.723793952E-01 9.691317972E-02 -3.282401699E-01
 3.046269654E-01 9.053941121E-02 -3.447849754E-01
 2.644910248E-01 7.492565570E-02 -3.406590890E-01
 8.767695295E-01 -1.377829715E-02 2.705512852E-01
 3.011546243E-01 6.706138020E-02 -3.656634785E-01
 2.646669943E-01 5.956924752E-02 -3.524653219E-01
 9.417242056E-01 -1.149559517E-02 2.940457935E-01
 9.562387377E-01 -1.037192132E-02 2.996395160E-01
 8.550171166E-01 -1.566061323E-02 2.529701566E-01
 8.494463178E-01 -2.853738012E-02 2.350082301E-01
 8.170731958E-01 -1.924786293E-02 2.121750010E-01
 8.281283031E-01 -1.543059980E-02 2.258247343E-01
 8.063972725E-01 -1.839734846E-02 2.024203577E-01
 7.961167133E-01 -2.161314255E-02 1.893593272E-01
 7.871243147E-01 -3.659799627E-02 1.697391170E-01
 7.320532601E-01 -2.706913166E-02 1.162670107E-01
 7.587016278E-01 -2.388513480E-02 1.488530868E-01
 7.203912071E-01 -3.089762095E-02 9.988892667E-02
 2.251395535E-01 7.115147669E-02 -3.195341129E-01
 7.460449994E-01 -3.082594412E-02 1.298165549E-01
 9.702877685E-02 7.401947260E-02 -2.019020471E-01
 1.303073856E-01 9.245825117E-02 -2.157610366E-01
 5.669615088E-02 4.943254735E-02 -1.732935077E-01
 2.633509613E-02 5.996661664E-02 -2.954717624E-02
 2.976742830E-02 4.146475596E-02 -7.694939098E-02
 2.569066305E-03 3.783145562E-02 1.171883874E-01
 9.593544893E-03 1.257010158E-02 -5.351682228E-02
 -1.291594438E-02 1.515187255E-02 4.885295172E-01
 1.236339218E-02 2.744873332E-02 -7.425895682E-03
 1.375188633E-02 1.524669282E-02 -1.274343415E-01
 -6.054115751E-04 2.019669237E-02 2.335851104E-01
 6.772891802E-03 1.476428329E-02 3.995162526E-02
 2.361784507E-03 8.605080044E-03 -1.240495679E-01
 2.859694655E-01 7.611478410E-02 -3.490717129E-01
 3.991524614E-01 6.822463244E-02 -4.073447269E-01
 1.416570952E+00 -1.122684644E-01 3.539707001E-02
 2.554699482E+00 2.095907213E-01 4.480853112E-03
 8.910423247E-01 -1.129220588E-02 2.814931081E-01
 3.333376545E-01 8.563158427E-02 -3.664532242E-01
 -1.190593240E-01 2.638769394E-01 3.600296752E-02
 2.264683389E-01 5.632832420E-02 -3.337071308E-01
 4.857008622E-02 -4.838954042E-02 -6.126059451E-02
 3.004973519E-02 -4.694778748E-02 6.015282504E-02
 1.393933473E-02 -3.631793170E-02 1.532420791E-01
 -4.402581971E-03 -2.413503052E-02 4.398090045E-01
 5.683898120E-03 -1.478361538E-02 4.378113784E-01
 6.422105289E-02 -5.821262960E-02 -8.409062102E-02
 2.095347403E-02 -2.476048166E-02 7.681585388E-02
 -1.272720292E-02 -5.311750010E-03 6.643520676E-01
 1.867921891E-01 8.425482030E-02 -2.801999414E-01
 1.579708687E-01 7.803119944E-02 -2.648998280E-01
 1.482998468E-01 5.628965463E-02 -2.751422595E-01
 8.939961432E-02 -4.563871955E-02 -1.924385395E-01
 9.770906700E-02 -6.964884953E-02 -1.676572733E-01
 1.230406964E-01 -7.350077397E-02 -1.991406364E-01
 9.828223671E-02 -5.141552994E-02 -1.880024945E-01
 8.303934882E-02 -5.937721182E-02 -1.436660138E-01
 3.304971475E-01 6.732549286E-02 -3.807486192E-01
 9.190200841E-01 -9.497648878E-03 2.929023119E-01
 9.252821720E-01 -2.477990488E-02 2.738903151E-01
 9.087193547E-01 -4.348242558E-02 2.505649405E-01
 9.564590191E-01 -2.868182699E-02 2.714086542E-01
 9.866399862E-01 -3.309693977E-02 2.348522065E-01
 9.731984516E-01 -6.110548353E-02 2.282528795E-01
 8.892382397E-01 -2.891732790E-02 2.590241115E-01
 8.816552278E-01 -5.492595648E-02 2.255854203E-01
 1.038536062E+00 -4.619235843E-02 1.635856950E-01
 1.019782273E+00 -9.963761242E-02 1.631478961E-01
 9.350675153E-01 -5.701848591E-02 2.337450246E-01
 9.497857307E-01 -1.047111975E-01 1.809186224E-01
 9.710230795E-01 -1.578339572E-01 1.417579284E-01
 8.919388232E-01 -1.604365530E-01 1.452833803E-01
 1.052130202E+00 -1.994061039E-01 1.113102954E-01
 9.384092439E-01 -2.446275519E-01 1.025525203E-01
 8.265092796E-01 -2.339841233E-01 8.538809822E-02
 6.140667932E-01 -4.828773219E-02 -5.431387061E-02
 7.817333338E-01 -1.524475231E-01 9.770892097E-02
 7.213961367E-01 -2.118235189E-01 3.063028058E-02
 7.297687869E-01 -4.317706123E-02 1.070465076E-01
 6.836097223E-01 -1.336448990E-01 2.212218560E-02
 6.261683653E-01 -1.991287448E-01 -3.929594990E-02
 7.099943549E-01 -4.621376651E-02 7.939397746E-02
 7.254409275E-01 -6.284155385E-02 9.256988777E-02
 6.954339753E-01 -7.638819894E-02 4.720961246E-02
 7.510137018E-01 -6.161869066E-02 1.211282069E-01
 6.205809313E-01 -1.266832760E-01 -4.832070068E-02
 6.364488180E-01 -2.806965509E-01 -2.847514400E-02
 5.318865690E-01 -2.683018028E-01 -1.061341006E-01
 1.043207059E+00 -3.305823353E-01 7.517604049E-02
 6.046766273E-01 -3.970254756E-01 -3.834584623E-02
 4.050735497E-01 -3.599428985E-01 -1.049124856E-01
 3.714705223E-01 -2.289705891E-01 -2.022236936E-01
 3.314005492E-01 -6.912362898E-02 -4.123255746E-01
 3.037065220E-01 -7.329985523E-02 -3.876786734E-01
 3.523958939E-01 -6.964607738E-02 -4.183474720E-01
 4.932973084E-01 -1.680272149E-01 -1.796462418E-01
 4.246393783E-01 -6.899990972E-02 -3.925923813E-01
 5.096889115E-01 -6.218082791E-02 -2.556495260E-01
 4.852529068E-01 -6.587204768E-02 -3.012369763E-01
 1.220249882E+00 -2.458559566E-01 6.455490124E-02
 2.631260557E-01 -2.862143692E-01 -1.392276036E-01
 2.879400036E-01 -1.812991945E-01 -2.277724866E-01
 2.176958748E-01 -1.584048526E-01 -2.119465645E-01
 3.542815475E-01 -1.538457070E-01 -2.794641707E-01
 3.041482407E-01 -1.264533832E-01 -3.122209844E-01
 7.387088601E-01 -9.800289833E-02 8.804230415E-02
 8.885078019E-01 -3.626231107E-01 5.705566842E-02
 1.008805931E+00 -5.047860084E-01 4.574878494E-02
 7.812498531E-01 -8.838097724E-02 1.337737561E-01
 3.436571634E-01 -1.119041274E-01 -3.415376257E-01
 3.860921959E-01 -1.147255063E-01 -3.327235977E-01
 6.536889433E-01 -9.678106191E-02 -3.596784489E-03
 6.544838562E-01 -4.194950767E-02 8.619681248E-03
 6.138705346E-01 -8.419409762E-02 -5.725925703E-02
 5.905111778E-01 -5.208081812E-02 -9.346060803E-02
 5.733304156E-01 -1.008791944E-01 -1.180007378E-01
 5.638539692E-01 -1.588917333E-01 -1.077256955E-01
 2.551715715E-01 -4.558415378E-01 -4.440786350E-02
 5.233840545E-01 -1.170516201E-01 -1.915328273E-01
 4.698014840E-01 -1.200496508E-01 -2.597715978E-01
 5.417813422E-01 -8.706120437E-02 -1.737378096E-01
 6.285600230E-01 -4.795751570E-02 -2.922727989E-02
 4.966852999E-01 -9.581202070E-02 -2.441702419E-01
 8.298138522E-01 -1.214415249E-01 1.451748801E-01
 8.234390780E-01 -6.715989617E-02 1.789019348E-01
 8.299129772E-01 -3.237782684E-02 2.139844535E-01
 5.223497617E-01 -5.850107825E-02 -2.309702488E-01
 5.187907265E-01 -7.691374503E-02 -2.176548058E-01
 6.652372116E-01 -6.908365263E-02 1.541850429E-02
 6.389778186E-01 -6.796211133E-02 -1.548719733E-02
 6.044731416E-01 -6.219611225E-02 -7.139509793E-02
 5.840726931E-01 -6.943022155E-02 -1.048097956E-01
 5.384501235E-01 -6.395560659E-02 -1.938872066E-01
 6.423995654E-01 -4.626043988E-02 -8.567405738E-03
 6.020186789E-01 -4.756871565E-02 -7.422879206E-02
 1.013932242E+00 -2.013003035E-02 2.274179703E-01
 8.676616966E-01 -2.922557952E-02 2.473786957E-01
 8.528303627E-01 -4.987560055E-02 2.161371457E-01
 1.633049103E+00 -1.207412292E-01 2.224505138E-02
 3.643367060E-01 -9.463339863E-02 -3.726652205E-01
 3.112574260E-01 -9.379296833E-02 -3.546844674E-01
 2.818889323E-01 -1.005101214E-01 -3.322980724E-01
 2.529182014E-01 -6.787900217E-02 -3.517343633E-01
 2.648640109E-01 -6.663641263E-02 -3.652132304E-01
 2.638133740E-01 -8.271728623E-02 -3.430437882E-01
 2.491356390E-01 -1.111817248E-01 -2.924889960E-01
 2.028333509E-01 -1.101060851E-01 -2.446777037E-01
 2.050151285E-01 -6.571337532E-02 -3.082872664E-01
 2.426236955E-01 -7.997276833E-02 -3.231084796E-01
 3.408078997E-01 -8.452758417E-02 -3.903446570E-01
 3.672639900E-01 -7.660752154E-02 -4.062137756E-01
 2.883144878E-01 -8.158362884E-02 -3.620372857E-01
 1.623436765E-01 -1.379332876E-01 -1.907481358E-01
 1.652644502E-01 -9.674517882E-02 -2.262292648E-01
 1.439189240E-01 -7.790532936E-02 -2.249682612E-01
 1.629884025E-01 -6.868320830E-02 -2.598988891E-01
 1.897832174E-01 -7.833702318E-02 -2.784527109E-01
 3.830427783E-01 -8.686082451E-02 -3.829032119E-01
 4.030244978E-01 -8.722439305E-02 -3.727181989E-01
 4.277862379E-01 -1.118575447E-01 -3.154092511E-01
 4.234802742E-01 -1.605635817E-01 -2.487222075E-01
 4.488869678E-01 -9.254508896E-02 -3.174890164E-01
 4.403991043E-01 -7.612831555E-02 -3.624364695E-01
 4.758860570E-01 -8.355279004E-02 -2.914067156E-01
 5.599445275E-01 -7.286913190E-02 -1.460976194E-01
 5.687392540E-01 -5.944623692E-02 -1.353680588E-01
 9.918398062E-01 -1.313749623E-02 3.438271145E-01
 1.182992100E-01 6.994410001E-02 -2.398013830E-01
 1.135310833E-01 5.039219552E-02 -2.595184698E-01
 8.709976537E-02 5.365824643E-02 -2.225898976E-01
 2.909521472E-01 -6.854640732E-02 -3.854696845E-01
 1.318888399E-01 -5.669962027E-02 -2.354264671E-01
 1.780402146E-01 6.666909109E-02 -2.945462024E-01
 2.019102279E-01 6.860896173E-02 -3.040416317E-01
 5.450753015E-01 -6.240869325E-01 -2.623313368E-02
 3.550906468E-01 8.008740821E-02 -3.791936985E-01
 3.719964847E-01 7.637154608E-02 -3.902512824E-01
 2.891591371E-01 6.147477292E-02 -3.656270380E-01
 2.868696010E-01 4.027169158E-01 -1.648319506E-01
 4.497819243E-01 -2.341062579E-01 -1.626094151E-01
 7.075490452E-01 -3.108861390E-02 8.291035491E-02
 6.948846145E-01 -3.517026936E-02 6.718041851E-02
 5.758029975E-01 8.153345291E-02 -3.771820044E-01
 6.041949941E-01 8.187710356E-02 -3.607280991E-01
 6.282691513E-01 7.333413506E-02 -3.489095161E-01
 6.373222864E-01 6.052136498E-02 -3.499468237E-01
 6.494221502E-01 7.470359049E-02 -3.309279568E-01
 6.699211477E-01 6.901394920E-02 -3.168522354E-01
 6.828332417E-01 5.704860613E-02 -3.125367813E-01
 6.939436656E-01 7.520413519E-02 -2.897171665E-01
 6.347146904E-01 1.019427520E-01 -3.214934502E-01
 7.229245862E-01 1.119174356E-01 -2.473448834E-01
 7.590052165E-01 9.102629755E-02 -2.325170000E-01
 7.889218013E-01 7.382774951E-02 -2.072293631E-01
 7.864310142E-01 5.061389459E-02 -2.239374942E-01
 7.245306050E-01 7.613636649E-02 -2.648190287E-01
 7.342993528E-01 4.825082131E-02 -2.672106046E-01
 7.447107776E-01 4.711893779E-02 -2.589198607E-01
 7.985871420E-01 4.314550342E-02 -2.146916475E-01
 7.729394478E-01 4.569796808E-02 -2.352013152E-01
 7.686687499E-01 6.420235830E-02 -2.342786547E-01
 7.411661290E-01 6.283748573E-02 -2.528448063E-01
 7.251207406E-01 5.426394403E-02 -2.743242299E-01
 8.075837120E-01 5.918371248E-02 -2.000830824E-01
 8.333136650E-01 6.828169179E-02 -1.776233184E-01
 5.510124357E-01 7.913298441E-02 -3.937563615E-01
 6.955840678E-01 5.511599755E-02 -3.011248841E-01
 8.082279313E-01 -3.550682306E-02 1.955205230E-01
 7.963234091E-01 -5.757644418E-02 1.597807450E-01