TITLE     = "Visualization of the solution"
VARIABLES = "x"
"y"
"Pressure_Coefficient"
ZONE T="Zone"
 STRANDID=0, SOLUTIONTIME=0
 Nodes=695, Elements=1175, ZONETYPE=FEQuadrilateral
 DATAPACKING=POINT
 DT=(DOUBLE DOUBLE DOUBLE )
 1.000232458E+00 5.305392551E-04 1.951682357E-01
 9.875593185E-01 2.889581956E-03 1.975333407E-01
 9.757899642E-01 5.061229691E-03 1.047550339E-01
 9.616284966E-01 7.584818173E-03 7.277084752E-02
 9.486439824E-01 9.948816150E-03 2.602107355E-02
 9.363288283E-01 1.215178519E-02 -1.357286836E-02
 9.257898331E-01 1.404547598E-02 -4.606064003E-02
 9.133253694E-01 1.614956185E-02 -7.416530396E-02
 9.020369053E-01 1.805296913E-02 -1.055796510E-01
 8.897963166E-01 2.000388503E-02 -1.227854706E-01
 8.771277070E-01 2.190441079E-02 -1.392426246E-01
 8.651600480E-01 2.367526107E-02 -1.598335281E-01
 8.525738716E-01 2.544936724E-02 -1.675471312E-01
 8.405238390E-01 2.705432102E-02 -1.741228578E-01
 8.286383748E-01 2.863599546E-02 -1.892841199E-01
 8.155268431E-01 3.034570627E-02 -1.952809215E-01
 8.019780517E-01 3.201031685E-02 -2.056068382E-01
 7.900512815E-01 3.350631520E-02 -2.186142134E-01
 7.774810791E-01 3.501004726E-02 -2.268636300E-01
 7.650490999E-01 3.647214919E-02 -2.377742395E-01
 7.518482804E-01 3.799246624E-02 -2.492677053E-01
 7.377222180E-01 3.958947212E-02 -2.629892873E-01
 7.265875340E-01 4.080976918E-02 -2.730446969E-01
 7.151533365E-01 4.203966632E-02 -2.809209483E-01
 7.031193972E-01 4.328398034E-02 -2.944662612E-01
 6.893030405E-01 4.471431300E-02 -3.074219219E-01
 6.758146882E-01 4.601594806E-02 -3.197285502E-01
 6.655406952E-01 4.700778425E-02 -3.326090014E-01
 6.535336375E-01 4.809315130E-02 -3.388578544E-01
 6.423504353E-01 4.907540604E-02 -3.513237725E-01
 6.303538084E-01 5.010310933E-02 -3.642953106E-01
 6.190256476E-01 5.101094395E-02 -3.769639504E-01
 6.079999804E-01 5.185467005E-02 -3.834921174E-01
 5.952084064E-01 5.274384096E-02 -3.898171563E-01
 5.831311345E-01 5.355728045E-02 -4.008972902E-01
 5.694559216E-01 5.439740792E-02 -4.122197040E-01
 5.565105081E-01 5.512935668E-02 -4.186070581E-01
 5.436835289E-01 5.576284230E-02 -4.258366543E-01
 5.326531529E-01 5.626599863E-02 -4.293674395E-01
 5.205173492E-01 5.673962831E-02 -4.328280651E-01
 5.074040890E-01 5.719041452E-02 -4.384621228E-01
 4.963057637E-01 5.751033500E-02 -4.405134511E-01
 4.829469919E-01 5.781813711E-02 -4.432683463E-01
 4.698378146E-01 5.803884566E-02 -4.426487589E-01
 4.552500546E-01 5.820441619E-02 -4.443615588E-01
 4.412522912E-01 5.826707184E-02 -4.428035934E-01
 4.280952215E-01 5.825419724E-02 -4.416862102E-01
 4.148712456E-01 5.816023797E-02 -4.396488782E-01
 4.024547040E-01 5.800184235E-02 -4.351192026E-01
 3.898950815E-01 5.778319016E-02 -4.321376910E-01
 3.776792288E-01 5.750891566E-02 -4.329116109E-01
 3.667733967E-01 5.721956119E-02 -4.250298171E-01
 3.534759879E-01 5.677295104E-02 -4.209968318E-01
 3.415139318E-01 5.633389577E-02 -4.155339227E-01
 3.289533257E-01 5.579776689E-02 -4.120847968E-01
 3.185996115E-01 5.532011017E-02 -4.093846415E-01
 3.064722419E-01 5.469869077E-02 -4.017964799E-01
 2.933247983E-01 5.395137519E-02 -3.948451329E-01
 2.794305384E-01 5.309639871E-02 -3.888498483E-01
 2.667219639E-01 5.224540457E-02 -3.844488145E-01
 2.546453476E-01 5.137618631E-02 -3.779284051E-01
 2.420422435E-01 5.039299279E-02 -3.698202929E-01
 2.291163951E-01 4.932897538E-02 -3.634343099E-01
 2.168823779E-01 4.825199395E-02 -3.565313013E-01
 2.051046342E-01 4.715594649E-02 -3.506788071E-01
 1.937645227E-01 4.603367299E-02 -3.445542544E-01
 1.813706011E-01 4.474571720E-02 -3.361471663E-01
 1.694751382E-01 4.342314228E-02 -3.269794353E-01
 1.577408463E-01 4.206209257E-02 -3.214613564E-01
 1.458264589E-01 4.059190676E-02 -3.154303625E-01
 1.350729316E-01 3.919708356E-02 -3.087937694E-01
 1.238292456E-01 3.764919564E-02 -3.034156676E-01
 1.125094146E-01 3.601206094E-02 -2.926746122E-01
 1.018506959E-01 3.437543660E-02 -2.890083933E-01
 9.226319194E-02 3.281584755E-02 -2.810176170E-01
 8.133519441E-02 3.093458898E-02 -2.711569479E-01
 6.959385425E-02 2.874629572E-02 -2.632741029E-01
 6.011183932E-02 2.683905140E-02 -2.514334382E-01
 5.068582669E-02 2.478540316E-02 -2.590710365E-01
 4.199386016E-02 2.271868847E-02 -2.507657730E-01
 3.453842178E-02 2.076862007E-02 -2.294613213E-01
 2.813553996E-02 1.891905069E-02 -1.847181838E-01
 2.267763950E-02 1.717516035E-02 -1.776117815E-01
 1.874421351E-02 1.579299755E-02 -1.842303365E-01
 1.508040540E-02 1.436194871E-02 -1.570272361E-01
 1.249925699E-02 1.326011494E-02 -1.329862433E-01
 1.022437867E-02 1.219234336E-02 -1.413980145E-01
 8.551118895E-03 1.133178454E-02 -1.036358809E-01
 7.009094115E-03 1.047571655E-02 -1.075563633E-01
 5.587573629E-03 9.606108069E-03 -6.080586223E-02
 3.719793167E-03 8.312037215E-03 -3.486715876E-02
 2.104863757E-03 6.975873839E-03 1.506476782E-02
 6.951437099E-04 5.524769425E-03 1.654962965E-01
 -6.528575905E-04 3.591054352E-03 4.005010429E-01
 -1.321429037E-03 2.039104933E-03 4.396244914E-01
 -1.604383695E-03 8.000711678E-04 9.846757345E-01
 -1.670089434E-03 -7.206624141E-04 7.739871396E-01
 -1.363359625E-03 -2.520441776E-03 7.519239772E-01
 -5.577995908E-04 -4.567092750E-03 8.815558530E-01
 8.333042497E-04 -6.777316798E-03 5.871034920E-01
 2.873658901E-03 -9.126618505E-03 5.359833025E-01
 4.704771563E-03 -1.082224306E-02 4.332646743E-01
 6.850806531E-03 -1.253545471E-02 3.593332763E-01
 8.426143788E-03 -1.365706883E-02 2.662088275E-01
 1.041464508E-02 -1.495795045E-02 2.122322016E-01
 1.279557683E-02 -1.638019644E-02 1.845120775E-01
 1.596156694E-02 -1.808793284E-02 1.232240959E-01
 1.901531592E-02 -1.958466880E-02 7.978500164E-02
 2.293479070E-02 -2.134282701E-02 2.846012998E-02
 2.833742462E-02 -2.351791412E-02 -2.089613495E-02
 3.403223306E-02 -2.558534034E-02 -6.403102477E-02
 4.135762155E-02 -2.797292732E-02 -1.167991450E-01
 4.882321507E-02 -3.016975522E-02 -1.485546890E-01
 5.748376250E-02 -3.247559071E-02 -1.771016291E-01
 6.609856337E-02 -3.457042575E-02 -1.977076906E-01
 7.626153529E-02 -3.683843091E-02 -2.176816416E-01
 8.609510958E-02 -3.886209056E-02 -2.345948894E-01
 9.665355086E-02 -4.086717218E-02 -2.530836030E-01
 1.074974313E-01 -4.278725758E-02 -2.671856398E-01
 1.191800237E-01 -4.471001774E-02 -2.793071916E-01
 1.305026263E-01 -4.644653946E-02 -2.918333495E-01
 1.409427822E-01 -4.794803262E-02 -3.034815317E-01
 1.519294679E-01 -4.943866283E-02 -3.146281309E-01
 1.636743248E-01 -5.092919990E-02 -3.250235332E-01
 1.751822084E-01 -5.229885876E-02 -3.360858284E-01
 1.870769411E-01 -5.363073573E-02 -3.472376749E-01
 1.974603683E-01 -5.471254885E-02 -3.584033162E-01
 2.085659802E-01 -5.579783395E-02 -3.679274443E-01
 2.207905501E-01 -5.689450353E-02 -3.761004526E-01
 2.331869155E-01 -5.793377012E-02 -3.890285177E-01
 2.452656925E-01 -5.884178355E-02 -3.997613413E-01
 2.579593956E-01 -5.970605835E-02 -4.086968004E-01
 2.691949606E-01 -6.038306281E-02 -4.191199277E-01
 2.821539342E-01 -6.107579544E-02 -4.291260651E-01
 2.948562503E-01 -6.162847579E-02 -4.409393929E-01
 3.078435063E-01 -6.208765507E-02 -4.458790200E-01
 3.194563687E-01 -6.240036339E-02 -4.556739258E-01
 3.317836225E-01 -6.260632724E-02 -4.586861611E-01
 3.425005674E-01 -6.272042543E-02 -4.631428320E-01
 3.539234698E-01 -6.272658706E-02 -4.692868886E-01
 3.649761677E-01 -6.262176484E-02 -4.649186274E-01
 3.757761121E-01 -6.244821474E-02 -4.654819949E-01
 3.872507215E-01 -6.211974472E-02 -4.653365690E-01
 3.998714089E-01 -6.164653972E-02 -4.537737581E-01
 4.121655226E-01 -6.104473025E-02 -4.444631455E-01
 4.256561399E-01 -6.026500836E-02 -4.332275088E-01
 4.383196235E-01 -5.936262012E-02 -4.167367330E-01
 4.514705837E-01 -5.829395726E-02 -3.940276268E-01
 4.641264677E-01 -5.714521557E-02 -3.733238821E-01
 4.767264724E-01 -5.589418486E-02 -3.524603449E-01
 4.885706007E-01 -5.457707494E-02 -3.236671576E-01
 5.009375811E-01 -5.316350237E-02 -2.946817611E-01
 5.146267414E-01 -5.147610605E-02 -2.690612123E-01
 5.284357667E-01 -4.966932535E-02 -2.358572148E-01
 5.417294502E-01 -4.788429290E-02 -2.060921008E-01
 5.555474162E-01 -4.595511034E-02 -1.775721871E-01
 5.684359074E-01 -4.413516074E-02 -1.514256296E-01
 5.818324089E-01 -4.218206927E-02 -1.294417074E-01
 5.939866304E-01 -4.037198424E-02 -1.013201613E-01
 6.064700484E-01 -3.854215518E-02 -8.047606493E-02
 6.195946932E-01 -3.656288981E-02 -6.055047810E-02
 6.337064505E-01 -3.442962468E-02 -3.318935875E-02
 6.472685337E-01 -3.237719834E-02 -1.192798538E-02
 6.607128382E-01 -3.036455065E-02 8.446070749E-03
 6.744759083E-01 -2.832811698E-02 2.677419610E-02
 6.870624423E-01 -2.644836158E-02 4.438974133E-02
 6.995634437E-01 -2.459695376E-02 6.460207138E-02
 7.142382860E-01 -2.245759405E-02 8.224559977E-02
 7.271205187E-01 -2.058806643E-02 1.000442011E-01
 7.386917472E-01 -1.894835383E-02 1.177924919E-01
 7.510525584E-01 -1.721977070E-02 1.313527109E-01
 7.637059093E-01 -1.547155716E-02 1.495647618E-01
 7.765852213E-01 -1.377211791E-02 1.640803874E-01
 7.885392308E-01 -1.222062949E-02 1.758540317E-01
 8.010911345E-01 -1.062033884E-02 1.934262740E-01
 8.120523095E-01 -9.259833023E-03 2.106510288E-01
 8.235205412E-01 -7.921723649E-03 2.233665012E-01
 8.357474208E-01 -6.548921112E-03 2.348718598E-01
 8.480713964E-01 -5.258644465E-03 2.498794509E-01
 8.599575162E-01 -4.087688401E-03 2.612668799E-01
 8.716402650E-01 -3.027096624E-03 2.732061043E-01
 8.832641244E-01 -2.052793745E-03 2.863735039E-01
 8.965348601E-01 -1.136551029E-03 2.945241163E-01
 9.064993858E-01 -5.371476873E-04 3.022240086E-01
 9.163519740E-01 -3.190212374E-05 3.043156280E-01
 9.256496429E-01 3.511139075E-04 3.071728620E-01
 9.348930120E-01 6.407654146E-04 3.097776079E-01
 9.474757910E-01 9.104070487E-04 3.029392530E-01
 9.611852765E-01 1.043341472E-03 3.157865857E-01
 9.763796329E-01 9.979031747E-04 2.985424293E-01
 9.890860319E-01 7.929729763E-04 3.153793426E-01
 -5.000000000E-01 -1.000000000E+00 2.247481491E-02
 3.500000000E+00 -1.000000000E+00 1.372549922E-02
 3.500000000E+00 1.000000000E+00 2.288578359E-03
 -5.000000000E-01 1.000000000E+00 -1.941857585E-04
 -5.000000000E-01 5.000000000E-01 3.189575438E-02
 -5.000000000E-01 2.752797990E-12 8.751643444E-02
 -5.000000000E-01 -5.000000000E-01 5.189748232E-02
 -9.421907698E-13 -1.000000000E+00 1.049251084E-02
 5.000000000E-01 -1.000000000E+00 -1.591443163E-02
 1.000000000E+00 -1.000000000E+00 -2.157021625E-04
 1.500000000E+00 -1.000000000E+00 2.286493030E-02
 2.000000000E+00 -1.000000000E+00 2.254177569E-02
 2.500000000E+00 -1.000000000E+00 1.692190712E-02
 3.000000000E+00 -1.000000000E+00 1.408195493E-02
 3.500000000E+00 -5.000000000E-01 1.631237608E-02
 3.500000000E+00 -2.752797990E-12 1.643106077E-02
 3.500000000E+00 5.000000000E-01 8.462915196E-03
 3.000000000E+00 1.000000000E+00 -4.437490083E-04
 2.500000000E+00 1.000000000E+00 -6.266554259E-03
 2.000000000E+00 1.000000000E+00 -1.881550265E-02
 1.500000000E+00 1.000000000E+00 -4.607670957E-02
 1.000000000E+00 1.000000000E+00 -8.217780583E-02
 5.000000000E-01 1.000000000E+00 -8.001637372E-02
 1.733724275E-12 1.000000000E+00 -2.425149027E-02
 6.826761778E-01 -4.133290627E-02 3.362565740E-02
 7.844404273E-01 -2.348289368E-02 1.670516453E-01
 9.020331794E-01 -9.415809250E-03 2.833856314E-01
 5.902469896E-01 -5.394675743E-02 -1.096596536E-01
 6.980719946E-01 5.879618498E-02 -2.901897481E-01
 2.748013777E-01 6.654604755E-02 -3.758247272E-01
 2.721587393E-01 -7.194715187E-02 -4.036696675E-01
 9.098628494E-01 3.050085458E-02 -7.792409070E-02
 8.028519319E-01 4.304495039E-02 -2.028409297E-01
 6.013015735E-01 6.307486270E-02 -3.769957403E-01
 4.096498976E-01 7.133773883E-02 -4.215105802E-01
 5.063327637E-01 6.860578904E-02 -4.241844381E-01
 4.195355741E-01 -7.146406548E-02 -4.167587350E-01
 1.842527323E+00 -5.969221054E-01 2.307207687E-02
 1.737468403E+00 6.178359128E-01 -1.391733871E-02
 3.031173251E+00 2.156851302E-01 9.747186594E-03
 7.475107623E-01 -6.483976215E-01 -4.774280386E-03
 4.974161466E-01 -6.729890106E-02 -2.903177453E-01
 3.002804600E-01 -7.235639286E-01 -3.166911528E-02
 1.119703605E-01 -5.888825564E-02 -2.413378679E-01
 1.765456187E-01 -6.466722748E-02 -3.185725371E-01
 3.521971177E-01 -7.592457842E-02 -4.400206898E-01
 7.500000000E-01 5.669872981E-01 -1.205420770E-01
 2.734853366E+00 -5.326861434E-01 1.394582751E-02
 1.189795983E+00 6.127656018E-01 -4.977633883E-02
 9.441840908E-01 3.024092449E-01 -7.821916913E-02
 1.263350002E+00 -6.074927271E-01 3.413255431E-02
 1.512276501E+00 -2.469461710E-01 3.088774369E-02
 2.929520790E-01 6.458080799E-01 -9.480834817E-02
 1.066066375E-01 4.550592374E-02 -2.732346226E-01
 1.698002110E-01 5.720541188E-02 -3.136810761E-01
 2.249970447E+00 -5.882055336E-01 1.606022201E-02
 1.983250684E+00 -2.104069624E-01 1.499501538E-02
 2.413454321E+00 -1.862367846E-01 1.046682874E-02
 2.184637989E+00 1.582681863E-01 5.827900374E-03
 1.827084348E+00 1.182718751E-01 6.955781503E-03
 -2.738305243E-01 2.319848419E-01 7.966146816E-02
 -1.057532298E-01 6.250004223E-01 -1.730636021E-02
 3.100897342E-02 3.282909835E-01 -4.447838405E-02
 5.423702383E-02 3.527223248E-02 -2.160293244E-01
 -2.711209160E-01 -2.367976333E-01 1.032437723E-01
 -1.460556876E-01 -6.013637219E-01 1.778765608E-02
 1.202123780E-01 -3.700049790E-01 -4.225746000E-02
 2.206612956E+00 5.824704081E-01 -3.379413380E-03
 2.740599050E+00 6.007307917E-01 3.236216902E-03
 -2.350818160E-01 -4.652253349E-03 1.391338523E-01
 -1.273617630E-01 1.261898583E-01 1.339203021E-01
 -1.093752024E-01 -1.272007087E-01 1.637257498E-01
 6.208616946E-02 -4.225444161E-02 -1.590386617E-01
 -7.654998082E-02 -3.209497412E-01 4.017518026E-02
 2.693797610E-03 -1.801492354E-01 5.573835393E-02
 1.570390261E-01 -2.239918923E-01 -1.363498650E-01
 2.271776811E-01 -7.400589512E-02 -3.579734486E-01
 -2.570398209E-02 -1.036574493E-01 1.740977515E-01
 2.874227586E-02 -3.022028763E-02 2.397125059E-03
 -1.094260721E-01 -2.363635334E-02 2.558164099E-01
 -7.014976431E-02 5.514691652E-02 2.562078764E-01
 2.410200059E-02 2.213011319E-02 -1.724359050E-01
 2.697585687E-02 -1.073575275E-01 4.633626682E-02
 3.109363526E+00 -2.612700800E-01 1.434085695E-02
 -5.066883262E-02 -3.893129555E-02 3.509623044E-01
 -5.071427781E-02 1.128546598E-02 4.526731142E-01
 -2.661732816E-02 4.955180046E-02 2.750531426E-01
 -3.579790807E-02 1.020153541E-01 1.272940233E-01
 3.602091082E-02 1.140208981E-01 -2.551320293E-02
 -1.967464018E-02 1.844138589E-01 3.267487016E-02
 7.214793478E-02 1.797617946E-01 -9.933644577E-02
 2.026909026E-01 3.111822910E-01 -1.605719211E-01
 3.457169097E-01 7.116671785E-02 -4.033923083E-01
 3.144468273E-01 6.712283198E-02 -3.943682789E-01
 2.094067059E-01 1.642390751E-01 -2.485937601E-01
 2.086934244E-01 6.152950692E-02 -3.374066297E-01
 2.375226993E-01 6.291003140E-02 -3.547851857E-01
 9.382785450E-02 1.059758170E-01 -1.712788001E-01
 1.424467644E-01 5.123372355E-02 -3.008776347E-01
 1.489140963E-01 4.621864277E-01 -7.588826516E-02
 1.917919928E-03 -6.286557649E-02 2.523024678E-01
 9.816932652E-03 -1.810702835E-02 2.383324513E-01
 1.127306751E-02 6.638194568E-02 5.597749662E-02
 3.574527816E-02 2.879929310E-02 -1.739636465E-01
 5.548273666E-02 7.377634377E-02 -1.380490590E-01
 7.145141216E-02 4.254130972E-02 -2.298369479E-01
 3.678605710E-02 -7.006577402E-02 -2.613631358E-03
 4.511216484E-02 -3.728872562E-02 -1.014406905E-01
 7.819624685E-02 -9.125686965E-02 -1.106152543E-01
 7.977213407E-02 -4.996151911E-02 -1.945773889E-01
 9.017930919E-02 -1.566450132E-01 -8.563955484E-02
 1.448288751E-01 -6.087782062E-02 -2.848864013E-01
 1.291810630E-01 -1.116362477E-01 -1.893464022E-01
 3.160096347E-01 4.111574537E-01 -1.684476874E-01
 3.309319439E-01 2.593614210E-01 -2.431914991E-01
 4.425663957E-01 3.197412025E-01 -2.259998776E-01
 3.081750604E-01 1.642828074E-01 -3.019070949E-01
 4.291000171E-01 2.156908335E-01 -2.901655116E-01
 4.618094076E-01 7.492125029E-02 -4.233648843E-01
 5.268173597E-01 2.251886224E-01 -2.826463846E-01
 5.525803608E-01 6.715293189E-02 -4.059854667E-01
 5.294467536E-01 6.750963370E-02 -4.181315721E-01
 3.799821256E-01 1.360620994E-01 -3.506280654E-01
 4.804065345E-01 1.598532083E-01 -3.399382689E-01
 5.689220131E-01 1.515103177E-01 -3.168439003E-01
 6.131972376E-01 2.268731191E-01 -2.497603184E-01
 6.489188375E-01 5.971414137E-02 -3.375467798E-01
 6.715366470E-01 5.540940510E-02 -3.199655982E-01
 6.398560203E-01 1.493687883E-01 -2.880075820E-01
 6.999523109E-01 2.028121933E-01 -2.207022583E-01
 7.438229833E-01 5.149884038E-02 -2.518615336E-01
 7.176052176E-01 5.226079818E-02 -2.759218141E-01
 7.221996556E-01 1.366425720E-01 -2.318253926E-01
 6.075792242E-01 3.546242104E-01 -2.023275431E-01
 5.206566079E-01 1.183124609E-01 -3.663754868E-01
 5.991619978E-01 1.130653281E-01 -3.388540654E-01
 5.759724354E-01 6.839328410E-02 -3.901882517E-01
 6.788224358E-01 1.083347287E-01 -2.796027772E-01
 4.935941551E-01 4.976368166E-01 -1.615418018E-01
 7.634664110E-01 3.779097944E-01 -1.406206941E-01
 1.491915974E-01 1.372016120E-01 -2.079795950E-01
 1.337503253E-01 9.438793759E-02 -2.340830764E-01
 1.758353019E-01 1.008552641E-01 -2.684234582E-01
 2.397626747E-01 1.161956652E-01 -3.015600857E-01
 2.146083144E-01 9.334610782E-02 -3.093291161E-01
 1.543439003E-01 2.226033299E-01 -1.483357685E-01
 2.237740819E-01 5.945028198E-02 -3.507790705E-01
 -1.193799141E-01 2.645997755E-01 3.858915972E-02
 8.966997071E-02 7.186278938E-02 -2.091479493E-01
 1.134517364E-01 7.627952082E-02 -2.283906308E-01
 8.574946635E-02 5.293856534E-02 -2.307650605E-01
 1.214095140E-01 5.258600640E-02 -2.760952996E-01
 2.555442919E+00 2.090454769E-01 5.254590876E-03
 6.073092468E-01 7.420864389E-01 -1.287917366E-01
 4.766226416E-02 -5.026410961E-02 -6.947656824E-02
 2.907956139E-02 -4.823305099E-02 5.235699746E-02
 1.425668643E-02 -3.869383258E-02 2.268992081E-01
 -9.837636512E-03 -3.341519981E-02 4.059820981E-01
 4.847890394E-03 -1.378371390E-02 4.382596456E-01
 1.666607114E-02 -2.401787288E-02 1.356746276E-01
 6.605472641E-02 -6.185068963E-02 -1.124925702E-01
 -1.583537473E-02 -7.996512951E-03 7.321287469E-01
 -7.466751905E-05 -1.537068376E-02 5.845528820E-01
 9.182548682E-02 -6.730142378E-02 -1.807698800E-01
 1.134564507E-01 -7.876251955E-02 -2.108667760E-01
 1.272798753E-01 -6.525326147E-02 -2.528015842E-01
 1.457662639E-01 -8.333402616E-02 -2.558884068E-01
 1.672975427E-01 -1.097176099E-01 -2.496679915E-01
 1.609773808E-01 -6.967656762E-02 -2.956211695E-01
 1.791751191E-01 -8.501542648E-02 -2.913129960E-01
 2.072571419E-01 -1.145013812E-01 -2.820192170E-01
 2.045986722E-01 -6.464656929E-02 -3.501245571E-01
 6.896486756E-01 2.924178113E-01 -1.931825066E-01
 1.653691685E-01 7.483959411E-02 -2.855519977E-01
 -1.546347444E-02 1.546170915E-02 5.176520317E-01
 -3.814316883E-03 3.380975302E-02 1.839273743E-01
 1.183668693E-02 1.719832519E-02 -8.672034650E-02
 1.687245166E-01 -1.477579890E-01 -2.066296034E-01
 2.346732597E-01 -1.656798453E-01 -2.406917879E-01
 2.352886009E-01 -2.673657009E-01 -1.568339115E-01
 3.256886120E-01 -1.950556661E-01 -2.522145339E-01
 3.122859610E-01 -7.667108207E-02 -4.246479629E-01
 3.326247255E-01 -3.052994504E-01 -1.538363766E-01
 4.265204419E-01 -2.317525097E-01 -1.993836394E-01
 4.464460743E-01 -3.568127606E-01 -1.128924383E-01
 5.439614761E-01 -2.573527739E-01 -1.099826400E-01
 5.045603023E-01 -1.720653369E-01 -1.893227804E-01
 5.509099601E-01 -6.345054590E-02 -1.825393867E-01
 5.237874477E-01 -6.537752684E-02 -2.373761616E-01
 4.599886451E-01 -6.725240038E-02 -3.652010987E-01
 6.323607797E-01 -1.936729299E-01 -4.527145158E-02
 6.624455203E-01 -2.935933924E-01 -2.736722309E-02
 7.228579429E-01 -1.933649021E-01 3.091613294E-02
 8.415068189E-01 -1.513903581E-02 2.331473249E-01
 8.181796105E-01 -2.371015884E-02 2.030453232E-01
 8.683891913E-01 -1.347246828E-02 2.597973723E-01
 7.351709019E-01 -2.895429901E-02 1.077957949E-01
 7.589546084E-01 -2.679185946E-02 1.374032992E-01
 6.765136948E-01 -1.277944121E-01 1.748051537E-03
 6.281995567E-01 -4.709201335E-02 -4.681145028E-02
 6.557336900E-01 -4.301398370E-02 -1.477502053E-03
 7.636387708E-01 -1.255436642E-01 8.684931785E-02
 8.043769034E-01 -1.717306429E-01 9.431024865E-02
 9.697214637E-01 -1.677598222E-02 2.726796541E-01
 9.422337423E-01 -9.350751742E-03 2.954206551E-01
 8.475300726E-01 -1.143330067E-01 1.548130996E-01
 8.996544088E-01 -1.849706030E-01 1.248514567E-01
 9.476148305E-01 -1.171378955E-01 1.697882745E-01
 9.912772568E-01 -1.830838683E-01 1.256356788E-01
 9.434400571E-01 -2.892367014E-01 8.338737145E-02
 1.075934376E+00 -2.533960881E-01 8.808974269E-02
 1.119980980E+00 -1.241331286E-01 1.026675762E-01
 8.799778738E-01 -7.173853770E-02 2.041125328E-01
 6.171223341E-01 -1.240559685E-01 -6.537491512E-02
 4.338266648E-01 -1.514205041E-01 -2.711038398E-01
 3.813234488E-01 -7.479205312E-02 -4.393215386E-01
 7.186877125E-01 -8.991404584E-02 6.047778032E-02
 7.086302219E-01 -3.871062802E-02 6.944204014E-02
 1.214303003E+00 -2.239992979E-01 6.369748602E-02
 1.256194457E+00 -9.026227149E-02 6.091797338E-02
 1.152187601E+00 1.364865020E-02 6.896427607E-02
 1.313314213E+00 6.067283399E-02 3.444943527E-02
 1.174038214E+00 1.532688001E-01 3.231758469E-02
 1.358508555E+00 2.318214939E-01 8.811489932E-03
 8.017858148E-01 -8.273633280E-02 1.424939061E-01
 1.059284145E+00 -4.402945837E-01 5.331248505E-02
 8.050260529E-01 -2.798326582E-01 5.267606139E-02
 2.943033054E-01 -1.343227134E-01 -3.254435086E-01
 3.710497320E-01 -1.391625138E-01 -3.210490161E-01
 4.838467235E-01 -1.203712156E-01 -2.621223530E-01
 5.331065791E-01 -1.227404749E-01 -1.821967176E-01
 1.076899719E+00 -4.487654465E-02 1.182638505E-01
 1.076021848E+00 4.106890272E-02 9.157684723E-02
 9.722978144E-01 2.006766643E-02 8.809960313E-02
 1.054013323E+00 1.884852208E-01 2.523938471E-03
 1.020372129E+00 9.757621891E-02 4.531452844E-02
 6.445502193E-01 -9.060928431E-02 -2.831813260E-02
 5.773305791E-01 -3.994576281E-01 -4.878783691E-02
 1.438954392E+00 -6.931700751E-02 3.160565716E-02
 1.155302345E+00 3.539487497E-01 -2.220228304E-02
 8.836079460E-01 2.181386474E-01 -1.026239423E-01
 8.482837958E-01 4.160167689E-02 -1.612201741E-01
 1.414119125E+00 4.680208554E-01 -1.563502599E-02
 7.709054119E-01 1.871684913E-01 -1.787209691E-01
 7.939327138E-01 1.137632793E-01 -1.834841038E-01
 7.508614454E-01 9.914895612E-02 -2.277440924E-01
 3.310950057E-01 -1.161514379E-01 -3.602777828E-01
 4.454737570E-01 -1.042323860E-01 -3.239648677E-01
 1.018625930E+00 -1.018329298E-01 1.646930037E-01
 9.762315934E-01 -6.720754068E-02 2.152170086E-01
 1.021090981E+00 -4.783273233E-02 1.941382793E-01
 1.046963419E+00 -7.994591233E-03 1.298454849E-01
 6.101067074E-01 -8.563076935E-02 -7.972200291E-02
 1.030630217E+00 3.481578406E-02 1.227050139E-01
 5.122853600E-01 -9.955653106E-02 -2.321125117E-01
 6.150807331E-01 -5.127947260E-02 -6.937075102E-02
 4.459428206E-01 -7.588833650E-02 -3.724820824E-01
 4.316485826E-01 -7.094327136E-02 -4.028492173E-01
 4.703169825E-01 -6.587799456E-02 -3.485175409E-01
 4.681736551E-01 -8.383959789E-02 -3.240139459E-01
 4.926766960E-01 -8.577693486E-02 -2.789673310E-01
 6.411616478E-01 -4.784637261E-02 -2.562282826E-02
 6.540078324E-01 -6.443476376E-02 -1.016221373E-02
 6.772858993E-01 -8.141651718E-02 1.506871339E-02
 6.718385845E-01 -5.616758417E-02 1.747361611E-02
 6.967633443E-01 -5.711457419E-02 4.619998064E-02
 7.226623752E-01 -5.507005633E-02 8.025733433E-02
 7.536369829E-01 -7.293057175E-02 1.089794417E-01
 7.820252776E-01 -5.834451861E-02 1.413121604E-01
 8.104782983E-01 -4.796114859E-02 1.747965457E-01
 4.272508380E-01 -8.707305728E-02 -3.756105451E-01
 4.050911873E-01 -8.724948520E-02 -3.948703726E-01
 4.140816911E-01 -1.129295195E-01 -3.468872823E-01
 7.480426515E-01 -3.048579737E-02 1.233004730E-01
 7.421022535E-01 -4.355257238E-02 1.074797000E-01
 8.307689774E-01 -1.734417963E-02 2.218849632E-01
 8.380794397E-01 -3.147586348E-02 2.141807003E-01
 8.391979627E-01 -6.157679051E-02 1.899521453E-01
 8.652068179E-01 -4.520917409E-02 2.260826771E-01
 8.954582485E-01 -4.101039695E-02 2.438922394E-01
 9.246037107E-01 -6.883470190E-02 2.185742430E-01
 9.230223199E-01 -3.789863951E-02 2.562328553E-01
 9.207172938E-01 -9.405459419E-03 2.937404313E-01
 9.544033067E-01 -3.848983703E-02 2.605424163E-01
 8.028837444E-01 -3.104236856E-02 1.826971591E-01
 9.954873414E-01 -6.447862492E-01 2.587237413E-02
 8.065478629E-01 -1.931845389E-02 1.956230143E-01
 7.967004800E-01 -1.933693689E-02 1.821284338E-01
 9.107567567E-01 -8.058482784E-03 2.921712393E-01
 9.094608484E-01 -2.100057254E-02 2.748303721E-01
 5.396686246E-01 -8.468547644E-02 -1.945924139E-01
 5.744342437E-01 -1.035440699E-01 -1.271190630E-01
 1.677950327E+00 -9.869850500E-02 1.886594713E-02
 1.541516905E+00 9.943598562E-02 1.390858862E-02
 8.792103673E-01 -4.536748105E-01 3.574361795E-02
 9.868850974E-01 5.245083906E-02 7.177768085E-02
 9.563093681E-01 9.322347522E-02 -1.228411457E-02
 9.460793743E-01 5.894359255E-02 -1.046766227E-02
 9.340538712E-01 2.460574780E-02 -2.444404492E-02
 9.094364766E-01 7.611101091E-02 -7.090571822E-02
 8.843773177E-01 3.333288371E-02 -1.234909593E-01
 9.044016180E-01 1.307550973E-01 -7.569841038E-02
 8.575829606E-01 9.910791337E-02 -1.335321111E-01
 8.754378937E-01 6.543360770E-02 -1.180987854E-01
 8.701333638E-01 4.598706667E-02 -1.357492634E-01
 8.501861529E-01 6.600918554E-02 -1.480549076E-01
 8.210910222E-01 4.229971411E-02 -1.868622844E-01
 8.973516574E-01 4.751922246E-02 -9.470523100E-02
 9.243155655E-01 4.187261365E-02 -4.203128700E-02
 9.523875927E-01 3.241478219E-02 2.069663207E-02
 9.940355284E-01 2.784611968E-02 1.474599334E-01
 9.457025743E-01 1.973328142E-02 8.799189274E-03
 2.503236948E-01 -1.123943402E-01 -3.218623993E-01
 2.556702981E-01 -7.023530705E-02 -3.906449764E-01
 2.820172338E-01 -1.024092087E-01 -3.608565404E-01
 3.080333591E-01 -9.822101193E-02 -3.778590810E-01
 6.280816773E-01 -6.456331218E-02 -4.909231093E-02
 8.919326976E-01 -2.221164462E-02 2.623653881E-01
 7.623475331E-01 -4.241860023E-02 1.300818864E-01
 3.848461134E-01 -1.086324184E-01 -3.738738321E-01
 3.563044705E-01 -9.734809426E-02 -3.990850564E-01
 3.666050806E-01 -8.049438904E-02 -4.321135507E-01
 5.106551874E-01 -7.814792212E-02 -2.516353547E-01
 7.225094653E-01 -3.376527766E-02 8.965489018E-02
 8.229118221E-01 7.592224988E-02 -1.737454242E-01
 9.604814124E-01 1.717646507E-01 -3.030357167E-02
 5.095692468E-01 -6.412122651E-02 -2.686602716E-01
 6.165477239E-03 -2.592092348E-02 2.881587689E-01
 1.711645037E+00 -3.281185307E-01 2.371857183E-02
 5.000849502E-01 -5.979653309E-01 -4.372556069E-02
 9.843874880E-01 1.450095203E-02 1.963712090E-01
 1.402794634E-01 7.102935053E-02 -2.708198248E-01
 1.563634056E-01 5.804769546E-02 -3.024020289E-01
 1.194223827E+00 -3.775597189E-01 5.116676847E-02
 6.952444223E-01 -3.742007911E-02 5.257218118E-02
 6.690874397E-01 -3.984142835E-02 1.649535937E-02
 7.710460796E-01 -2.687575045E-02 1.498295470E-01
 3.263771060E-01 -4.716398746E-01 -7.482941336E-02
 2.277628326E-01 -9.580556061E-02 -3.318033474E-01
 8.756468487E-01 -2.758027158E-02 2.484925884E-01
 8.802302994E-01 -1.476176955E-02 2.701728702E-01
 5.369062499E-01 -6.221343349E-02 -2.086841410E-01
 6.883759990E-02 -2.609669106E-01 -2.875988625E-02
 8.420861301E-01 1.497866857E-01 -1.396400173E-01
 9.208918623E-01 2.393576541E-02 -5.330622235E-02
 8.566940041E-01 -2.031759230E-02 2.443570580E-01
 6.038251959E-01 -6.452238573E-02 -8.614117771E-02
 5.834258045E-01 -7.128907826E-02 -1.205645456E-01
 5.630654551E-01 -7.678348274E-02 -1.520590971E-01
 5.668886424E-01 -6.094824324E-02 -1.529665160E-01
 9.336491300E-01 -2.072864772E-02 2.775786878E-01
 9.671248050E-01 5.356701148E-01 -7.101505849E-02
 3.133974596E+00 6.339745962E-01 3.494483916E-03
 5.777249203E-01 -5.417626535E-02 -1.330861971E-01
 1.025897067E-01 5.811611422E-02 -2.436654949E-01
 9.314285642E-01 -7.698595912E-03 2.990835274E-01
 3.133974596E+00 -6.339745962E-01 1.343699927E-02
 8.966850093E-01 2.988196298E-02 -1.034539125E-01
 4.823134256E-01 -6.887744803E-02 -3.206163805E-01
 2.224662624E-01 7.294102693E-02 -3.339978869E-01
 2.400628320E-01 8.280295173E-02 -3.346843687E-01
 2.789935536E-01 1.191324249E-01 -3.240337870E-01
 1.925153195E-01 7.766512580E-02 -3.103628945E-01
 1.880882688E-01 5.845356791E-02 -3.258472210E-01
 2.411722713E-01 -6.978951336E-02 -3.792432294E-01
 2.073167133E-01 -8.049843667E-02 -3.298350029E-01
 2.445607693E-01 -8.793081098E-02 -3.544497147E-01
 2.642161730E-01 -8.835923077E-02 -3.718193741E-01
 1.739558876E-02 4.141667207E-02 -2.587986044E-02
 1.563677794E-02 2.857096461E-02 -1.748726426E-02
 3.575956472E-02 4.908670792E-02 -9.431429853E-02
 1.951774701E+00 3.607150493E-01 -1.103858752E-03
 2.636935577E-01 8.813708171E-02 -3.474138562E-01
 2.909322636E-01 7.807786448E-02 -3.692660260E-01
 3.092839814E-01 1.087884627E-01 -3.507097574E-01
 2.542128603E-01 6.491581372E-02 -3.629334665E-01
 3.692210233E-01 1.767053142E-01 -3.103998516E-01
 8.520500089E-02 4.091215543E-02 -2.555621878E-01
 1.355995192E+00 -1.986281291E-01 4.367659790E-02
 6.021431595E-01 -5.051563209E-02 -8.919636813E-02
 1.920289055E-01 -6.719515741E-02 -3.336316419E-01
 2.142051277E-01 -6.553802781E-02 -3.574660999E-01
 9.571078321E-02 4.411067381E-02 -2.627695612E-01
 7.919608077E-01 2.634760304E-01 -1.559401092E-01
 3.595395632E-01 -7.213704108E-02 -4.493872570E-01
 3.432615499E-01 1.321196061E-01 -3.450785345E-01
 3.694482052E-01 1.074719558E-01 -3.736087577E-01
 3.812600803E-01 7.060228588E-02 -4.157807948E-01
 4.059833562E-01 1.121992821E-01 -3.774006983E-01
 4.342716309E-01 7.284500516E-02 -4.253889961E-01
 3.382009987E-01 9.468624113E-02 -3.752317556E-01
 3.278903233E-01 7.481022399E-02 -3.909447312E-01
 3.119879796E-01 8.328825460E-02 -3.795875949E-01
 3.650603023E-01 8.088620037E-02 -4.005962835E-01
 3.869626731E-01 9.196824693E-02 -3.980235712E-01
 4.209425266E-01 8.999314358E-02 -4.045576787E-01
 4.485862781E-01 8.805078712E-02 -4.098414670E-01
 4.717969574E-01 9.728519818E-02 -4.008959564E-01
 4.954749570E-01 9.047684509E-02 -4.011790226E-01
 4.221180680E-01 1.529945872E-01 -3.409864529E-01
 4.807899231E-01 7.726840135E-02 -4.209110739E-01