TITLE     = "Visualization of the solution"
VARIABLES = "x"
"y"
"Pressure_Coefficient"
ZONE T="Zone"
 STRANDID=0, SOLUTIONTIME=0
 Nodes=713, Elements=1211, ZONETYPE=FEQuadrilateral
 DATAPACKING=POINT
 DT=(DOUBLE DOUBLE DOUBLE )
 1.000206113E+00 5.253706477E-04 2.141996022E-01
 9.907354116E-01 2.501855372E-03 2.439148997E-01
 9.791616201E-01 4.865575582E-03 1.577688697E-01
 9.636222720E-01 8.045488968E-03 1.009223448E-01
 9.488676190E-01 1.101497654E-02 3.871413979E-02
 9.330598712E-01 1.424105186E-02 1.645748829E-03
 9.218300581E-01 1.649327762E-02 -3.607599662E-02
 9.102125168E-01 1.878414489E-02 -6.795419791E-02
 8.992438912E-01 2.090366557E-02 -9.587193206E-02
 8.878659606E-01 2.304686233E-02 -1.221768719E-01
 8.756980896E-01 2.526507154E-02 -1.380518998E-01
 8.629911542E-01 2.746628411E-02 -1.618838508E-01
 8.506298065E-01 2.964085527E-02 -1.810425354E-01
 8.404097557E-01 3.131078929E-02 -1.875764027E-01
 8.287324905E-01 3.320857137E-02 -2.106619289E-01
 8.157802224E-01 3.530525044E-02 -2.272203223E-01
 8.028105497E-01 3.729000315E-02 -2.409766048E-01
 7.897132635E-01 3.927187249E-02 -2.552174515E-01
 7.772008777E-01 4.111314192E-02 -2.715027570E-01
 7.649352551E-01 4.290180653E-02 -2.875490969E-01
 7.511396408E-01 4.483048618E-02 -3.043397657E-01
 7.365845442E-01 4.681545869E-02 -3.181412508E-01
 7.256692648E-01 4.824098572E-02 -3.294199379E-01
 7.144825459E-01 4.970134422E-02 -3.447933557E-01
 7.026158571E-01 5.119685829E-02 -3.605729204E-01
 6.884097457E-01 5.294398963E-02 -3.781206306E-01
 6.750403643E-01 5.449672043E-02 -3.956777516E-01
 6.657121778E-01 5.554909259E-02 -4.047846048E-01
 6.539638638E-01 5.680293590E-02 -4.164379595E-01
 6.416609883E-01 5.808496848E-02 -4.292034825E-01
 6.295642257E-01 5.926138163E-02 -4.423843440E-01
 6.179529428E-01 6.035789102E-02 -4.570270518E-01
 6.068996191E-01 6.131802127E-02 -4.632252247E-01
 5.936721563E-01 6.239784509E-02 -4.746490043E-01
 5.822059512E-01 6.327501684E-02 -4.836669089E-01
 5.686862469E-01 6.422689557E-02 -4.932272042E-01
 5.564596057E-01 6.500668824E-02 -5.023863628E-01
 5.447768569E-01 6.568148732E-02 -5.064262237E-01
 5.342707634E-01 6.621278822E-02 -5.097138806E-01
 5.232324600E-01 6.673061103E-02 -5.134893153E-01
 5.111865401E-01 6.721264124E-02 -5.164201898E-01
 4.998563230E-01 6.760632992E-02 -5.180664649E-01
 4.866192937E-01 6.798572838E-02 -5.195766728E-01
 4.727595150E-01 6.828868389E-02 -5.193937473E-01
 4.585114419E-01 6.849286705E-02 -5.182168641E-01
 4.452022612E-01 6.860284507E-02 -5.152091634E-01
 4.323096573E-01 6.862539798E-02 -5.151883366E-01
 4.198422730E-01 6.859588623E-02 -5.108216693E-01
 4.073198140E-01 6.846581399E-02 -5.073671676E-01
 3.959729970E-01 6.831450760E-02 -5.062739450E-01
 3.835520148E-01 6.806919724E-02 -5.011819717E-01
 3.724712729E-01 6.778859347E-02 -4.969516546E-01
 3.596979082E-01 6.741554290E-02 -4.928415304E-01
 3.468719125E-01 6.696403772E-02 -4.873855299E-01
 3.335251212E-01 6.642340869E-02 -4.861793751E-01
 3.219353557E-01 6.589538604E-02 -4.809304464E-01
 3.089997172E-01 6.521902233E-02 -4.743144255E-01
 2.955157161E-01 6.444256008E-02 -4.707458712E-01
 2.811048031E-01 6.352325529E-02 -4.636653112E-01
 2.687083483E-01 6.263219565E-02 -4.556089652E-01
 2.565689087E-01 6.171079352E-02 -4.529028301E-01
 2.439984828E-01 6.068030000E-02 -4.457813777E-01
 2.315301150E-01 5.956958607E-02 -4.384014432E-01
 2.190502137E-01 5.837545171E-02 -4.318169594E-01
 2.074504346E-01 5.718590692E-02 -4.251019389E-01
 1.957355291E-01 5.590933189E-02 -4.165212191E-01
 1.833366603E-01 5.445895717E-02 -4.065497340E-01
 1.715673506E-01 5.299530178E-02 -3.981808033E-01
 1.605697572E-01 5.154177919E-02 -3.881100440E-01
 1.486188471E-01 4.986958951E-02 -3.799583428E-01
 1.381710917E-01 4.830257222E-02 -3.664949833E-01
 1.264861226E-01 4.644611478E-02 -3.518578195E-01
 1.152883843E-01 4.454994574E-02 -3.406941355E-01
 1.049671322E-01 4.267951101E-02 -3.276306375E-01
 9.523481131E-02 4.080342129E-02 -3.105863551E-01
 8.430264145E-02 3.854972124E-02 -2.831393802E-01
 7.248936594E-02 3.590723127E-02 -2.647705510E-01
 6.293841451E-02 3.359032050E-02 -2.354836480E-01
 5.286279321E-02 3.092127293E-02 -2.041213909E-01
 4.469089955E-02 2.855953574E-02 -1.706056090E-01
 3.772388026E-02 2.636270598E-02 -1.403120895E-01
 3.145242110E-02 2.421372384E-02 -9.858491840E-02
 2.586904727E-02 2.212198079E-02 -7.136860670E-02
 2.184185199E-02 2.047643624E-02 -2.177939476E-02
 1.793592796E-02 1.874618605E-02 -1.644450306E-02
 1.482842118E-02 1.724959910E-02 8.948349213E-03
 1.193148736E-02 1.571612433E-02 1.148012052E-01
 9.757562540E-03 1.446728129E-02 1.267893601E-01
 7.916172035E-03 1.331224944E-02 1.312500656E-01
 6.287642755E-03 1.219808683E-02 3.209525689E-01
 4.182635341E-03 1.058041863E-02 1.714792542E-01
 2.258214401E-03 8.820611984E-03 1.000974996E+00
 6.658622297E-04 6.991055328E-03 8.738941416E-01
 -8.554976084E-04 4.367948510E-03 9.316965283E-01
 -1.361675444E-03 2.490201965E-03 1.100727136E+00
 -1.397800166E-03 1.063637203E-03 8.166833559E-01
 -1.145503367E-03 -2.812036546E-04 1.199428118E+00
 -6.760245888E-04 -1.472112490E-03 8.525752819E-01
 2.227797813E-04 -2.916714642E-03 4.249719206E-01
 1.457849285E-03 -4.313473124E-03 4.354128164E-01
 3.152485006E-03 -5.766697228E-03 2.866330140E-01
 4.751923494E-03 -6.876357831E-03 7.834231963E-03
 6.456786767E-03 -7.891046815E-03 3.328430410E-02
 7.953084074E-03 -8.678285405E-03 -9.691682524E-03
 9.939401411E-03 -9.619805962E-03 -3.120868612E-02
 1.221218798E-02 -1.058204751E-02 -6.485434652E-02
 1.537767146E-02 -1.177146658E-02 -6.276262418E-02
 1.807178743E-02 -1.267660316E-02 -1.054926620E-01
 2.160956524E-02 -1.376104448E-02 -9.946796477E-02
 2.685522288E-02 -1.519984286E-02 -1.154285631E-01
 3.260658309E-02 -1.659974083E-02 -1.262211905E-01
 3.978992999E-02 -1.815995947E-02 -1.275181671E-01
 4.726111144E-02 -1.962691173E-02 -1.363863611E-01
 5.631472170E-02 -2.124263532E-02 -1.433255534E-01
 6.486988813E-02 -2.264055423E-02 -1.577875543E-01
 7.476530969E-02 -2.413965203E-02 -1.562147835E-01
 8.491973579E-02 -2.556363307E-02 -1.587694610E-01
 9.480667859E-02 -2.686913125E-02 -1.606414025E-01
 1.058068648E-01 -2.824167535E-02 -1.669882622E-01
 1.171991080E-01 -2.957503870E-02 -1.721965653E-01
 1.290434003E-01 -3.088996932E-02 -1.802907222E-01
 1.398034841E-01 -3.201863170E-02 -1.889783940E-01
 1.509888619E-01 -3.313393891E-02 -1.946397080E-01
 1.634574234E-01 -3.431272134E-02 -1.996473168E-01
 1.753615290E-01 -3.537511826E-02 -2.080831980E-01
 1.875873208E-01 -3.641239926E-02 -2.158422976E-01
 1.986528784E-01 -3.729451075E-02 -2.254295894E-01
 2.099878043E-01 -3.814539313E-02 -2.312640528E-01
 2.223924696E-01 -3.902263567E-02 -2.401481389E-01
 2.357381284E-01 -3.989376873E-02 -2.514956540E-01
 2.485285252E-01 -4.065779224E-02 -2.598357908E-01
 2.611433566E-01 -4.133965820E-02 -2.683109125E-01
 2.728138566E-01 -4.191266373E-02 -2.773440601E-01
 2.858378291E-01 -4.247493297E-02 -2.867444428E-01
 2.985294461E-01 -4.293326661E-02 -2.941918169E-01
 3.115414083E-01 -4.332316294E-02 -3.017384550E-01
 3.238591552E-01 -4.361198097E-02 -3.106916633E-01
 3.363914788E-01 -4.379580170E-02 -3.154012432E-01
 3.477606773E-01 -4.388967156E-02 -3.199622620E-01
 3.588975966E-01 -4.389558360E-02 -3.243141689E-01
 3.693713248E-01 -4.381228611E-02 -3.263218077E-01
 3.799663782E-01 -4.365272447E-02 -3.235151204E-01
 3.916068077E-01 -4.339145496E-02 -3.216953214E-01
 4.048503041E-01 -4.295612872E-02 -3.169837770E-01
 4.173660576E-01 -4.242345691E-02 -3.092760803E-01
 4.296710789E-01 -4.177588597E-02 -2.977481768E-01
 4.417505562E-01 -4.102930799E-02 -2.849794858E-01
 4.530009329E-01 -4.023279622E-02 -2.679202002E-01
 4.644672573E-01 -3.934736550E-02 -2.510920491E-01
 4.763049781E-01 -3.832014278E-02 -2.309352674E-01
 4.870304167E-01 -3.734171391E-02 -2.112161113E-01
 4.996570647E-01 -3.609922156E-02 -1.902545609E-01
 5.132744312E-01 -3.467442095E-02 -1.658106500E-01
 5.265979171E-01 -3.320036083E-02 -1.386328732E-01
 5.405452847E-01 -3.162469342E-02 -1.127885210E-01
 5.524692535E-01 -3.024348989E-02 -9.402928317E-02
 5.655244589E-01 -2.868234180E-02 -7.055526913E-02
 5.775852799E-01 -2.721715905E-02 -4.641236983E-02
 5.888319612E-01 -2.588036284E-02 -3.172651589E-02
 6.009265780E-01 -2.437706478E-02 -1.315661021E-02
 6.159521937E-01 -2.255767398E-02 1.045906153E-02
 6.306934953E-01 -2.075766027E-02 3.004138203E-02
 6.465072632E-01 -1.886136457E-02 4.991954981E-02
 6.596235633E-01 -1.731045172E-02 6.555400601E-02
 6.726883650E-01 -1.576066762E-02 8.159480774E-02
 6.848455071E-01 -1.434793323E-02 9.756918425E-02
 6.974422932E-01 -1.292402018E-02 1.102106205E-01
 7.114956975E-01 -1.135055721E-02 1.232532100E-01
 7.244847417E-01 -9.917882271E-03 1.400515966E-01
 7.371403575E-01 -8.572003804E-03 1.536792477E-01
 7.500717640E-01 -7.215083111E-03 1.667483516E-01
 7.617418170E-01 -6.047072820E-03 1.818444930E-01
 7.743551135E-01 -4.828838166E-03 1.904302968E-01
 7.855784893E-01 -3.779852996E-03 2.046047579E-01
 7.987141609E-01 -2.653233474E-03 2.141213587E-01
 8.093256354E-01 -1.741953660E-03 2.237254346E-01
 8.213841915E-01 -8.096211241E-04 2.380000634E-01
 8.347420096E-01 1.392441191E-04 2.461611180E-01
 8.468868136E-01 9.268607828E-04 2.590455162E-01
 8.588861823E-01 1.591603970E-03 2.664138494E-01
 8.712756634E-01 2.177137882E-03 2.738366931E-01
 8.842476010E-01 2.648975467E-03 2.790134430E-01
 8.974398375E-01 2.991448855E-03 2.825223116E-01
 9.077106118E-01 3.147962736E-03 2.856441108E-01
 9.177770019E-01 3.209347138E-03 2.833459446E-01
 9.265177250E-01 3.188678762E-03 2.815689698E-01
 9.345110655E-01 3.116088687E-03 2.793602099E-01
 9.452410936E-01 2.924816683E-03 2.735803620E-01
 9.569139481E-01 2.605811227E-03 2.658338882E-01
 9.731301665E-01 2.000541193E-03 2.561738387E-01
 9.868475795E-01 1.320068259E-03 2.559711594E-01
 -5.000000000E-01 -1.000000000E+00 3.020163229E-02
 3.500000000E+00 -1.000000000E+00 1.568155627E-02
 3.500000000E+00 1.000000000E+00 -2.492489215E-03
 -5.000000000E-01 1.000000000E+00 -9.228870036E-03
 -5.000000000E-01 5.000000000E-01 2.837152941E-02
 -5.000000000E-01 2.752797990E-12 7.984751555E-02
 -5.000000000E-01 -5.000000000E-01 5.990750133E-02
 -9.421907698E-13 -1.000000000E+00 2.347709905E-02
 5.000000000E-01 -1.000000000E+00 2.017851989E-02
 1.000000000E+00 -1.000000000E+00 2.955341397E-02
 1.500000000E+00 -1.000000000E+00 3.695621407E-02
 2.000000000E+00 -1.000000000E+00 2.957643342E-02
 2.500000000E+00 -1.000000000E+00 2.083917003E-02
 3.000000000E+00 -1.000000000E+00 1.649713617E-02
 3.500000000E+00 -5.000000000E-01 1.794279622E-02
 3.500000000E+00 -2.752797990E-12 1.622248410E-02
 3.500000000E+00 5.000000000E-01 4.985147265E-03
 3.000000000E+00 1.000000000E+00 -4.718323915E-03
 2.500000000E+00 1.000000000E+00 -1.082026829E-02
 2.000000000E+00 1.000000000E+00 -2.501193322E-02
 1.500000000E+00 1.000000000E+00 -6.568578499E-02
 1.000000000E+00 1.000000000E+00 -1.117324573E-01
 5.000000000E-01 1.000000000E+00 -1.036710318E-01
 1.733724275E-12 1.000000000E+00 -3.808069989E-02
 6.923557392E-01 -2.435662931E-02 1.012905289E-01
 7.946373318E-01 -1.295537936E-02 2.049445873E-01
 9.134951597E-01 -6.149769645E-03 2.719687332E-01
 5.956061046E-01 -3.757905086E-02 -2.137178010E-02
 5.060273725E-01 -4.741342743E-02 -1.713037914E-01
 2.658279837E-01 -5.429521763E-02 -2.601238015E-01
 6.849000475E-01 6.536053025E-02 -3.747612382E-01
 7.710591612E-01 5.139737231E-02 -2.748227965E-01
 2.869060587E-01 7.704270119E-02 -4.490831253E-01
 9.057500056E-01 3.533058323E-02 -7.539616653E-02
 3.631125782E-01 -5.205742736E-02 -3.120384909E-01
 5.898737616E-01 7.158538349E-02 -4.656078044E-01
 4.284295614E-01 8.241892932E-02 -4.958396392E-01
 1.836475696E+00 -6.018872814E-01 2.895110859E-02
 1.789300352E+00 6.705050933E-01 -2.209884287E-02
 3.031196844E+00 2.156739826E-01 8.249402448E-03
 7.500000000E-01 -5.669872981E-01 2.956679047E-02
 7.489675616E-01 6.521720733E-01 -1.451659829E-01
 5.058795208E-01 8.355177174E-02 -4.953724577E-01
 3.340155049E-01 5.955918145E-01 -1.566958432E-01
 1.193078593E-01 5.482506928E-02 -3.270218826E-01
 1.745486389E-01 6.740738616E-02 -3.778251279E-01
 2.734796847E+00 -5.327430985E-01 1.550243844E-02
 1.176639580E+00 6.152183031E-01 -6.283859827E-02
 9.891689598E-01 3.483930357E-01 -6.857827320E-02
 8.389043486E-01 4.474848517E-02 -1.884073645E-01
 1.242537131E+00 -6.387129573E-01 4.721197050E-02
 1.524360146E+00 -2.733561861E-01 3.287339263E-02
 2.500000000E-01 -5.669872981E-01 -7.278220835E-03
 6.660133177E-02 -3.266357806E-02 -1.189910176E-01
 1.232788880E-01 -3.893873587E-02 -1.651839415E-01
 1.795099700E-01 -4.611630835E-02 -2.037657678E-01
 2.248912313E+00 -5.891099557E-01 1.924195647E-02
 1.986760758E+00 -2.152640596E-01 1.744311956E-02
 2.413803410E+00 -1.873235744E-01 1.100641700E-02
 2.184450649E+00 1.578162771E-01 3.963627504E-03
 1.763589660E+00 1.267301225E-01 5.195200481E-03
 -2.134396221E-01 -2.651175674E-01 9.135773187E-02
 -1.552149290E-01 -6.172907379E-01 3.160318051E-02
 -2.600740242E-01 2.228340862E-01 7.253860294E-02
 -1.560317814E-01 6.935184439E-01 -2.590320953E-02
 4.931241881E-02 3.311970915E-01 -6.326082121E-02
 5.404010469E-02 4.507363244E-02 -1.568399240E-01
 2.240657787E+00 5.578562815E-01 -6.276188296E-03
 2.746284255E+00 5.966236541E-01 4.838719893E-04
 -2.379890332E-01 -4.010686331E-03 1.340835175E-01
 -1.263864776E-01 -1.257015416E-01 1.575926439E-01
 2.540692305E-02 -3.770359491E-01 2.517445717E-02
 2.837739216E-01 -3.101769662E-01 -7.391800363E-02
 4.375266003E-01 -4.984751752E-02 -2.762179780E-01
 -1.113073043E-01 9.747563845E-02 1.540912926E-01
 -1.223155041E-01 -3.613199777E-03 2.080158003E-01
 -5.363583079E-02 -6.537816768E-02 2.293798159E-01
 2.797900149E-02 -2.141852152E-02 -6.140830014E-02
 -2.586047296E-02 -1.402969454E-01 1.197087715E-01
 5.462708138E-03 -9.192368374E-02 1.011404727E-01
 4.784891009E-02 -1.651824386E-01 1.167044858E-02
 8.099472333E-02 -1.029810614E-01 -6.233734712E-02
 1.223407859E-01 -1.591447609E-01 -7.505579987E-02
 1.408793191E-01 -1.043290702E-01 -1.214198345E-01
 1.944541303E-01 -1.362465556E-01 -1.364023773E-01
 3.185557255E-01 -5.488668852E-02 -2.923409750E-01
 2.899024965E-01 -5.673773780E-02 -2.722434418E-01
 2.297750766E-01 -4.918700181E-02 -2.371815785E-01
 -1.379641445E-02 -5.115984351E-02 2.627689005E-01
 1.291464144E-02 -1.434034154E-02 -5.684475900E-03
 -5.335269844E-02 -3.898001291E-03 4.335552002E-01
 1.897430702E-01 -2.241308798E-01 -8.099674661E-02
 2.542565192E-01 -1.867184054E-01 -1.405073262E-01
 3.933963460E-01 -2.398357752E-01 -1.037544056E-01
 4.054180615E-01 -3.787005488E-01 -4.165783909E-02
 4.987806148E-01 -2.549829872E-01 -6.553759635E-02
 3.389974300E-01 -1.381009392E-01 -1.963766725E-01
 3.973789428E-01 -5.244651969E-02 -3.044011941E-01
 4.556095282E-01 -1.722851025E-01 -1.317886646E-01
 4.709317775E-01 -4.944147144E-02 -2.281003441E-01
 5.683711196E-01 -1.771337868E-01 -4.089711021E-02
 5.489815447E-01 -4.752706040E-02 -9.401451839E-02
 6.183094826E-01 -2.810079054E-01 -6.137204139E-04
 6.653514547E-01 -1.758002907E-01 3.799069566E-02
 7.441039926E-01 -2.084284116E-02 1.545217022E-01
 7.202857882E-01 -2.291659456E-02 1.300722113E-01
 7.675496863E-01 -1.916283126E-02 1.768261095E-01
 6.413953104E-01 -3.345135626E-02 4.097240073E-02
 7.232527374E-01 -2.521043777E-01 5.496378316E-02
 8.525191907E-01 -1.038676069E-02 2.512098602E-01
 7.823910952E-01 -1.661014727E-01 1.112063584E-01
 8.316994090E-01 -2.750530548E-01 8.551694231E-02
 9.298295353E-01 -1.902064066E-01 1.301648949E-01
 9.801425451E-01 -1.237619920E-02 2.266538525E-01
 9.510676683E-01 -7.328629746E-03 2.587205222E-01
 9.747061202E-01 -2.993700197E-01 9.154541452E-02
 1.036834336E+00 -1.804139551E-01 1.151323459E-01
 8.630279682E-01 -1.005082013E-01 1.747149815E-01
 7.319955997E-01 -1.097561851E-01 9.758522306E-02
 6.118598323E-01 -1.197670135E-01 -6.671029572E-03
 9.755790171E-01 -1.040548196E-01 1.634117367E-01
 1.080205713E+00 -9.008260632E-02 1.202225754E-01
 1.132239999E+00 -1.555422041E-01 9.069033241E-02
 1.156784254E+00 -7.406797966E-02 8.429124349E-02
 1.106010296E+00 5.791223267E-05 8.480177315E-02
 1.207704752E+00 2.963608112E-02 4.792325709E-02
 1.134497266E+00 1.231068549E-01 3.846800401E-02
 9.786048615E-01 2.120074450E-02 1.096311672E-01
 1.272537430E+00 1.927792007E-01 1.256018619E-02
 1.363736890E+00 4.157574298E-02 2.745960274E-02
 5.595067727E-01 -1.117161820E-01 -6.317375651E-02
 1.025176127E+00 -6.937363709E-02 1.571945269E-01
 1.477633628E+00 2.116093861E-01 3.621782480E-03
 1.253114671E+00 -1.471975091E-01 6.276816316E-02
 2.482650192E-01 -1.202452140E-01 -1.842990873E-01
 1.114996481E+00 -2.758322836E-01 8.387394525E-02
 1.282170773E+00 -3.286690600E-01 5.423847518E-02
 5.334226143E-01 -3.713785683E-01 -2.406879371E-02
 5.880107066E-01 -7.663181771E-02 -3.028296038E-02
 5.737631384E-01 -3.992294088E-02 -5.416032428E-02
 6.332646520E-01 -7.311546891E-02 2.095672085E-02
 6.661835405E-01 -1.045955480E-01 4.929359656E-02
 6.708541217E-01 -6.504552487E-02 6.402463072E-02
 6.665065641E-01 -2.954627482E-02 7.032076810E-02
 1.079861299E+00 -4.412656645E-01 6.298855189E-02
 1.046062272E+00 7.415820593E-02 6.973277292E-02
 1.036814840E+00 1.956438698E-01 -8.991890028E-03
 9.721377976E-01 1.205104612E-01 4.852170815E-04
 1.785426319E-01 -9.084353399E-02 -1.671512583E-01
 1.512340753E-01 -6.472254155E-02 -1.643984865E-01
 1.429922059E-01 -4.480018443E-02 -1.777255702E-01
 4.343865192E-02 -6.833482762E-02 -1.014067205E-03
 5.053972392E-02 -2.883926127E-02 -1.113207152E-01
 1.533141766E-02 -5.095733514E-02 8.591354663E-02
 9.396349727E-01 1.961330561E-01 -6.899706004E-02
 8.743338246E-01 1.397621175E-01 -1.194497801E-01
 8.686169487E-01 3.941030632E-02 -1.462914915E-01
 8.441222467E-01 2.314189093E-01 -1.494843241E-01
 7.713728535E-01 1.659513885E-01 -2.272047621E-01
 7.224271077E-01 6.009432177E-02 -3.276842900E-01
 7.447307696E-01 5.794707359E-02 -3.033831868E-01
 7.550513871E-01 2.398958550E-01 -2.227744547E-01
 6.808280407E-01 1.847756185E-01 -2.948414103E-01
 6.378051932E-01 6.771697250E-02 -4.232582083E-01
 6.130704138E-01 7.038078528E-02 -4.465344408E-01
 6.546212628E-01 2.772271555E-01 -2.595880340E-01
 5.823300741E-01 2.059845227E-01 -3.354274141E-01
 5.504126931E-01 7.659675473E-02 -4.884559633E-01
 5.300635976E-01 7.719938820E-02 -4.964686405E-01
 5.447096356E-01 3.114743264E-01 -2.789099818E-01
 3.514363625E-01 7.689197386E-02 -4.786856387E-01
 3.930925892E-01 8.098758727E-02 -4.892571480E-01
 4.767166128E-01 2.222147282E-01 -3.540808320E-01
 4.656799015E-01 8.409873694E-02 -4.986461146E-01
 8.045419561E-01 1.116752417E-01 -2.116088281E-01
 8.117012564E-01 5.212933664E-02 -2.240156824E-01
 5.203615718E-01 1.555016498E-01 -4.050294310E-01
 4.339682487E-01 1.611081426E-01 -4.085117269E-01
 3.945951305E-01 2.193477931E-01 -3.484329161E-01
 3.747359402E-01 1.549725958E-01 -4.019406371E-01
 4.284853031E-01 3.097917805E-01 -2.850814888E-01
 3.213516004E-01 2.871909904E-01 -2.680265638E-01
 5.739555779E-01 1.418028283E-01 -4.020200758E-01
 7.214834760E-01 1.262902308E-01 -2.955796522E-01
 6.593162038E-01 1.240177131E-01 -3.525673914E-01
 8.098607627E-01 3.664669524E-01 -1.563829996E-01
 9.132766749E-01 9.222421071E-02 -6.838641316E-02
 1.159317779E+00 3.200019550E-01 -2.159586263E-02
 4.766242442E-01 1.293403053E-01 -4.432323132E-01
 4.024796699E-01 1.203420027E-01 -4.451052112E-01
 5.421309061E-01 1.114052537E-01 -4.487426831E-01
 4.801595860E-01 4.418148311E-01 -2.150266274E-01
 6.900560511E-01 9.873670289E-02 -3.443389924E-01
 5.080262446E-01 1.103160462E-01 -4.603353447E-01
 3.109331979E+00 -2.613202310E-01 1.489436000E-02
 5.760564465E-01 1.026922666E-01 -4.398024233E-01
 6.103915569E-01 1.134973852E-01 -4.025350981E-01
 6.213642907E-01 1.540156135E-01 -3.610767970E-01
 6.590171625E-01 9.309884687E-02 -3.797309776E-01
 6.618263431E-01 6.737507044E-02 -3.982706465E-01
 7.190335657E-01 8.989003174E-02 -3.144155012E-01
 7.639901353E-01 1.150336550E-01 -2.526575452E-01
 6.081687910E-01 -3.386142586E-02 -3.895158780E-03
 6.082896812E-01 -5.109144238E-02 -6.927306807E-03
 1.147133107E-01 -7.434078477E-02 -1.204066425E-01
 9.756589093E-02 -3.779370906E-02 -1.482788722E-01
 8.095977776E-02 -6.623091686E-02 -9.414277010E-02
 -2.504053772E-02 -2.244074037E-02 2.946516628E-01
 9.307985374E-02 -2.488761486E-01 -1.764917466E-02
 6.024147263E-01 7.355171448E-02 -4.539814415E-01
 5.949394940E-01 8.738841111E-02 -4.450241779E-01
 5.760220253E-01 7.925435008E-02 -4.682942055E-01
 6.349233917E-01 4.400676330E-01 -1.985987039E-01
 6.237572602E-01 -3.507280937E-02 1.673045897E-02
 1.361112220E+00 4.005645465E-01 -2.579885126E-02
 7.048922815E-01 -2.597846592E-02 1.131848257E-01
 7.158715703E-01 -3.772276114E-02 1.186548949E-01
 7.322284185E-01 -3.267655344E-02 1.349812061E-01
 7.529030147E-01 -3.472590735E-02 1.542562273E-01
 7.768203791E-01 -3.622503315E-02 1.750475783E-01
 7.609489723E-01 -6.502265703E-02 1.443514300E-01
 7.941898313E-01 -6.172312692E-02 1.706168146E-01
 7.775949985E-01 -9.818066791E-02 1.425953093E-01
 7.267597502E-01 -5.764036252E-02 1.233299096E-01
 6.957790095E-01 -4.442653785E-02 9.520671541E-02
 6.983144043E-01 -7.629283168E-02 8.710920889E-02
 3.649109609E-01 1.189114878E-01 -4.394104865E-01
 3.235332453E-01 1.266861043E-01 -4.097733819E-01
 2.231748033E-01 7.079964609E-02 -4.180627666E-01
 2.495736225E-01 7.790101807E-02 -4.246737515E-01
 3.147358876E-01 7.852040554E-02 -4.630455453E-01
 3.168072455E-01 1.961582741E-01 -3.361274519E-01
 2.191884576E-01 2.327892948E-01 -2.469812688E-01
 1.990269786E-01 3.594501941E-01 -1.714646607E-01
 7.899363934E-02 1.944616062E-01 -1.086341045E-01
 2.674390991E-01 1.559628661E-01 -3.459863872E-01
 1.723340291E-01 1.614140517E-01 -2.653899714E-01
 2.207951433E-01 1.231281548E-01 -3.516316018E-01
 2.838287103E-01 1.171515290E-01 -4.022502859E-01
 7.810037956E-01 -1.521950674E-02 1.916892026E-01
 6.494829000E-01 6.879667314E-02 -4.104835209E-01
 5.557424311E-01 -7.391626158E-02 -7.983706822E-02
 5.180697399E-01 -9.036157183E-02 -1.261364079E-01
 5.141138394E-01 -1.387229001E-01 -1.020380384E-01
 6.333662320E-01 9.550193480E-02 -4.016485631E-01
 7.552740549E-01 -1.759874714E-02 1.669496616E-01
 5.332752245E-01 -5.096747690E-01 -1.414995901E-02
 7.789196183E-01 8.531622815E-02 -2.501780006E-01
 -1.607419921E-03 -3.077970658E-02 3.028890437E-01
 4.838838421E-03 -8.974931352E-03 9.893127565E-02
 5.339117275E-01 -4.350317288E-02 -1.200776594E-01
 6.565374091E-01 -4.696247180E-02 5.251497744E-02
 5.618755346E-01 -4.002038347E-02 -7.477431808E-02
 1.666058675E-01 -4.849917187E-02 -1.940268042E-01
 1.779985913E-01 -6.182828086E-02 -1.879255229E-01
 2.035920828E-01 -4.742136003E-02 -2.201974053E-01
 -6.619138024E-02 2.327708740E-01 2.440383926E-02
 -3.912231963E-03 1.332853889E-01 9.002186189E-02
 1.823251248E-02 2.576509531E-02 2.229975022E-02
 6.620916307E-02 1.214020902E-01 -1.158035512E-01
 9.122064861E-02 4.902870710E-02 -2.784548138E-01
 2.464181979E-02 8.781287098E-02 2.345399290E-02
 3.047582939E-02 3.200822038E-02 -4.277801011E-02
 -3.007634607E-02 7.094291476E-02 2.318318482E-01
 3.388642611E-01 7.816758564E-02 -4.725191930E-01
 3.499310393E-01 9.504616267E-02 -4.580447941E-01
 2.034150071E-01 -6.551418446E-02 -2.019662526E-01
 8.011278673E-01 -3.557706888E-02 1.931538625E-01
 8.240522589E-01 -5.392708184E-02 1.959807618E-01
 8.299112874E-01 -1.194579950E-02 2.359929686E-01
 8.061314290E-01 -2.039194697E-02 2.054175007E-01
 5.212127477E-01 -4.547586811E-02 -1.432671885E-01
 5.307638555E-01 -6.071520880E-02 -1.200410112E-01
 5.189591908E-01 7.700190432E-02 -5.006426602E-01
 5.242856144E-01 9.117804796E-02 -4.806177806E-01
 4.870050320E-01 9.468775680E-02 -4.822140210E-01
 4.918612137E-01 7.874060790E-02 -5.054993629E-01
 4.803740071E-01 7.930453944E-02 -5.064850874E-01
 3.649150368E-01 8.015334269E-02 -4.800744778E-01
 5.617477250E-01 7.514233345E-02 -4.832756125E-01
 1.550556868E-01 -4.509371162E-02 -1.872481664E-01
 7.594070325E-01 5.532202766E-02 -2.868732690E-01
 7.554206150E-01 7.186386240E-02 -2.832122515E-01
 7.339897114E-01 7.168948859E-02 -3.081584484E-01
 6.987636789E-01 7.566422704E-02 -3.487690020E-01
 7.938353147E-01 6.356823469E-02 -2.408636241E-01
 8.181835697E-01 7.603087444E-02 -2.057911684E-01
 2.529036912E-01 1.079090153E-01 -3.960569873E-01
 7.316486597E-01 -1.898517505E-02 1.444320386E-01
 6.748388939E-01 7.775918418E-02 -3.749070874E-01
 5.690996985E-01 -5.529904696E-02 -6.047024401E-02
 7.013813755E-02 7.968895291E-02 -1.680847399E-01
 1.089345364E-01 9.684157567E-02 -2.337542887E-01
 1.160202325E-01 1.363353214E-01 -2.128983419E-01
 1.493225282E-01 1.097918959E-01 -2.866169885E-01
 1.381670892E-01 6.372206191E-02 -3.382248055E-01
 1.860539342E-01 1.047199711E-01 -3.357580144E-01
 2.001992509E-01 6.804516132E-02 -4.015322031E-01
 6.541140220E-01 -2.922638383E-02 5.734002724E-02
 2.417654770E-01 -5.158401282E-02 -2.429387699E-01
 2.277141116E-01 -6.302532477E-02 -2.249416608E-01
 2.527014882E-01 -7.143309266E-02 -2.315169597E-01
 2.774262378E-01 -6.838223745E-02 -2.535651253E-01
 2.970124855E-01 -7.648240343E-02 -2.517870784E-01
 3.192827497E-01 -7.468446403E-02 -2.629168991E-01
 3.445876182E-01 -5.571479292E-02 -3.024592697E-01
 3.068036390E-01 -1.043523331E-01 -2.251383178E-01
 3.305979637E-01 -5.760084383E-02 -2.944694670E-01
 3.543100531E-01 -5.264708881E-02 -3.100221276E-01
 3.597096176E-01 -6.399131669E-02 -2.906448410E-01
 6.813239396E-01 -2.840987163E-02 8.798378728E-02
 5.843663200E-01 -3.628867258E-02 -3.813627021E-02
 3.058040519E-01 -5.817462056E-02 -2.807012031E-01
 7.966186517E-01 4.863207229E-02 -2.421050218E-01
 7.095395892E-01 6.080542944E-02 -3.443831369E-01
 6.968563808E-01 6.299521129E-02 -3.600879840E-01
 4.716950934E-01 -1.085753437E-01 -1.637849881E-01
 4.229217066E-01 -1.224389624E-01 -1.917278953E-01
 4.362452419E-01 -8.761588175E-02 -2.260031019E-01
 3.989158761E-01 -8.883210042E-02 -2.472255302E-01
 4.849971419E-01 -7.840117025E-02 -1.768626978E-01
 4.613564925E-01 -7.671551665E-02 -2.095096076E-01
 4.918516453E-01 -5.897428992E-02 -1.828821807E-01
 3.726745171E-01 -5.479720060E-02 -3.050799723E-01
 3.778859792E-01 -7.218481195E-02 -2.778676166E-01
 4.179635526E-01 -6.930721551E-02 -2.630225088E-01
 3.623538003E-01 -8.956857637E-02 -2.522598296E-01
 3.852021144E-01 -5.554212365E-02 -3.022934263E-01
 5.722946790E-03 5.837935154E-02 2.361940669E-01
 -2.472528986E-02 3.534299505E-02 4.042526462E-01
 -1.039578920E-02 4.765659473E-03 8.174978210E-01
 -7.451561780E-02 4.152852453E-02 2.296617406E-01
 4.594619311E-01 -5.500642801E-02 -2.384301460E-01
 7.850328742E-01 5.090091450E-02 -2.576922122E-01
 8.666842227E-01 -9.988124565E-03 2.583970241E-01
 8.604492005E-01 -2.475373605E-02 2.397857412E-01
 8.790298028E-01 -2.172250213E-02 2.492980287E-01
 8.713169169E-01 -4.425340436E-02 2.264092770E-01
 8.975083954E-01 -4.004575220E-02 2.347396159E-01
 8.897907066E-01 -8.483769042E-03 2.663195135E-01
 8.859858044E-01 -7.018250485E-02 2.054853839E-01
 9.258221300E-01 -6.891563050E-02 2.072468411E-01
 9.302092120E-01 -3.389855737E-02 2.374038418E-01
 9.312261773E-01 -5.902643130E-03 2.698204521E-01
 9.571484700E-01 -5.510800910E-02 2.086324696E-01
 8.434345445E-01 -2.100681512E-02 2.337211201E-01
 9.903188470E-01 -4.266778594E-02 1.974009024E-01
 1.020786361E+00 -2.696309342E-02 1.526712167E-01
 1.057231550E+00 -3.419870467E-02 1.256517129E-01
 9.409404677E-01 -5.084099603E-03 2.672235496E-01
 8.781670072E-01 -8.023888741E-03 2.656882394E-01
 9.049766268E-01 -1.170273912E-01 1.722420834E-01
 8.243788780E-01 -2.768293263E-02 2.180840336E-01
 2.353548738E-01 7.096971228E-02 -4.273783700E-01
 2.321035746E-01 8.872030562E-02 -4.016742705E-01
 2.687845932E-01 8.791718691E-02 -4.265513175E-01
 2.161460920E-01 -5.038598331E-02 -2.264048129E-01
 2.204695492E-01 -9.433405170E-02 -1.869140242E-01
 2.630584035E-01 7.284338060E-02 -4.389733847E-01
 8.414987692E-01 -8.454654081E-03 2.450466119E-01
 9.392733409E-01 -1.473985124E-02 2.545356149E-01
 9.594308364E-01 -2.356506821E-02 2.375243041E-01
 2.562069422E+00 2.039614911E-01 3.503363239E-03
 5.407073429E-01 8.711539591E-02 -4.787320409E-01
 5.571580539E-01 9.062697866E-02 -4.668300243E-01
 6.272454529E-01 7.515129014E-02 -4.283896481E-01
 1.325973665E-01 -4.041761458E-02 -1.744225168E-01
 7.326802795E-01 5.695746567E-02 -3.175992210E-01
 9.020615098E-01 -7.347412122E-03 2.699865972E-01
 9.100400546E-01 -2.067870406E-02 2.541789646E-01
 9.237347444E-01 -1.428944387E-02 2.625846655E-01
 1.917926417E-01 -4.909784062E-02 -2.089425026E-01
 2.739226989E-01 7.324564885E-02 -4.454838891E-01
 2.093249112E-01 8.499155984E-02 -3.868877620E-01
 8.892631434E-01 -4.403292493E-01 6.348481933E-02
 9.724897428E-01 -6.678795925E-01 4.295441491E-02
 -3.322514763E-02 -2.203684318E-01 7.211303604E-02
 3.260857682E-01 9.222803851E-02 -4.505574018E-01
 3.011241705E-01 9.493967940E-02 -4.348414213E-01
 9.901015833E-01 6.628426564E-02 5.686501218E-02
 9.511585086E-01 6.269769598E-02 1.414313983E-02
 9.332987868E-01 2.616204997E-02 -6.738296154E-03
 1.005607551E+00 3.173620160E-02 1.884983899E-01
 1.043506470E+00 9.785578009E-03 1.378777884E-01
 9.539707746E-01 3.195740524E-02 4.898171273E-02
 9.246115421E-01 4.694302832E-02 -3.767958483E-02
 8.955908258E-01 5.936810632E-02 -8.982879404E-02
 8.744123750E-01 8.526940569E-02 -1.239370449E-01
 8.468177279E-01 6.654526823E-02 -1.673528031E-01
 8.542449617E-01 4.873672343E-02 -1.657226733E-01
 8.712034022E-01 5.648840549E-02 -1.383746542E-01
 4.632426849E-01 1.047626321E-01 -4.722020623E-01
 4.443062263E-01 9.297955563E-02 -4.860082815E-01
 4.406025014E-01 1.184229943E-01 -4.549834426E-01
 6.742002088E-01 -4.287813619E-02 7.630316564E-02
 1.361407578E-01 8.473666693E-02 -3.064745346E-01
 9.790190416E-02 7.427522781E-02 -2.443778741E-01
 6.618581691E-02 5.762404825E-02 -1.813681699E-01
 4.017554253E-02 5.998209846E-02 -7.064287356E-02
 3.924123930E-02 4.408337674E-02 -7.450867498E-02
 9.641370329E-01 -7.732708946E-03 2.527322902E-01
 -5.649040370E-03 -1.220679978E-02 4.633657244E-01