TITLE     = "Visualization of the solution"
VARIABLES = "x"
"y"
"Pressure_Coefficient"
ZONE T="Zone"
 STRANDID=0, SOLUTIONTIME=0
 Nodes=715, Elements=1215, ZONETYPE=FEQuadrilateral
 DATAPACKING=POINT
 DT=(DOUBLE DOUBLE DOUBLE )
 1.000164032E+00 5.097757094E-04 2.034761191E-01
 9.893177152E-01 2.664168365E-03 1.964546875E-01
 9.768984914E-01 5.077335518E-03 1.327334698E-01
 9.609200954E-01 8.205747232E-03 9.144355777E-02
 9.461228848E-01 1.112848613E-02 4.618695663E-02
 9.302353859E-01 1.411090139E-02 3.687401110E-03
 9.188616276E-01 1.635623351E-02 -2.671592260E-02
 9.066814184E-01 1.865046285E-02 -5.278022999E-02
 8.950423598E-01 2.084539086E-02 -8.444259748E-02
 8.832632899E-01 2.303433232E-02 -1.151009347E-01
 8.709471822E-01 2.525012568E-02 -1.331215269E-01
 8.583018184E-01 2.741230652E-02 -1.525036015E-01
 8.456798792E-01 2.957417630E-02 -1.708672760E-01
 8.347008228E-01 3.137363866E-02 -1.809982761E-01
 8.228230476E-01 3.331550583E-02 -2.033077981E-01
 8.099071980E-01 3.540414944E-02 -2.228608459E-01
 7.971569300E-01 3.737482056E-02 -2.354505242E-01
 7.842718959E-01 3.931766376E-02 -2.507759727E-01
 7.718117237E-01 4.117776826E-02 -2.646628252E-01
 7.597055435E-01 4.293638095E-02 -2.823363647E-01
 7.464594841E-01 4.483916983E-02 -3.005431937E-01
 7.324500084E-01 4.676454887E-02 -3.148845738E-01
 7.218445539E-01 4.818867147E-02 -3.338197848E-01
 7.108842134E-01 4.963869229E-02 -3.468841361E-01
 6.991249919E-01 5.110833049E-02 -3.543195759E-01
 6.855046153E-01 5.277846381E-02 -3.702226245E-01
 6.725558639E-01 5.432812124E-02 -3.936641395E-01
 6.630322337E-01 5.544058233E-02 -4.060328439E-01
 6.513992548E-01 5.669887736E-02 -4.182060999E-01
 6.395566463E-01 5.796211958E-02 -4.322428457E-01
 6.277819872E-01 5.913054943E-02 -4.433401881E-01
 6.165320873E-01 6.020122394E-02 -4.552676974E-01
 6.055671573E-01 6.118582934E-02 -4.656825816E-01
 5.928771496E-01 6.226173043E-02 -4.794148868E-01
 5.815495849E-01 6.315160543E-02 -4.871044020E-01
 5.682833791E-01 6.410097331E-02 -4.973796727E-01
 5.563215017E-01 6.489202380E-02 -5.032709437E-01
 5.447111130E-01 6.558045745E-02 -5.085682539E-01
 5.342506170E-01 6.615238637E-02 -5.203847781E-01
 5.230978131E-01 6.670001149E-02 -5.204993990E-01
 5.106800199E-01 6.719084084E-02 -5.191313083E-01
 4.995135963E-01 6.760154665E-02 -5.212496498E-01
 4.865115285E-01 6.799364835E-02 -5.230815579E-01
 4.730826318E-01 6.831248850E-02 -5.260365451E-01
 4.594377577E-01 6.854594499E-02 -5.231872103E-01
 4.460697174E-01 6.865918636E-02 -5.188340466E-01
 4.333149493E-01 6.871353835E-02 -5.155217078E-01
 4.206527472E-01 6.869062036E-02 -5.158883272E-01
 4.084900916E-01 6.862024963E-02 -5.168177285E-01
 3.966395557E-01 6.846054643E-02 -5.107566182E-01
 3.841497898E-01 6.823149323E-02 -5.060391458E-01
 3.726669252E-01 6.795226783E-02 -5.009182746E-01
 3.597932160E-01 6.759386510E-02 -4.989241692E-01
 3.472659290E-01 6.716798991E-02 -4.946991714E-01
 3.341560364E-01 6.663964689E-02 -4.905177848E-01
 3.227177262E-01 6.612028182E-02 -4.844522936E-01
 3.098963797E-01 6.546686590E-02 -4.806228843E-01
 2.963003814E-01 6.470341980E-02 -4.746354868E-01
 2.821902037E-01 6.381206959E-02 -4.688347121E-01
 2.694546878E-01 6.292907149E-02 -4.634595664E-01
 2.572812736E-01 6.201058254E-02 -4.584352883E-01
 2.446232140E-01 6.098382175E-02 -4.520464015E-01
 2.320477217E-01 5.986827612E-02 -4.439334610E-01
 2.194274664E-01 5.867391080E-02 -4.370903875E-01
 2.077942640E-01 5.748816580E-02 -4.289737167E-01
 1.961656511E-01 5.622871593E-02 -4.203486803E-01
 1.837580800E-01 5.479432270E-02 -4.136324488E-01
 1.719125211E-01 5.333283544E-02 -4.050113999E-01
 1.607472152E-01 5.185794458E-02 -3.927731453E-01
 1.487181783E-01 5.017548427E-02 -3.860903924E-01
 1.381586939E-01 4.860257730E-02 -3.744448990E-01
 1.264951378E-01 4.674669728E-02 -3.617683903E-01
 1.151810363E-01 4.483356327E-02 -3.487464135E-01
 1.045776159E-01 4.291329905E-02 -3.345454401E-01
 9.452573955E-02 4.097207636E-02 -3.218068344E-01
 8.340239525E-02 3.867558017E-02 -2.956617566E-01
 7.165347040E-02 3.603918478E-02 -2.787130302E-01
 6.195125356E-02 3.367480263E-02 -2.517018996E-01
 5.205692351E-02 3.104445897E-02 -2.184771998E-01
 4.367709905E-02 2.860756963E-02 -1.812822727E-01
 3.665018082E-02 2.638715692E-02 -1.555778071E-01
 3.042632341E-02 2.423841320E-02 -1.166831708E-01
 2.490939386E-02 2.215704508E-02 -9.017515347E-02
 2.097976767E-02 2.053792030E-02 -3.698730216E-02
 1.721524261E-02 1.885595545E-02 2.887969042E-03
 1.422270667E-02 1.740734465E-02 4.649119707E-02
 1.146089286E-02 1.594565064E-02 9.323949635E-02
 9.420074522E-03 1.477212273E-02 1.507609593E-01
 7.685155142E-03 1.368953194E-02 1.721025641E-01
 6.065482274E-03 1.258886885E-02 2.306159114E-01
 3.932607826E-03 1.096234471E-02 3.090750774E-01
 2.027247334E-03 9.231491946E-03 3.513123523E-01
 4.525732656E-04 7.436520420E-03 4.854172595E-01
 -1.066413359E-03 4.901110660E-03 1.011284696E+00
 -1.631841878E-03 3.009714419E-03 9.201958542E-01
 -1.726468676E-03 1.550663728E-03 8.804712497E-01
 -1.518411795E-03 7.716028631E-05 8.845336160E-01
 -1.022622921E-03 -1.334141009E-03 7.986195992E-01
 -3.574946459E-05 -3.018758027E-03 7.847677646E-01
 1.368450816E-03 -4.680339247E-03 2.637216947E-01
 3.301861230E-03 -6.399755366E-03 3.088433543E-01
 5.056892522E-03 -7.673813030E-03 1.765568291E-01
 7.041233126E-03 -8.907211013E-03 5.836965268E-02
 8.657731116E-03 -9.804049507E-03 -1.461343763E-02
 1.076778769E-02 -1.085503306E-02 -8.009139407E-03
 1.313170604E-02 -1.191749517E-02 -3.959987208E-02
 1.646489277E-02 -1.326020807E-02 -4.801231504E-02
 1.938574575E-02 -1.432313211E-02 -9.782299358E-02
 2.320299856E-02 -1.558000594E-02 -1.209943777E-01
 2.861362137E-02 -1.717426628E-02 -1.415473299E-01
 3.447023407E-02 -1.871767640E-02 -1.547839471E-01
 4.185315594E-02 -2.045396529E-02 -1.598501127E-01
 4.955931008E-02 -2.208546922E-02 -1.732593027E-01
 5.899456143E-02 -2.388965711E-02 -1.741420984E-01
 6.799978018E-02 -2.545161173E-02 -1.818681659E-01
 7.822414488E-02 -2.709235996E-02 -1.839985468E-01
 8.853942901E-02 -2.861538343E-02 -1.899802137E-01
 9.875420481E-02 -3.003407270E-02 -1.960571703E-01
 1.099754646E-01 -3.147723153E-02 -2.009634084E-01
 1.214762405E-01 -3.286876902E-02 -2.060343413E-01
 1.334288120E-01 -3.422674537E-02 -2.119994174E-01
 1.445595324E-01 -3.541333228E-02 -2.191461141E-01
 1.559022963E-01 -3.655697778E-02 -2.254171806E-01
 1.685183793E-01 -3.775308281E-02 -2.315843663E-01
 1.805525422E-01 -3.882752731E-02 -2.399083267E-01
 1.928137094E-01 -3.985101357E-02 -2.477793495E-01
 2.037611753E-01 -4.070393741E-02 -2.544291674E-01
 2.153268456E-01 -4.155177251E-02 -2.607884371E-01
 2.278089821E-01 -4.239377752E-02 -2.679296122E-01
 2.413415164E-01 -4.324683920E-02 -2.798961142E-01
 2.539937198E-01 -4.394781217E-02 -2.910442719E-01
 2.667046785E-01 -4.458250478E-02 -2.964620513E-01
 2.780164480E-01 -4.507902637E-02 -3.051409284E-01
 2.908516228E-01 -4.556716606E-02 -3.113881261E-01
 3.037807643E-01 -4.597808793E-02 -3.219304499E-01
 3.165175021E-01 -4.626660421E-02 -3.279226226E-01
 3.285611570E-01 -4.647356644E-02 -3.329834409E-01
 3.410023153E-01 -4.658471048E-02 -3.398518846E-01
 3.519914448E-01 -4.658786580E-02 -3.422787528E-01
 3.631182611E-01 -4.651200399E-02 -3.402628409E-01
 3.738368452E-01 -4.637737572E-02 -3.446666818E-01
 3.842221200E-01 -4.613683745E-02 -3.437863283E-01
 3.955495954E-01 -4.580302536E-02 -3.373976131E-01
 4.083083868E-01 -4.529199377E-02 -3.306416353E-01
 4.204515517E-01 -4.470026866E-02 -3.215912027E-01
 4.325261414E-01 -4.398480803E-02 -3.094014763E-01
 4.446630180E-01 -4.317072779E-02 -2.938498285E-01
 4.559842348E-01 -4.230839014E-02 -2.786531410E-01
 4.670894742E-01 -4.137038812E-02 -2.586461108E-01
 4.790674448E-01 -4.028782248E-02 -2.393475991E-01
 4.896489084E-01 -3.925174475E-02 -2.196824059E-01
 5.020018816E-01 -3.798215464E-02 -1.963935558E-01
 5.151978135E-01 -3.651819751E-02 -1.699381864E-01
 5.283730030E-01 -3.502641246E-02 -1.420768108E-01
 5.416292548E-01 -3.346262500E-02 -1.203151729E-01
 5.535606146E-01 -3.201269731E-02 -9.682061709E-02
 5.661644936E-01 -3.046391532E-02 -7.383635757E-02
 5.785385966E-01 -2.892142721E-02 -5.271270003E-02
 5.897602439E-01 -2.751982771E-02 -3.337801756E-02
 6.017347574E-01 -2.601992898E-02 -1.615410619E-02
 6.161744595E-01 -2.419913001E-02 4.993369812E-03
 6.303629279E-01 -2.241254598E-02 2.739804932E-02
 6.454545856E-01 -2.053969726E-02 4.792781269E-02
 6.582849622E-01 -1.896885782E-02 6.272750252E-02
 6.714246273E-01 -1.736248471E-02 7.979840659E-02
 6.836379170E-01 -1.590272784E-02 9.399195931E-02
 6.959270835E-01 -1.443179697E-02 1.106156047E-01
 7.102144957E-01 -1.281437837E-02 1.235314713E-01
 7.230195999E-01 -1.134859677E-02 1.368281926E-01
 7.352650762E-01 -1.001391280E-02 1.516168013E-01
 7.483052015E-01 -8.596356027E-03 1.631595676E-01
 7.597807646E-01 -7.381528616E-03 1.797241677E-01
 7.728620768E-01 -6.081217434E-03 1.915269554E-01
 7.844215631E-01 -4.974025767E-03 2.010748103E-01
 7.970272303E-01 -3.802485066E-03 2.140565473E-01
 8.083293438E-01 -2.828983590E-03 2.264924286E-01
 8.200448155E-01 -1.847956097E-03 2.363555250E-01
 8.334547281E-01 -8.387283306E-04 2.507299109E-01
 8.463315964E-01 3.073714470E-05 2.567257766E-01
 8.586096168E-01 7.802053588E-04 2.673071532E-01
 8.711782694E-01 1.430924633E-03 2.765866858E-01
 8.838922977E-01 1.965934178E-03 2.820169419E-01
 8.973288536E-01 2.394065261E-03 2.867190356E-01
 9.079497457E-01 2.614224097E-03 2.915758861E-01
 9.183961153E-01 2.734814771E-03 2.894331210E-01
 9.278191924E-01 2.759372350E-03 2.876167921E-01
 9.365423918E-01 2.716767369E-03 2.861231954E-01
 9.483264089E-01 2.557046013E-03 2.810232856E-01
 9.606707096E-01 2.271280857E-03 2.718998728E-01
 9.751331210E-01 1.775329700E-03 2.637916064E-01
 9.876458049E-01 1.204574830E-03 3.025256190E-01
 -5.000000000E-01 -1.000000000E+00 2.976344394E-02
 3.500000000E+00 -1.000000000E+00 1.589306832E-02
 3.500000000E+00 1.000000000E+00 -2.012178185E-03
 -5.000000000E-01 1.000000000E+00 -8.547258042E-03
 -5.000000000E-01 5.000000000E-01 2.921818264E-02
 -5.000000000E-01 2.752797990E-12 8.360624388E-02
 -5.000000000E-01 -5.000000000E-01 5.711341768E-02
 -9.421907698E-13 -1.000000000E+00 2.104884158E-02
 5.000000000E-01 -1.000000000E+00 1.644524059E-02
 1.000000000E+00 -1.000000000E+00 2.748838613E-02
 1.500000000E+00 -1.000000000E+00 3.614826718E-02
 2.000000000E+00 -1.000000000E+00 3.011095347E-02
 2.500000000E+00 -1.000000000E+00 2.098567288E-02
 3.000000000E+00 -1.000000000E+00 1.674648737E-02
 3.500000000E+00 -5.000000000E-01 1.814042261E-02
 3.500000000E+00 -2.752797990E-12 1.703505488E-02
 3.500000000E+00 5.000000000E-01 5.863937908E-03
 3.000000000E+00 1.000000000E+00 -4.202900720E-03
 2.500000000E+00 1.000000000E+00 -1.032315886E-02
 2.000000000E+00 1.000000000E+00 -2.475834397E-02
 1.500000000E+00 1.000000000E+00 -6.127818056E-02
 1.000000000E+00 1.000000000E+00 -1.128442200E-01
 5.000000000E-01 1.000000000E+00 -1.032412284E-01
 1.733724275E-12 1.000000000E+00 -3.713338442E-02
 6.903689121E-01 -2.724665397E-02 9.761045924E-02
 8.044638289E-01 -1.205648481E-02 2.157231200E-01
 5.964131653E-01 -3.845149640E-02 -2.509613186E-02
 9.020363649E-01 -7.477319553E-03 2.753739394E-01
 2.586331078E-01 -5.352316047E-02 -2.797847990E-01
 7.062346634E-01 6.021576822E-02 -3.419935719E-01
 2.760494768E-01 7.700550722E-02 -4.493847337E-01
 3.659406115E-01 7.817034211E-02 -4.872313628E-01
 9.154307653E-01 3.093823254E-02 -3.833071150E-02
 8.192720051E-01 4.635847293E-02 -2.027675234E-01
 6.122056293E-01 7.264762561E-02 -4.445576675E-01
 4.952531073E-01 -5.020376347E-02 -1.991886121E-01
 4.036113800E-01 -5.707224755E-02 -3.122603610E-01
 5.166294184E-01 7.974252510E-02 -4.999599879E-01
 1.788705562E+00 -5.285546942E-01 2.724560710E-02
 1.786646683E+00 6.734058577E-01 -2.163041584E-02
 3.031174757E+00 2.156842940E-01 8.896699490E-03
 8.014412608E-01 -5.323734289E-01 3.597981694E-02
 7.414449845E-01 5.082959333E-01 -1.574439133E-01
 3.250624192E-01 6.191380248E-01 -1.493099260E-01
 1.207093013E-01 5.433984042E-02 -3.335436167E-01
 1.765509559E-01 6.842492842E-02 -3.862259513E-01
 4.382697362E-01 8.128381884E-02 -5.013823874E-01
 2.734850655E+00 -5.326890949E-01 1.588324212E-02
 1.186950690E+00 6.924754675E-01 -7.044070621E-02
 9.938409999E-01 3.102474477E-01 -6.752994104E-02
 1.274056236E+00 -6.200290268E-01 4.702241170E-02
 1.506894660E+00 -2.203251255E-01 3.355897977E-02
 2.412280413E-01 -5.821464781E-01 -9.711125892E-03
 6.992958286E-02 -3.626589045E-02 -1.524316380E-01
 1.271989729E-01 -4.474767739E-02 -1.952795395E-01
 1.871234831E-01 -4.830119748E-02 -2.353411472E-01
 3.358969929E-01 -5.535778653E-02 -3.236519123E-01
 2.240997788E+00 -5.768143553E-01 1.972411605E-02
 2.025810046E+00 -1.912160639E-01 1.517328415E-02
 2.420207341E+00 -1.843047698E-01 1.150399877E-02
 2.184630933E+00 1.582459417E-01 5.032617999E-03
 1.777412995E+00 1.257527934E-01 7.376532364E-03
 -2.707986294E-01 -2.544235681E-01 9.588338106E-02
 -1.571877919E-01 -5.718731740E-01 3.532850249E-02
 -2.597376239E-01 2.223596114E-01 7.221565949E-02
 -1.526489147E-01 6.988016822E-01 -2.697249555E-02
 3.120726884E-02 3.514368535E-01 -6.145446238E-02
 5.443532364E-02 4.022927083E-02 -1.965008642E-01
 2.240276228E+00 5.583432073E-01 -5.859374830E-03
 2.746210553E+00 5.967092041E-01 1.045120588E-03
 -2.508581517E-01 -8.578633074E-04 1.297825523E-01
 -1.417336196E-01 -1.283663235E-01 1.479192977E-01
 5.046576330E-02 -4.107293960E-01 1.567814207E-02
 2.827816075E-01 -3.113493794E-01 -7.597558556E-02
 -1.290552238E-01 1.178256964E-01 1.459556064E-01
 -1.245290115E-01 -1.871162482E-03 2.166064875E-01
 -5.641098190E-02 -6.567874913E-02 2.458297937E-01
 3.792377536E-02 -2.849994197E-02 -1.016910216E-01
 2.056568713E-02 -1.922513051E-02 -3.838983131E-02
 -4.927716599E-02 -1.493683181E-01 1.077401856E-01
 4.533785708E-03 -9.233219568E-02 1.139372284E-01
 3.820967839E-02 -1.692374097E-01 2.608650024E-02
 7.098604680E-02 -1.017134142E-01 -5.874986919E-02
 1.222701353E-01 -1.562677455E-01 -8.616455454E-02
 -1.409248266E-02 -5.161021027E-02 2.391826902E-01
 8.450741265E-03 -1.237569860E-02 5.008312101E-02
 -5.605605664E-02 -6.455752585E-03 3.535678392E-01
 1.326858458E-01 -9.070271945E-02 -1.490025606E-01
 1.873016001E-01 -1.264047205E-01 -1.605676859E-01
 2.214587273E-01 -5.507789618E-02 -2.546025606E-01
 1.858196702E-01 -1.858612032E-01 -1.080918685E-01
 2.481699125E-01 -1.604936780E-01 -1.686325632E-01
 2.977548475E-01 -5.710424247E-02 -3.019776691E-01
 2.443307942E-01 -1.012815206E-01 -2.211636611E-01
 3.008935037E-01 -1.221734987E-01 -2.254800647E-01
 3.063121594E-01 -1.949865359E-01 -1.490490231E-01
 3.551422873E-01 -1.405298676E-01 -2.123022837E-01
 4.494966231E-01 -5.680729725E-02 -2.656564779E-01
 4.261307603E-01 -5.658308047E-02 -2.948774224E-01
 3.924393351E-01 -2.141450061E-01 -1.387326340E-01
 3.685196637E-01 -5.811657727E-02 -3.223814633E-01
 4.303120691E-01 -3.231290978E-01 -7.720758638E-02
 5.002148232E-01 -2.468329022E-01 -7.582872183E-02
 5.493322439E-01 -4.956227860E-02 -9.948306892E-02
 5.230773320E-01 -4.718235378E-02 -1.506344580E-01
 4.728568013E-01 -1.623460153E-01 -1.362659975E-01
 5.637211437E-01 -1.690220426E-01 -5.343464311E-02
 6.095386447E-01 -2.789822640E-01 -3.860081451E-03
 6.680566722E-01 -1.890948033E-01 3.591356179E-02
 7.534559785E-01 -2.191411312E-02 1.635314760E-01
 7.296313074E-01 -2.351822483E-02 1.390335088E-01
 6.417837640E-01 -3.569767954E-02 3.725129140E-02
 7.147649156E-01 -2.800280167E-01 4.142535608E-02
 7.904444243E-01 -2.176578220E-01 9.022563716E-02
 9.675327872E-01 -8.740823273E-03 2.664325000E-01
 9.411129291E-01 -1.071067422E-02 2.669340514E-01
 8.531196651E-01 -1.022760631E-02 2.517644691E-01
 8.790862463E-01 -9.307508098E-03 2.680613548E-01
 8.276661722E-01 -3.539936591E-01 6.427517958E-02
 9.086592468E-01 -2.044964612E-01 1.256139394E-01
 8.648913078E-01 -1.227146044E-01 1.690687794E-01
 9.649530247E-01 -1.189287194E-01 1.578309101E-01
 1.011310082E+00 -1.976218467E-01 1.147033314E-01
 1.064016889E+00 -1.015453406E-01 1.292882042E-01
 1.108437116E+00 -2.044228620E-01 9.298116324E-02
 1.170062923E+00 -1.016732743E-01 8.042957365E-02
 7.744174470E-01 -1.043028428E-01 1.305809071E-01
 1.103137983E+00 -1.200584490E-02 8.863764578E-02
 1.213855909E+00 8.989961925E-03 5.210193890E-02
 1.139267679E+00 1.041375760E-01 4.972493244E-02
 9.648084471E-01 2.106084753E-02 8.951448651E-02
 1.289381182E+00 1.717417040E-01 1.493553624E-02
 9.063578763E-01 -6.541408883E-02 2.119722779E-01
 1.066092353E+00 -3.332522953E-01 7.797703899E-02
 6.229306191E-01 -1.151420257E-01 5.857895409E-04
 1.394815133E+00 1.471743048E-02 2.738590054E-02
 1.003967371E+00 -6.799416597E-02 1.827341364E-01
 5.618056500E-01 -1.059185202E-01 -6.960816281E-02
 1.236686225E+00 -3.134075522E-01 6.011586303E-02
 1.493542049E+00 1.941938641E-01 5.071472572E-03
 6.881270368E-01 -1.164842503E-01 6.494156969E-02
 6.597817650E-01 -7.517728130E-02 4.771904477E-02
 6.672347192E-01 -3.083826347E-02 6.902730244E-02
 7.014518576E-01 -6.701002111E-02 9.362892641E-02
 6.214844845E-01 -7.553429324E-02 5.796324798E-03
 1.011866173E-01 -2.599062293E-01 -2.300241414E-02
 1.161831923E+00 2.734652373E-01 -1.016082749E-02
 3.412995974E-01 -9.813922563E-02 -2.595956888E-01
 3.801537289E-01 -9.603096026E-02 -2.596991914E-01
 2.785425308E-01 -9.062785174E-02 -2.518700456E-01
 4.136894657E-01 -1.299673499E-01 -2.004607779E-01
 4.550517662E-01 -1.037687042E-01 -2.017949872E-01
 5.093434264E-01 -1.153490454E-01 -1.305206670E-01
 4.873882222E-01 -8.344344477E-02 -1.811454513E-01
 4.749864939E-01 -4.910607109E-02 -2.352034949E-01
 1.760398599E-01 -8.408314500E-02 -1.884072042E-01
 1.491634945E-01 -4.799140678E-02 -2.075355155E-01
 3.109362068E+00 -2.612728293E-01 1.535127704E-02
 4.205526968E-02 -6.852109504E-02 9.208812069E-03
 5.456898031E-02 -3.311129266E-02 -1.318315139E-01
 1.477238159E-02 -5.023266793E-02 8.596782513E-02
 5.241546890E-01 -8.412032030E-02 -1.291157947E-01
 1.062174789E+00 5.856717298E-02 8.371090607E-02
 1.044078165E+00 1.700698767E-01 6.672115705E-03
 8.990690447E-01 2.270101745E-01 -1.020069574E-01
 7.538030703E-01 5.399048176E-02 -2.850663945E-01
 7.817083841E-01 5.554925994E-02 -2.462374880E-01
 8.671718660E-01 3.923608828E-02 -1.339954341E-01
 9.457340198E-01 1.377374441E-01 -3.910477300E-02
 9.955548120E-01 8.925591856E-02 5.042145187E-02
 8.289762270E-01 3.443935153E-01 -1.428306118E-01
 7.485463196E-01 2.345763891E-01 -2.141026980E-01
 6.565444339E-01 6.872214322E-02 -3.997194722E-01
 8.011460431E-01 1.618592323E-01 -1.876772254E-01
 6.869833934E-01 3.361063115E-01 -2.182124058E-01
 5.723684513E-01 2.683233714E-01 -3.002356598E-01
 5.629773032E-01 7.470144272E-02 -4.849923116E-01
 6.477135469E-01 1.639281892E-01 -3.289576763E-01
 5.643609667E-01 4.095522700E-01 -2.273406085E-01
 4.486830154E-01 2.874582699E-01 -3.017074649E-01
 5.060773011E-01 1.950240181E-01 -3.657147241E-01
 4.828587557E-01 8.290735740E-02 -5.025124474E-01
 4.000106930E-01 2.125511801E-01 -3.521189166E-01
 4.024265166E-01 7.880326314E-02 -4.989290266E-01
 3.309193868E-01 2.801367629E-01 -2.788605469E-01
 2.858359418E-01 1.824631610E-01 -3.374058617E-01
 2.257786495E-01 7.439018496E-02 -4.183642055E-01
 2.010363618E-01 7.166939565E-02 -4.029743907E-01
 3.298037349E-01 7.958791881E-02 -4.713584251E-01
 3.024561386E-01 7.652265039E-02 -4.620811104E-01
 4.341144407E-01 1.554105287E-01 -4.149661376E-01
 3.399272405E-01 1.450755716E-01 -4.006652260E-01
 2.209151407E-01 2.668204720E-01 -2.343312855E-01
 1.729056381E-01 1.740147119E-01 -2.493039298E-01
 2.326800683E-01 1.387192877E-01 -3.499527213E-01
 2.542179366E-01 4.149527537E-01 -1.792143799E-01
 9.629574008E-02 -7.014250945E-02 -1.229088536E-01
 9.221359903E-02 -3.996162679E-02 -1.720873460E-01
 5.335122192E-01 -3.588164651E-01 -2.749451089E-02
 3.897829296E-01 -5.780531582E-02 -3.175671969E-01
 3.961437141E-01 -7.353579627E-02 -2.862353777E-01
 3.786653011E-01 -7.029612139E-02 -3.016996017E-01
 3.591178896E-01 -7.216769323E-02 -2.994461266E-01
 5.528120413E-01 -7.382440518E-02 -8.805960509E-02
 5.746788176E-01 -4.137954360E-02 -5.848679359E-02
 9.391490318E-01 8.362081849E-02 -1.732913278E-02
 8.950117519E-01 1.055237471E-01 -8.830983829E-02
 9.438540230E-01 2.759577254E-02 3.441583326E-02
 1.013360833E+00 4.327141951E-02 1.175106302E-01
 9.038040436E-01 6.878434100E-02 -6.808797662E-02
 8.917989599E-01 3.469113380E-02 -8.889551825E-02
 1.044661303E+00 1.699565156E-02 1.233384589E-01
 1.027854399E+00 -2.454459381E-02 1.573237831E-01
 8.682742575E-01 7.767398462E-02 -1.227715878E-01
 8.422892445E-01 4.268329672E-02 -1.702604457E-01
 8.431422410E-01 1.140936414E-01 -1.539556765E-01
 7.916025445E-01 1.051860002E-01 -2.160528189E-01
 7.494953112E-01 1.421670913E-01 -2.453687530E-01
 7.457478422E-01 9.435035487E-02 -2.775691417E-01
 7.296257610E-01 5.600788271E-02 -3.156156007E-01
 7.037868743E-01 1.073397085E-01 -3.148404447E-01
 8.313345481E-01 7.844279769E-02 -1.764855091E-01
 -2.516498748E-02 -2.026653583E-02 4.746643242E-01
 7.054410771E-01 -2.592199470E-02 1.136970910E-01
 7.420717988E-01 5.768122510E-02 -2.996012138E-01
 6.086970760E-01 -3.520499048E-02 -7.514786443E-03
 6.950062500E-01 6.494736597E-02 -3.518455946E-01
 6.819224353E-01 6.293344967E-02 -3.703901216E-01
 6.880761311E-01 7.828612316E-02 -3.518852374E-01
 6.995651078E-02 -6.504567850E-02 -9.989433510E-02
 3.856891823E-02 -4.487312664E-02 -4.186199734E-02
 2.591615336E-02 -3.540017703E-02 -9.360274074E-03
 -2.785028752E-04 -3.295482408E-02 3.250905846E-01
 3.477835718E-01 -5.786431176E-02 -3.218110030E-01
 6.228248197E-01 -3.744817283E-02 1.271450800E-02
 5.078291593E-01 -4.703175742E-02 -1.777167276E-01
 7.335156853E-01 7.066642843E-02 -3.017204535E-01
 4.843768233E-01 -4.859976257E-02 -2.202925375E-01
 7.996211945E-01 7.075622278E-02 -2.178375667E-01
 2.709065207E-01 -5.681462464E-02 -2.841953979E-01
 3.094453932E-01 -8.761440961E-02 -2.665335149E-01
 3.108505053E-01 -6.684686462E-02 -2.957977912E-01
 6.716038520E-01 6.761318374E-02 -3.824453085E-01
 6.669520127E-01 9.053596909E-02 -3.695711915E-01
 6.338832638E-01 6.978518136E-02 -4.260931621E-01
 6.714659875E-01 1.234538544E-01 -3.373951169E-01
 6.324246144E-01 1.106205853E-01 -3.895051568E-01
 5.947078718E-01 1.473606672E-01 -3.813851730E-01
 5.924319374E-01 1.090154768E-01 -4.223119274E-01
 5.874284619E-01 7.203674841E-02 -4.704152150E-01
 5.475187544E-01 1.478671866E-01 -4.066749376E-01
 5.762965102E-01 7.534982862E-02 -4.757973941E-01
 5.680154635E-01 9.410648774E-02 -4.567149927E-01
 5.390418635E-01 7.712338821E-02 -4.976319874E-01
 5.418780681E-01 1.095898319E-01 -4.518741469E-01
 5.133966477E-01 1.329202063E-01 -4.342422288E-01
 4.720723899E-01 1.248350630E-01 -4.486941585E-01
 1.136960083E-01 -4.348621387E-02 -1.852788065E-01
 1.178538533E-01 -6.005112648E-02 -1.669798253E-01
 3.238024646E-01 -5.697709453E-02 -3.155045554E-01
 3.350206015E-01 -7.064122614E-02 -2.982489000E-01
 4.141291983E-01 -6.776098335E-02 -2.838462438E-01
 4.362726575E-01 -7.227660317E-02 -2.597709830E-01
 4.118695746E-01 -9.048188000E-02 -2.543147285E-01
 4.356552556E-01 -4.852121701E-01 -3.363688520E-02
 2.470538169E-01 -5.467612347E-02 -2.700612681E-01
 2.565643236E-01 -7.054541905E-02 -2.613515788E-01
 2.355934771E-01 -6.792101569E-02 -2.511571944E-01
 2.099971689E-01 -7.388044146E-02 -2.177316312E-01
 6.081103957E-01 -5.331995541E-02 -1.020768314E-02
 5.891524886E-01 -7.609997093E-02 -3.712936539E-02
 1.967294397E-01 -4.876729174E-02 -2.415929834E-01
 1.911168909E-01 -6.413880556E-02 -2.221565440E-01
 2.346513039E-01 -5.266313041E-02 -2.648169135E-01
 6.446519739E-01 6.710176537E-02 -4.160562153E-01
 8.054817309E-01 5.014694222E-02 -2.199169266E-01
 7.739165106E-01 7.716785338E-02 -2.480096982E-01
 6.993670000E-01 -3.989560879E-02 1.015105891E-01
 7.191609212E-01 -3.808348116E-02 1.205697939E-01
 7.410001635E-01 -3.791524344E-02 1.428490998E-01
 7.662139103E-01 -3.835128943E-02 1.628108867E-01
 7.792032158E-01 -1.376663468E-02 1.913910298E-01
 7.531224533E-01 -6.499446124E-02 1.392870393E-01
 7.827229665E-01 -6.348320866E-02 1.647950566E-01
 6.797482775E-01 -4.522850179E-02 7.815314003E-02
 6.562308240E-01 -4.556768226E-02 5.299516679E-02
 4.619548955E-01 -7.187243240E-02 -2.278266804E-01
 6.350360088E-01 -5.379084410E-02 2.342197707E-02
 1.745654857E-01 -5.053760215E-02 -2.240230480E-01
 1.601875248E-01 -6.312314408E-02 -2.003985369E-01
 6.536420663E-01 -3.053050044E-02 5.460055584E-02
 7.898772148E-01 -3.812045547E-02 1.827318221E-01
 8.137343083E-01 -5.251660916E-02 1.916563199E-01
 8.267584635E-01 -1.263777114E-02 2.316100121E-01
 1.616674361E-01 -4.719244272E-02 -2.169966665E-01
 5.872630922E-01 -5.089502190E-02 -3.934713066E-02
 5.353040879E-01 -4.521696280E-02 -1.253109623E-01
 7.174934803E-01 -2.233733517E-02 1.273391514E-01
 4.378178400E-01 -5.456450334E-02 -2.838600416E-01
 4.145262554E-01 -5.428171476E-02 -3.096440005E-01
 4.669058433E-01 8.009929798E-02 -5.080358953E-01
 3.581061662E-01 -5.624969041E-02 -3.251801301E-01
 5.622831243E-01 -4.212797971E-02 -7.912459665E-02
 5.695868587E-01 -5.677611979E-02 -6.859406434E-02
 2.844179283E-01 -5.537051454E-02 -2.959346537E-01
 8.391940408E-01 -1.390535262E-02 2.409111109E-01
 8.508650133E-01 -2.955676647E-02 2.324271539E-01
 8.310493241E-01 -3.257206391E-02 2.185635615E-01
 8.453148657E-01 -5.560776471E-02 2.060919371E-01
 8.780015924E-01 -4.422273829E-02 2.299816945E-01
 8.139904429E-01 -1.123483441E-02 2.241190175E-01
 4.538406375E-01 8.257055802E-02 -5.031956171E-01
 4.434059065E-01 9.537286548E-02 -4.846603495E-01
 4.066201779E-01 1.179455038E-01 -4.520929321E-01
 4.245891478E-01 9.490637824E-02 -4.829786314E-01
 3.703282309E-01 1.196354147E-01 -4.414073445E-01
 3.377061458E-01 1.075164750E-01 -4.437630641E-01
 3.148820487E-01 7.593642938E-02 -4.694519005E-01
 3.108163440E-01 9.167178148E-02 -4.484729065E-01
 2.872690332E-01 9.415315259E-02 -4.330205010E-01
 3.049597719E-01 1.248448643E-01 -4.061172728E-01
 2.639816517E-01 9.006577182E-02 -4.249364338E-01
 2.509383977E-01 7.540142460E-02 -4.361328438E-01
 2.397387064E-01 9.546645317E-02 -4.050907917E-01
 2.134220850E-01 9.358477147E-02 -3.842806797E-01
 1.858522902E-01 8.879538610E-02 -3.638184790E-01
 1.551702438E-01 7.881345652E-02 -3.398440199E-01
 1.415081963E-01 6.092011570E-02 -3.535352115E-01
 1.961134092E-01 1.191771381E-01 -3.324029345E-01
 3.457371981E-01 8.887620174E-02 -4.707844644E-01
 1.542137716E-01 6.091969384E-02 -3.718083963E-01
 1.301877648E-01 5.642689760E-02 -3.443320629E-01
 1.228036394E-01 7.008503653E-02 -3.143108280E-01
 8.707333066E-02 4.898182987E-02 -2.763341531E-01
 9.672765388E-02 4.997381309E-02 -3.060116901E-01
 8.921458300E-02 6.411496312E-02 -2.460377771E-01
 6.784828906E-01 -2.731572636E-02 8.480451504E-02
 3.790053719E-01 -5.574644553E-02 -3.256640504E-01
 5.497833004E-01 7.445142025E-02 -4.941596794E-01
 8.667978992E-01 -8.124104000E-03 2.642782333E-01
 7.128519273E-01 7.628989232E-02 -3.243099732E-01
 4.152029037E-01 8.075511750E-02 -5.004000658E-01
 4.264058968E-01 7.886989466E-02 -5.026014144E-01
 8.102094131E-01 -2.482380863E-02 2.095362163E-01
 7.932808843E-01 5.024354062E-02 -2.339719963E-01
 4.651137730E-01 -5.415771924E-02 -2.470073964E-01
 1.375061225E-01 -5.854310826E-02 -1.837537908E-01
 2.635410975E-01 7.348247153E-02 -4.471760576E-01
 5.321751194E-01 -6.126946071E-02 -1.238752090E-01
 2.563112035E+00 2.046700498E-01 4.119715810E-03
 5.642448234E-01 1.922476402E-01 -3.615386109E-01
 -5.172450864E-03 -1.363870625E-02 4.583725361E-01
 3.117634188E-03 -9.132707322E-03 3.723331125E-01
 7.659427852E-01 5.740846531E-02 -2.669225546E-01
 6.431203264E-01 8.158375449E-02 -4.031805915E-01
 6.242656599E-01 8.273688262E-02 -4.222818653E-01
 6.058826891E-01 9.002315013E-02 -4.315419073E-01
 7.191594674E-01 6.016788924E-02 -3.283104839E-01
 5.156020959E-01 1.047842999E-01 -4.722701108E-01
 2.063983746E-01 -5.402002414E-02 -2.435136165E-01
 1.383713869E-01 -4.418445402E-02 -2.052115860E-01
 2.134917653E-01 7.116128574E-02 -4.144122762E-01
 9.462569898E-01 5.092926014E-01 -9.771668357E-02
 9.923980613E-01 -3.914185872E-02 2.098224137E-01
 9.666536222E-01 -5.468802177E-02 2.046276655E-01
 9.320641676E-01 -4.574261979E-02 2.304943418E-01
 9.213608596E-01 -7.765775893E-03 2.765890769E-01
 9.932618024E-01 -1.737755332E-02 2.555923034E-01
 9.117576847E-01 -5.496171824E-03 2.792672180E-01
 9.097883789E-01 -1.644247045E-02 2.666657571E-01
 8.921649547E-01 -1.979192241E-02 2.573479419E-01
 9.075442895E-01 -3.585923998E-02 2.447539663E-01
 9.275016598E-01 -2.121714997E-02 2.553859878E-01
 9.484694971E-01 -2.884841793E-02 2.519389525E-01
 1.076421628E-01 5.721358546E-02 -3.115355340E-01
 5.072926493E-01 -6.239040527E-02 -1.680633976E-01
 8.238985130E-01 -8.918141362E-02 1.674794140E-01
 8.705744105E-01 -2.108837274E-02 2.513956844E-01
 9.696298058E-01 4.991115905E-02 5.247987578E-02
 9.293230123E-01 4.739327140E-02 -8.499706549E-03
 9.050790779E-01 4.484271377E-02 -6.357783030E-02
 8.325291824E-01 5.557616208E-02 -1.792565749E-01
 6.982666698E-01 1.697968214E-01 -2.817113177E-01
 9.719312511E-01 -2.475795078E-02 2.274984758E-01
 7.679769081E-01 -1.803598465E-02 1.791875293E-01
 2.888376000E-01 7.450323516E-02 -4.585283311E-01
 5.660071533E-01 6.220679664E-01 -1.623942356E-01
 5.985061005E-01 7.454297209E-02 -4.569409353E-01
 7.415315454E-01 -2.039157004E-02 1.517843911E-01
 7.919812358E-01 -1.678977587E-02 2.010069334E-01
 8.850641554E-02 2.462669768E-01 -1.230031001E-01
 8.153924377E-02 1.623823534E-01 -1.423663870E-01
 -4.110345188E-02 2.196687174E-01 2.839140907E-02
 -3.073571657E-02 1.236458330E-01 1.191615823E-01
 2.077325515E-02 2.470943582E-02 1.032144309E-02
 3.454808929E-02 1.098234292E-01 -3.632928690E-02
 -7.368679703E-02 6.263400101E-02 2.478293960E-01
 -3.987426573E-02 3.412376304E-02 4.128200841E-01
 -8.869681330E-03 6.941141032E-02 2.040241304E-01
 -3.086005878E-02 4.777306438E-03 5.897700266E-01
 -8.616381170E-03 3.910749792E-02 3.472454177E-01