TITLE     = "Visualization of the solution"
VARIABLES = "x"
"y"
"Pressure_Coefficient"
ZONE T="Zone"
 STRANDID=0, SOLUTIONTIME=0
 Nodes=680, Elements=1145, ZONETYPE=FEQuadrilateral
 DATAPACKING=POINT
 DT=(DOUBLE DOUBLE DOUBLE )
 1.000265479E+00 5.078685936E-04 2.184975220E-01
 9.859918952E-01 3.228294197E-03 2.099671164E-01
 9.723080993E-01 5.817819387E-03 1.091960263E-01
 9.555061460E-01 8.994351141E-03 7.994278216E-02
 9.408760071E-01 1.181096211E-02 2.018791296E-02
 9.271949530E-01 1.443114132E-02 -6.297940417E-03
 9.150445461E-01 1.665157638E-02 -3.075283019E-02
 9.028213024E-01 1.890964061E-02 -6.020719899E-02
 8.908674717E-01 2.111171186E-02 -8.566409580E-02
 8.786550760E-01 2.328541875E-02 -1.065629767E-01
 8.664283752E-01 2.543696575E-02 -1.310769863E-01
 8.544496894E-01 2.752797119E-02 -1.594718795E-01
 8.424686790E-01 2.954316325E-02 -1.739649107E-01
 8.311913013E-01 3.133238479E-02 -1.849452104E-01
 8.197888732E-01 3.315522894E-02 -1.961037398E-01
 8.074285388E-01 3.507071361E-02 -2.161549790E-01
 7.952205539E-01 3.698344901E-02 -2.337101081E-01
 7.831230164E-01 3.875738010E-02 -2.434890116E-01
 7.711453438E-01 4.051934183E-02 -2.608166958E-01
 7.597685456E-01 4.214840755E-02 -2.760765213E-01
 7.471694946E-01 4.392055795E-02 -2.912220479E-01
 7.339884043E-01 4.570531845E-02 -3.056423675E-01
 7.233862281E-01 4.712181538E-02 -3.230555908E-01
 7.122693658E-01 4.856538028E-02 -3.326109970E-01
 7.006022930E-01 5.001439154E-02 -3.487269789E-01
 6.877588034E-01 5.160411075E-02 -3.662740490E-01
 6.748186350E-01 5.309726298E-02 -3.775190025E-01
 6.641393304E-01 5.429512635E-02 -3.892581698E-01
 6.523878574E-01 5.556935072E-02 -4.039725471E-01
 6.410027742E-01 5.676349998E-02 -4.157647829E-01
 6.291711330E-01 5.792970955E-02 -4.278600304E-01
 6.176483631E-01 5.903293937E-02 -4.442948263E-01
 6.070670485E-01 5.997823179E-02 -4.546537401E-01
 5.950274467E-01 6.098476797E-02 -4.607469865E-01
 5.833272338E-01 6.188052520E-02 -4.719720569E-01
 5.701544285E-01 6.286289543E-02 -4.858960551E-01
 5.574680567E-01 6.368809938E-02 -4.924139151E-01
 5.449065566E-01 6.443098933E-02 -5.004541817E-01
 5.335273743E-01 6.502888352E-02 -5.010912861E-01
 5.216003060E-01 6.557223946E-02 -5.055208371E-01
 5.091851950E-01 6.609663367E-02 -5.107290157E-01
 4.980498552E-01 6.647618860E-02 -5.104706835E-01
 4.850033820E-01 6.685937196E-02 -5.148070928E-01
 4.720035195E-01 6.716943532E-02 -5.123645081E-01
 4.581913948E-01 6.738352776E-02 -5.129107446E-01
 4.449561536E-01 6.753449142E-02 -5.147127229E-01
 4.321283400E-01 6.758160889E-02 -5.132797796E-01
 4.191111326E-01 6.755635887E-02 -5.098429416E-01
 4.064891338E-01 6.744473428E-02 -5.028238589E-01
 3.936819732E-01 6.726742536E-02 -5.041986993E-01
 3.816495240E-01 6.706064939E-02 -5.039838831E-01
 3.697100878E-01 6.675901264E-02 -4.984899333E-01
 3.565076292E-01 6.636672467E-02 -4.927422224E-01
 3.439994156E-01 6.591305137E-02 -4.889173500E-01
 3.312000930E-01 6.540597975E-02 -4.874503241E-01
 3.203728497E-01 6.489435583E-02 -4.842778256E-01
 3.080475926E-01 6.427340955E-02 -4.787176579E-01
 2.951032221E-01 6.350647658E-02 -4.701468817E-01
 2.814260423E-01 6.264708191E-02 -4.667406726E-01
 2.693899274E-01 6.180910394E-02 -4.623884580E-01
 2.575337589E-01 6.091540307E-02 -4.560577298E-01
 2.451086938E-01 5.989958718E-02 -4.500555169E-01
 2.326471210E-01 5.880390480E-02 -4.454959406E-01
 2.205566317E-01 5.766258389E-02 -4.364652818E-01
 2.087499946E-01 5.646008626E-02 -4.271866971E-01
 1.969951540E-01 5.519597605E-02 -4.205095004E-01
 1.847364157E-01 5.379491299E-02 -4.131313306E-01
 1.728020906E-01 5.232390389E-02 -4.012811402E-01
 1.611946523E-01 5.080923811E-02 -3.950934038E-01
 1.494614482E-01 4.918847233E-02 -3.858605003E-01
 1.386235356E-01 4.758825153E-02 -3.752141575E-01
 1.271368116E-01 4.579427838E-02 -3.671754919E-01
 1.160017252E-01 4.394283518E-02 -3.566406080E-01
 1.053214818E-01 4.204309732E-02 -3.455153412E-01
 9.552580863E-02 4.019124433E-02 -3.294488874E-01
 8.464004099E-02 3.799780086E-02 -3.124856823E-01
 7.333379239E-02 3.554242849E-02 -3.045570501E-01
 6.359445304E-02 3.325682506E-02 -2.901501938E-01
 5.415722355E-02 3.085623309E-02 -2.687975322E-01
 4.547248036E-02 2.844619192E-02 -2.321768438E-01
 3.786412999E-02 2.615335770E-02 -2.054706300E-01
 3.113809787E-02 2.392512932E-02 -1.857797196E-01
 2.539487556E-02 2.184755914E-02 -1.575358423E-01
 2.116331831E-02 2.016360499E-02 -1.291824951E-01
 1.717853919E-02 1.844259724E-02 -1.209211229E-01
 1.406885777E-02 1.696851850E-02 -5.901671750E-02
 1.127129979E-02 1.551853120E-02 -4.979666164E-02
 9.246707894E-03 1.436946169E-02 3.241854055E-03
 7.401592564E-03 1.322774496E-02 3.364781135E-02
 5.697423592E-03 1.206695288E-02 9.160845284E-02
 3.500329331E-03 1.035055984E-02 2.114644888E-01
 1.682173577E-03 8.633923717E-03 2.259167846E-01
 2.329884883E-04 6.903739646E-03 3.314780120E-01
 -1.136891078E-03 4.523218144E-03 5.864639532E-01
 -1.727095107E-03 2.659729682E-03 6.044841174E-01
 -1.912614447E-03 1.117579173E-03 6.623121552E-01
 -1.801100327E-03 -6.268581492E-04 1.156870060E+00
 -1.324949670E-03 -2.507383935E-03 6.162129309E-01
 -3.169987758E-04 -4.725519568E-03 9.911521776E-01
 1.217698795E-03 -7.027557585E-03 5.163423117E-01
 3.300929908E-03 -9.406145662E-03 5.778103785E-01
 5.214971956E-03 -1.120938174E-02 3.870799921E-01
 7.403193042E-03 -1.300252508E-02 3.302977256E-01
 9.155364707E-03 -1.429222897E-02 2.681335921E-01
 1.130107231E-02 -1.574112661E-02 2.378285462E-01
 1.374899037E-02 -1.725341752E-02 1.646814914E-01
 1.703214087E-02 -1.909183897E-02 1.095826383E-01
 2.009774745E-02 -2.066308074E-02 6.581023721E-02
 2.400692925E-02 -2.250373922E-02 2.186989552E-02
 2.929100208E-02 -2.474543452E-02 -3.996678688E-02
 3.490483761E-02 -2.690394782E-02 -8.669862690E-02
 4.164481163E-02 -2.924313582E-02 -1.289226222E-01
 4.909864441E-02 -3.158620000E-02 -1.651900594E-01
 5.769217387E-02 -3.403740749E-02 -1.873589438E-01
 6.637118757E-02 -3.629768640E-02 -2.211463516E-01
 7.633333653E-02 -3.866678104E-02 -2.379759623E-01
 8.615697175E-02 -4.081632197E-02 -2.582246511E-01
 9.661552310E-02 -4.292697087E-02 -2.738433856E-01
 1.076694578E-01 -4.500122368E-02 -2.880579587E-01
 1.191109121E-01 -4.699239880E-02 -3.035735446E-01
 1.307758838E-01 -4.887817428E-02 -3.178072684E-01
 1.413764954E-01 -5.048150197E-02 -3.320155330E-01
 1.526770592E-01 -5.208115652E-02 -3.421291138E-01
 1.645823270E-01 -5.365414917E-02 -3.531633450E-01
 1.761366725E-01 -5.508022010E-02 -3.655977552E-01
 1.879966110E-01 -5.644620955E-02 -3.763712609E-01
 1.986678988E-01 -5.758645386E-02 -3.873735040E-01
 2.100665420E-01 -5.872812122E-02 -3.969172588E-01
 2.221902013E-01 -5.983842537E-02 -4.087063722E-01
 2.343174666E-01 -6.085312739E-02 -4.191005349E-01
 2.462265491E-01 -6.174717098E-02 -4.270246874E-01
 2.584251165E-01 -6.258120388E-02 -4.371704421E-01
 2.695628107E-01 -6.324992329E-02 -4.486481241E-01
 2.819959223E-01 -6.388254464E-02 -4.551135706E-01
 2.942008674E-01 -6.441865861E-02 -4.640823590E-01
 3.067662418E-01 -6.482421607E-02 -4.685793759E-01
 3.184555471E-01 -6.511649489E-02 -4.742282842E-01
 3.309675157E-01 -6.531106681E-02 -4.801711143E-01
 3.415994346E-01 -6.538455933E-02 -4.859821089E-01
 3.530869484E-01 -6.533987075E-02 -4.827019095E-01
 3.641602993E-01 -6.521946192E-02 -4.812764485E-01
 3.752466440E-01 -6.497554481E-02 -4.816633966E-01
 3.871283531E-01 -6.459679455E-02 -4.702730590E-01
 4.000781476E-01 -6.406615674E-02 -4.624068646E-01
 4.123882353E-01 -6.341097504E-02 -4.519240349E-01
 4.252822697E-01 -6.259476393E-02 -4.322140864E-01
 4.377278388E-01 -6.168224663E-02 -4.170796820E-01
 4.501315355E-01 -6.063698977E-02 -3.971527477E-01
 4.622862041E-01 -5.952285230E-02 -3.716664400E-01
 4.748018086E-01 -5.827273428E-02 -3.536248634E-01
 4.867778420E-01 -5.693860352E-02 -3.255684285E-01
 4.992115796E-01 -5.551072210E-02 -2.958466866E-01
 5.127710700E-01 -5.384797230E-02 -2.707912074E-01
 5.260843635E-01 -5.213919654E-02 -2.426790597E-01
 5.388809443E-01 -5.041922256E-02 -2.143707548E-01
 5.519356728E-01 -4.862130061E-02 -1.875239668E-01
 5.653437376E-01 -4.672533646E-02 -1.613188895E-01
 5.785008073E-01 -4.482642189E-02 -1.365224644E-01
 5.914375186E-01 -4.293370992E-02 -1.140418499E-01
 6.042879820E-01 -4.099497944E-02 -8.629265423E-02
 6.181110740E-01 -3.894787282E-02 -6.335793713E-02
 6.320452094E-01 -3.683042899E-02 -4.204616171E-02
 6.461715102E-01 -3.471117467E-02 -1.860293948E-02
 6.593009830E-01 -3.271743655E-02 -1.508866918E-05
 6.727848649E-01 -3.066258132E-02 2.216838312E-02
 6.852796674E-01 -2.877967432E-02 4.170571180E-02
 6.977059245E-01 -2.691503428E-02 5.948804286E-02
 7.125117779E-01 -2.473764308E-02 7.597593916E-02
 7.256314158E-01 -2.279903926E-02 9.457592222E-02
 7.375729680E-01 -2.105575055E-02 1.129764433E-01
 7.510483861E-01 -1.910760999E-02 1.308551403E-01
 7.639271021E-01 -1.730615646E-02 1.470155225E-01
 7.772125602E-01 -1.542128623E-02 1.649382273E-01
 7.894321680E-01 -1.376989111E-02 1.841056830E-01
 8.024271131E-01 -1.205933932E-02 1.963448467E-01
 8.133473396E-01 -1.064653508E-02 2.125202588E-01
 8.247502446E-01 -9.233046323E-03 2.269115208E-01
 8.370292187E-01 -7.739000022E-03 2.456099123E-01
 8.496834636E-01 -6.330210716E-03 2.589527720E-01
 8.617441654E-01 -5.044527352E-03 2.740704088E-01
 8.730140328E-01 -3.955654800E-03 2.843808540E-01
 8.840717077E-01 -2.938803751E-03 2.980977579E-01
 8.968057036E-01 -1.918721129E-03 3.087221694E-01
 9.068741202E-01 -1.218394726E-03 3.190339234E-01
 9.175801277E-01 -5.833616597E-04 3.216298760E-01
 9.277763963E-01 -9.748060984E-05 3.296017933E-01
 9.373017550E-01 2.716471790E-04 3.291453815E-01
 9.496336579E-01 6.039755535E-04 3.245254910E-01
 9.630040526E-01 8.025332936E-04 3.448746511E-01
 9.769902229E-01 8.353991434E-04 3.152880625E-01
 9.889341593E-01 7.148081786E-04 3.340738451E-01
 -5.000000000E-01 -1.000000000E+00 2.611571943E-02
 3.500000000E+00 -1.000000000E+00 1.582768844E-02
 3.500000000E+00 1.000000000E+00 1.684263062E-03
 -5.000000000E-01 1.000000000E+00 -3.307095273E-03
 -5.000000000E-01 5.000000000E-01 3.843686423E-02
 -5.000000000E-01 2.752797990E-12 9.856537485E-02
 -5.000000000E-01 -5.000000000E-01 6.211440856E-02
 -9.421907698E-13 -1.000000000E+00 1.308201534E-02
 5.000000000E-01 -1.000000000E+00 -1.336012778E-02
 1.000000000E+00 -1.000000000E+00 6.651654555E-03
 1.500000000E+00 -1.000000000E+00 2.733384031E-02
 2.000000000E+00 -1.000000000E+00 2.597146900E-02
 2.500000000E+00 -1.000000000E+00 1.957561488E-02
 3.000000000E+00 -1.000000000E+00 1.627467077E-02
 3.500000000E+00 -5.000000000E-01 1.888073331E-02
 3.500000000E+00 -2.752797990E-12 1.895668499E-02
 3.500000000E+00 5.000000000E-01 9.113448076E-03
 3.000000000E+00 1.000000000E+00 -1.064418202E-03
 2.500000000E+00 1.000000000E+00 -7.122168023E-03
 2.000000000E+00 1.000000000E+00 -2.092804439E-02
 1.500000000E+00 1.000000000E+00 -5.661855279E-02
 1.000000000E+00 1.000000000E+00 -1.071910609E-01
 5.000000000E-01 1.000000000E+00 -9.657182209E-02
 1.733724275E-12 1.000000000E+00 -2.992732913E-02
 6.819080237E-01 -4.177151635E-02 3.164458626E-02
 7.860717559E-01 -2.297921712E-02 1.722259717E-01
 9.029867840E-01 -1.512020279E-02 2.955541474E-01
 5.867893743E-01 -5.462785520E-02 -1.193521217E-01
 6.963505612E-01 6.410697087E-02 -3.447893052E-01
 7.918193708E-01 5.147251331E-02 -2.315513249E-01
 2.749155812E-01 -7.653475887E-02 -4.267753882E-01
 2.756810693E-01 7.191892456E-02 -4.522246451E-01
 9.119838473E-01 2.760983353E-02 -4.247042857E-02
 5.894502017E-01 7.177684874E-02 -4.537624700E-01
 4.063154290E-01 -7.719500026E-02 -4.258261844E-01
 4.125295774E-01 8.467286558E-02 -4.870845423E-01
 1.789362321E+00 -5.349486075E-01 2.653271267E-02
 1.778473369E+00 6.355828271E-01 -1.720177767E-02
 3.031170495E+00 2.156864517E-01 1.104684195E-02
 7.689699173E-01 -5.395261269E-01 7.863399342E-03
 4.787106176E-01 -7.046209908E-02 -3.240491735E-01
 3.782036221E-01 -6.803968999E-01 -3.457951083E-02
 1.256080267E-01 -5.887481797E-02 -2.899145513E-01
 1.767798063E-01 -6.603068254E-02 -3.461219121E-01
 7.544204841E-01 5.087341506E-01 -1.462404821E-01
 4.905935841E-01 7.940400741E-02 -4.957349989E-01
 3.147883294E-01 6.351135989E-01 -1.249540595E-01
 1.206883736E-01 5.544815610E-02 -3.374473592E-01
 1.749402025E-01 6.784515927E-02 -3.856142810E-01
 2.734859888E+00 -5.326795482E-01 1.616453237E-02
 1.166586728E+00 6.151459734E-01 -6.118843799E-02
 9.868209131E-01 3.442949307E-01 -6.063506399E-02
 8.489254660E-01 4.104311573E-02 -1.590444579E-01
 1.252151751E+00 -6.721030553E-01 3.642547174E-02
 1.504751289E+00 -2.684519400E-01 3.574189096E-02
 2.241115328E+00 -5.778677720E-01 1.840288722E-02
 2.026705352E+00 -1.997304000E-01 1.556364470E-02
 2.420247506E+00 -1.842783337E-01 1.195716766E-02
 2.184659432E+00 1.583203792E-01 7.071083765E-03
 1.841347238E+00 7.091299248E-02 1.154007865E-02
 -2.710312045E-01 -2.367447225E-01 1.125099945E-01
 -1.431243873E-01 -5.995416987E-01 2.209166025E-02
 1.175539084E-01 -3.759721228E-01 -3.920932375E-02
 -2.638437739E-01 2.164058042E-01 8.904699942E-02
 -9.695730764E-02 6.521823154E-01 -2.572485400E-02
 3.720505689E-02 3.317150517E-01 -5.983671810E-02
 3.991393514E-02 3.381213611E-02 -1.815057451E-01
 2.225449080E+00 5.666442751E-01 -3.618922182E-03
 2.743737086E+00 5.980936725E-01 3.615428620E-03
 -2.335890585E-01 -7.075726323E-03 1.627167855E-01
 -1.330129896E-01 9.973558539E-02 1.687188885E-01
 -1.189930636E-01 -1.422286288E-01 1.678497552E-01
 6.890273554E-02 -4.534586694E-02 -1.870866204E-01
 4.394500414E-02 -3.883711149E-02 -9.963015609E-02
 -7.755538623E-02 -3.235193065E-01 4.997446689E-02
 1.711341507E-03 -1.820000339E-01 5.860131723E-02
 1.586753366E-01 -2.298389190E-01 -1.389911003E-01
 3.510845353E-01 -7.505315842E-02 -4.620032044E-01
 3.128321858E-01 -7.546354517E-02 -4.506302986E-01
 2.261303037E-01 -6.991424243E-02 -3.938914115E-01
 -3.726253284E-02 -9.803683436E-02 2.513356634E-01
 2.042579892E-02 -2.574958504E-02 1.067233257E-01
 -1.095472138E-01 -2.332083927E-02 2.811168440E-01
 -7.274030963E-02 5.747233282E-02 2.895917432E-01
 3.833082318E-02 -1.097150195E-01 2.996483807E-02
 3.109367163E+00 -2.612642557E-01 1.652301187E-02
 1.410075967E-02 -7.118750000E-02 1.408888681E-01
 8.014488801E-03 -1.789942361E-02 3.052764691E-01
 -4.688671842E-02 -3.522383650E-02 4.649273293E-01
 -5.398880147E-02 8.358734409E-03 4.791804817E-01
 -2.563136800E-02 4.969978875E-02 3.344237337E-01
 2.038108011E-02 2.492885453E-02 -6.856497135E-02
 -4.768133021E-02 1.160278738E-01 1.337022144E-01
 7.440183225E-02 4.745850779E-02 -2.740955864E-01
 1.569491926E-02 8.503697408E-02 1.624793560E-03
 1.015215919E-02 1.535858050E-01 3.269037324E-03
 9.009396636E-02 1.370850399E-01 -1.474945766E-01
 6.244915036E-02 2.261415479E-01 -7.807347479E-02
 1.561451797E-01 1.735979326E-01 -2.404837917E-01
 3.378354222E-01 7.822956713E-02 -4.741418488E-01
 3.150963488E-01 7.842267267E-02 -4.634922576E-01
 2.253864115E-01 7.210941006E-02 -4.208269938E-01
 2.012690651E-01 6.984411920E-02 -4.035997712E-01
 1.394214524E-01 1.147670847E-01 -2.767623598E-01
 1.666220350E-01 2.885298321E-01 -1.833696475E-01
 2.749403489E-01 2.378565302E-01 -2.804108308E-01
 2.408935170E-01 1.541783161E-01 -3.346984409E-01
 2.811017150E-01 3.704774536E-01 -2.106517082E-01
 3.954279408E-01 2.854138087E-01 -2.895225647E-01
 3.578799558E-01 1.869882014E-01 -3.649483347E-01
 3.775228622E-01 7.931792989E-02 -4.862181825E-01
 4.733368973E-01 2.101492321E-01 -3.554295595E-01
 5.398562548E-01 7.591247808E-02 -4.862495573E-01
 5.635483802E-01 7.560122479E-02 -4.722634438E-01
 4.529831484E-01 7.944080024E-02 -4.990730715E-01
 5.129840405E-01 3.332820288E-01 -2.613421255E-01
 5.795006430E-01 2.218858650E-01 -3.204748171E-01
 6.488270387E-01 7.000978942E-02 -3.955150789E-01
 6.240258813E-01 7.362265451E-02 -4.235083746E-01
 6.723761151E-01 6.733562701E-02 -3.704210587E-01
 5.279983661E-01 1.609056472E-01 -3.966223001E-01
 6.110212440E-01 1.475500153E-01 -3.585888620E-01
 6.663787742E-01 2.087134194E-01 -2.782145751E-01
 6.840393348E-01 1.389705128E-01 -3.052551545E-01
 7.436680044E-01 5.687489486E-02 -2.893951665E-01
 7.193836567E-01 6.063422315E-02 -3.177456667E-01
 6.262989323E-01 3.341746871E-01 -2.298687726E-01
 7.505503341E-01 3.027623899E-01 -1.864892801E-01
 4.230808058E-01 1.548696380E-01 -4.057809126E-01
 4.173135416E-01 4.417056319E-01 -2.130370857E-01
 6.462551537E-01 1.141702450E-01 -3.621393060E-01
 5.692489717E-01 1.231996457E-01 -4.099322363E-01
 7.608734121E-01 2.010980088E-01 -2.135823170E-01
 7.720835173E-01 1.291417606E-01 -2.237981498E-01
 8.275277863E-01 1.709470185E-01 -1.544886994E-01
 8.261908199E-01 1.043625313E-01 -1.693095450E-01
 8.822953408E-01 1.362536363E-01 -1.030069015E-01
 9.652432945E-01 2.271597575E-02 8.049481621E-02
 8.735372477E-01 8.436663152E-02 -1.091733600E-01
 9.286004400E-01 9.613385937E-02 -3.586144681E-02
 8.754294366E-01 3.337470660E-02 -1.125766983E-01
 9.432424377E-01 1.461004534E-01 -3.975863691E-02
 9.948751059E-01 1.128056963E-01 2.718386287E-02
 1.006361799E+00 1.916419343E-01 -2.001674916E-02
 1.081341683E+00 1.269287553E-01 5.621038901E-02
 1.117416110E+00 2.233821505E-01 4.964883196E-03
 1.211118437E+00 1.234101164E-01 4.255947659E-02
 1.181219568E+00 -3.597825032E-02 7.562269814E-02
 1.328200147E+00 9.256043641E-03 4.257938166E-02
 1.273135893E+00 3.340151425E-01 -6.644918189E-03
 1.302862460E+00 -1.799397870E-01 5.739507504E-02
 1.135816243E+00 -1.630846408E-01 1.051584842E-01
 9.676662938E-01 -1.294764325E-02 3.143988991E-01
 1.078521514E+00 -6.424785101E-02 1.527488639E-01
 1.001581598E+00 -1.486180859E-01 1.573109321E-01
 8.449753186E-01 -2.024103645E-02 2.417401043E-01
 1.046937116E+00 -2.635220548E-01 9.619959076E-02
 9.173688024E-01 -2.441938403E-01 1.091248209E-01
 1.086237686E+00 2.474030607E-02 9.981492527E-02
 8.896762658E-01 -1.373201098E-01 1.616060774E-01
 8.083161011E-01 -2.049239086E-01 8.955089933E-02
 7.322166059E-01 -3.605109271E-02 9.772908295E-02
 8.045212555E-01 -1.217682896E-01 1.268450057E-01
 7.216562558E-01 -1.546420119E-01 4.504667856E-02
 7.166564386E-01 -2.388261818E-01 1.614056812E-02
 6.236442854E-01 -2.000904743E-01 -6.103238904E-02
 5.336346592E-01 -6.513584907E-02 -2.189071137E-01
 5.592266281E-01 -6.281265767E-02 -1.699696714E-01
 6.178703749E-01 -3.113889491E-01 -4.847874219E-02
 5.050993262E-01 -2.560657004E-01 -1.349632533E-01
 6.459148197E-01 -1.159849735E-01 -3.023279041E-02
 6.421567362E-01 -4.939603439E-02 -2.855737966E-02
 5.744205175E-01 -1.488057326E-01 -1.174219711E-01
 4.705083608E-01 -1.758427143E-01 -2.236982751E-01
 4.437763646E-01 -7.247466178E-02 -3.871160889E-01
 1.030991299E+00 5.612130492E-02 1.074942578E-01
 6.973066314E-01 -8.779640091E-02 3.861701861E-02
 9.504507273E-01 -4.109147627E-01 5.955862984E-02
 4.764158486E-01 -4.331558190E-01 -7.771311654E-02
 3.783585877E-01 -3.093847767E-01 -1.626678790E-01
 8.539890213E-01 -7.639586756E-02 1.961374101E-01
 9.048007862E-01 -7.542662151E-02 2.249221644E-01
 9.324548064E-01 -1.274502433E-02 3.080931544E-01
 8.791118554E-01 -4.574657084E-02 2.435870200E-01
 8.702427699E-01 -2.133618251E-02 2.643239899E-01
 7.183849588E-01 1.057522994E-01 -2.915794800E-01
 5.957467658E-01 -1.059783057E-01 -1.006162699E-01
 6.161122341E-01 -5.520267420E-02 -7.088868646E-02
 9.723540335E-01 6.539710464E-02 4.780372528E-02
 7.840307051E-01 8.739735141E-02 -2.259339600E-01
 7.680698660E-01 5.254879250E-02 -2.589197382E-01
 8.036004333E-01 -6.716057250E-02 1.616937935E-01
 8.209702641E-01 -2.359037665E-02 2.105089102E-01
 7.534899309E-01 -8.662606169E-02 9.788072131E-02
 7.589704199E-01 -3.482704388E-02 1.311214544E-01
 7.529057590E-01 9.020835765E-02 -2.623650278E-01
 1.002925322E+00 -7.240672174E-02 2.187839280E-01
 6.629588995E-01 -7.931740401E-02 -8.310473270E-03
 9.506813677E-01 2.211926542E-02 4.754822431E-02
 9.834954661E-01 1.750861659E-02 1.773043388E-01
 9.069103973E-01 6.167921632E-02 -5.873940121E-02
 9.371850420E-01 5.562153909E-02 -6.832459799E-03
 -6.542146472E-02 2.233929482E-01 5.028637967E-02
 7.224385212E-01 -6.739723997E-02 7.308285175E-02
 7.060076466E-01 -3.808439509E-02 6.413784242E-02
 8.409113584E-01 7.373635809E-02 -1.599229017E-01
 8.170492530E-01 4.735125684E-02 -1.967257712E-01
 8.097212154E-01 6.571331656E-02 -2.019584836E-01
 9.364063748E-01 3.126926222E-02 8.997533383E-03
 1.199082098E+00 -2.903886392E-01 7.192776892E-02
 1.037918875E+00 -3.365204250E-02 1.710752174E-01
 1.043803405E+00 1.066632288E-02 1.284203038E-01
 1.253609030E-01 4.602748576E-01 -8.650952514E-02
 7.845823799E-01 -3.385972206E-01 3.145089716E-02
 9.724308862E-01 -6.520071340E-01 2.797584137E-02
 9.097052185E-01 -3.997445245E-02 2.655465826E-01
 9.532632654E-01 -5.494548547E-02 2.546576760E-01
 8.348164444E-01 5.298912865E-02 -1.728750406E-01
 1.455332603E+00 5.551988052E-01 -2.055953579E-02
 5.882610963E-02 9.896523916E-02 -1.132330241E-01
 5.648053186E-02 4.067904121E-02 -2.341235811E-01
 1.007816985E-01 9.211715651E-02 -2.430587153E-01
 9.809395746E-02 5.266702916E-02 -3.085652114E-01
 6.670471404E-01 -4.457552558E-02 8.656683236E-03
 6.769551965E-01 -6.098497422E-02 2.081815917E-02
 6.567343694E-01 -5.868458382E-02 -8.395360358E-03
 6.364435365E-01 -6.980274016E-02 -3.859464817E-02
 6.974349672E-01 -5.389971943E-02 4.846033382E-02
 6.544967166E-01 -4.530762499E-02 -9.676264375E-03
 7.715968453E-01 -5.138809280E-02 1.371460054E-01
 7.430397388E-01 -5.123945403E-02 1.071671773E-01
 8.323269888E-01 -5.173265416E-02 1.994630060E-01
 8.282476124E-01 4.102244898E-02 -1.845250283E-01
 7.564293738E-01 5.250531913E-02 -2.755951051E-01
 8.042477864E-01 4.731824987E-02 -2.157856224E-01
 -9.039000162E-03 -4.349250063E-02 3.545409912E-01
 -1.859095621E-02 -1.115062487E-02 7.254847639E-01
 2.798779363E-03 -1.392855521E-02 5.192775987E-01
 9.003822463E-01 3.672209461E-02 -6.565731709E-02
 6.289737580E-01 -5.003595011E-02 -4.834325863E-02
 7.185620880E-01 -3.457221553E-02 8.184690764E-02
 9.120716990E-01 2.067798710E-01 -7.951652692E-02
 9.230466772E-01 2.608566872E-02 -2.058045255E-02
 9.756230487E-01 3.667121682E-02 7.345478204E-02
 6.936672459E-01 -3.789006789E-02 4.937823002E-02
 8.334598895E-01 -1.882242854E-02 2.299350746E-01
 8.866248368E-01 3.266849948E-02 -9.260881102E-02
 8.809515557E-01 4.933296911E-02 -1.014288399E-01
 8.568947287E-01 5.631906272E-02 -1.376886824E-01
 2.560243600E+00 2.063081005E-01 6.063282435E-03
 7.607804298E-01 6.785452414E-02 -2.626597804E-01
 7.336567132E-01 7.355746692E-02 -2.936148448E-01
 7.106553410E-01 7.436183411E-02 -3.194386321E-01
 6.893687096E-01 8.155750221E-02 -3.393506854E-01
 6.622512033E-01 8.526689236E-02 -3.668062452E-01
 7.803143311E-01 6.235642967E-02 -2.373350580E-01
 1.579626475E+00 3.005381954E-01 -1.851088322E-03
 4.330758897E-02 -7.423024604E-02 -1.384308632E-02
 8.867844220E-02 -1.027588897E-01 -1.387188281E-01
 9.759559767E-02 -5.482607544E-02 -2.471423547E-01
 9.193190975E-01 3.983126908E-02 -2.779328886E-02
 7.077304878E-01 5.929216006E-02 -3.327820677E-01
 9.993006831E-01 -3.660078778E-02 2.562770171E-01
 8.374905548E-01 3.949981897E-02 -1.754315538E-01
 6.111440492E-01 -7.808598496E-02 -7.451423000E-02
 5.847602744E-03 5.349331438E-02 1.444662307E-01
 1.283504776E-01 8.630659965E-02 -2.956048150E-01
 1.539853351E-01 5.971916822E-02 -3.734449404E-01
 1.348696454E-01 6.767299569E-02 -3.339138716E-01
 1.613509052E-01 8.970108241E-02 -3.341621521E-01
 1.894441214E-01 8.252282052E-02 -3.763773145E-01
 2.106176171E-01 8.300505768E-02 -3.926730605E-01
 2.359302481E-01 9.097002677E-02 -4.089764162E-01
 1.975967543E-01 1.137553574E-01 -3.396022702E-01
 2.733702948E-01 1.198291517E-01 -3.955368238E-01
 2.499222099E-01 7.440871784E-02 -4.361648740E-01
 2.595777946E-01 9.348102588E-02 -4.151172954E-01
 2.947333639E-01 1.655000376E-01 -3.602636064E-01
 3.265827031E-01 1.286479887E-01 -4.096605295E-01
 3.027963711E-01 1.018940588E-01 -4.294755158E-01
 7.308166013E-01 5.677874375E-02 -3.053518747E-01
 1.069656739E-01 6.877358876E-02 -2.964252309E-01
 8.475608155E-02 6.539784383E-02 -2.457454349E-01
 6.388251248E-01 8.352959854E-02 -3.948051600E-01
 6.148786574E-01 9.412620184E-02 -4.044582077E-01
 5.905367475E-01 1.084003766E-01 -4.152234591E-01
 6.048179739E-01 7.218173146E-02 -4.412818795E-01
 9.504494475E-01 -9.774340488E-02 2.066022506E-01
 8.494143115E-01 2.677581125E-01 -1.355811846E-01
 8.617966027E-01 3.889557003E-01 -1.204834381E-01
 9.350226625E-01 5.246043622E-01 -9.098033577E-02
 1.574461160E-02 -4.469094584E-02 1.878536088E-01
 3.104351538E-02 -3.344442328E-02 -1.458232924E-02
 5.828305841E-01 5.065404104E-01 -1.884951413E-01
 3.763342296E-01 1.347891563E-01 -4.196858529E-01
 3.548185071E-01 1.083856770E-01 -4.444861087E-01
 4.097509755E-01 1.112637865E-01 -4.535810203E-01
 4.449192643E-01 1.192540435E-01 -4.522015309E-01
 3.828207449E-01 1.041759155E-01 -4.577574788E-01
 3.945499097E-01 8.757517343E-02 -4.805039597E-01
 3.566473171E-01 8.894405812E-02 -4.669083863E-01
 3.322961116E-01 9.742067042E-02 -4.489857015E-01
 2.946254374E-01 8.544226930E-02 -4.457380745E-01
 -4.484617454E-03 3.166324159E-02 2.227177768E-01
 1.157835310E-02 1.834986460E-02 -1.989479122E-02
 -1.067279948E-03 1.327942105E-02 4.060951412E-01
 5.953283168E-03 2.332459346E-02 1.263771866E-01
 5.544232652E-03 1.412320254E-02 7.573676374E-02
 -1.226008045E-02 1.105824775E-02 6.344654114E-01
 1.275723925E-02 3.843297314E-02 8.617020246E-02
 2.994338586E-02 5.035794164E-02 -6.543387024E-02
 2.675208180E-02 3.523425032E-02 -9.567898811E-02
 1.405907697E+00 1.687323863E-01 1.521308427E-02
 1.565058784E+00 -5.091101697E-03 2.196068938E-02
 1.747457375E+00 -1.854442820E-01 2.123106008E-02
 7.056364197E-02 -7.776033592E-02 -1.016891826E-01
 8.115337109E-02 -5.880333900E-02 -1.945264845E-01
 1.004113732E-01 -7.551297578E-02 -2.095085020E-01
 1.281586468E-01 -1.028507005E-01 -2.174898768E-01
 1.580155310E-01 -6.611329385E-02 -3.250948493E-01
 1.015158159E-01 -1.549771757E-01 -1.122465464E-01
 1.747804594E-01 -1.444822155E-01 -2.412909342E-01
 2.312595120E-01 -1.907405958E-01 -2.312935827E-01
 2.237271660E-01 -1.304967817E-01 -3.013236545E-01
 2.884040852E-01 -1.507147024E-01 -3.108293428E-01
 2.656918392E-01 -1.128980777E-01 -3.567086868E-01
 2.508816907E-01 -7.669549687E-02 -4.079280166E-01
 1.691945211E-01 -1.035330681E-01 -2.838008901E-01
 2.043707318E-01 -1.017201647E-01 -3.096120920E-01
 2.043371888E-01 -7.073088972E-02 -3.702956578E-01
 3.152804819E-01 -2.210030637E-01 -2.338428243E-01
 3.563452956E-01 -1.696080686E-01 -2.987288583E-01
 2.465930960E-01 -2.913766371E-01 -1.520634990E-01
 3.377299677E-01 -1.259064750E-01 -3.639812048E-01
 3.870851567E-01 -1.200947173E-01 -3.587742567E-01
 3.828467726E-01 -7.621316896E-02 -4.503826458E-01
 2.379804003E-01 -9.611698933E-02 -3.618963786E-01
 3.035781267E-01 -1.078501174E-01 -3.842390224E-01
 2.877229775E-01 -4.358916917E-01 -8.866656227E-02
 4.085265823E-01 -1.634641435E-01 -2.815814264E-01
 4.373033868E-01 -1.216920272E-01 -3.148303975E-01
 4.800837801E-01 -1.223206421E-01 -2.606024921E-01
 3.603526294E-01 -1.042723193E-01 -3.993814209E-01
 2.160820288E-01 -6.938500237E-02 -3.857407569E-01
 1.905477784E-01 -8.353454436E-02 -3.356610538E-01
 3.658873443E-01 -7.490005838E-02 -4.595237295E-01
 2.627232974E-01 -8.912221205E-02 -3.966724490E-01
 1.918449464E-01 -6.683141564E-02 -3.626307586E-01
 4.601943292E-01 -1.007871338E-01 -3.189856827E-01
 3.748104908E-01 -9.174909785E-02 -4.196264972E-01
 3.931922244E-01 -8.901026387E-02 -4.138229203E-01
 4.144014122E-01 -9.650240253E-02 -3.861758134E-01
 4.230092257E-01 -7.940605103E-02 -4.025937981E-01
 5.347797169E-02 -5.517662711E-02 -1.031886043E-01
 4.395030506E-01 -9.161635556E-02 -3.612054622E-01
 4.629563600E-01 -7.996093592E-02 -3.411942159E-01
 4.839599802E-01 -9.173447365E-02 -2.884506196E-01
 5.089405447E-01 -6.788048520E-02 -2.672085932E-01
 5.160314418E-01 -1.024561780E-01 -2.274349802E-01
 5.214625817E-01 -7.773686889E-02 -2.330668138E-01
 5.440210475E-01 -7.993153564E-02 -1.916335188E-01
 5.704122437E-01 -8.156064600E-02 -1.419367889E-01
 5.235889943E-01 -1.424495522E-01 -1.851520185E-01
 5.730988476E-01 -5.865777642E-01 -3.710513924E-02
 3.350803562E-01 -9.982987683E-02 -4.115884345E-01
 3.370980396E-01 -7.985112976E-02 -4.498481947E-01
 7.089726017E-02 -2.619804924E-01 -2.488429228E-02
 5.773358515E-01 7.487458574E-02 -4.608933480E-01
 5.698222452E-01 9.357832969E-02 -4.466070953E-01
 5.443090496E-01 1.047581861E-01 -4.470426448E-01
 5.158967591E-01 7.690728350E-02 -4.923954902E-01
 5.013144350E-01 1.224959120E-01 -4.388129665E-01
 4.732550677E-01 1.484592326E-01 -4.175995457E-01
 4.756573800E-01 1.041774072E-01 -4.641151218E-01
 4.320655499E-01 9.572225560E-02 -4.772017463E-01
 4.697522379E-01 8.041430398E-02 -4.964773752E-01
 5.214093751E-01 1.065919258E-01 -4.541878576E-01
 5.509842086E-01 8.676288037E-02 -4.651280643E-01
 2.831524655E-01 -9.216956333E-02 -4.032916963E-01
 2.986670373E-01 -8.150554500E-02 -4.333337370E-01
 8.143443292E-01 -4.067378554E-02 1.902412588E-01
 8.067520692E-01 -2.609164847E-02 1.952572337E-01
 1.001417147E+00 3.495741286E-02 1.441389247E-01
 1.280712242E-01 -6.183604826E-01 -1.165582461E-02
 3.360324191E-02 -5.292780896E-02 1.195781760E-02
 5.288557955E-01 8.804823692E-02 -4.733253088E-01
 5.053603572E-01 9.336583185E-02 -4.758300313E-01
 8.538136615E-01 -3.785819998E-02 2.314551190E-01
 8.869770044E-01 -2.628595171E-02 2.711266138E-01
 9.193092781E-01 -2.178895764E-02 2.926951028E-01
 9.374617451E-01 -2.929216307E-02 2.928258064E-01
 9.500427827E-01 -1.204531153E-02 3.146083900E-01
 9.660056769E-01 -2.765141355E-02 2.771274853E-01
 9.885375023E-01 -1.703330156E-02 3.536780891E-01
 6.841345648E-01 6.354029476E-02 -3.606610340E-01
 7.754112087E-01 -2.973834593E-02 1.535506258E-01
 3.133974596E+00 6.339745962E-01 3.314167714E-03
 7.445696237E-01 -3.245619023E-02 1.150037396E-01
 5.513526914E-01 7.327913439E-02 -4.844578998E-01
 5.205786438E-01 -6.334807440E-02 -2.460151743E-01
 4.935034877E-01 -7.130499156E-02 -2.936989264E-01