TITLE     = "Visualization of the solution"
VARIABLES = "x"
"y"
"Pressure_Coefficient"
ZONE T="Zone"
 STRANDID=0, SOLUTIONTIME=0
 Nodes=711, Elements=1207, ZONETYPE=FEQuadrilateral
 DATAPACKING=POINT
 DT=(DOUBLE DOUBLE DOUBLE )
 9.998099804E-01 5.119309644E-04 2.220880907E-01
 9.879430532E-01 2.844641451E-03 2.811589360E-01
 9.757646322E-01 5.277648102E-03 1.153185861E-01
 9.596114159E-01 8.368978277E-03 9.874557092E-02
 9.450625777E-01 1.127029955E-02 3.366005790E-02
 9.300872087E-01 1.411995664E-02 2.182481839E-03
 9.185841084E-01 1.638465747E-02 -3.485516746E-02
 9.063802958E-01 1.869862899E-02 -6.263556832E-02
 8.946961164E-01 2.091958933E-02 -8.697096206E-02
 8.826181293E-01 2.312272787E-02 -1.117155296E-01
 8.705052137E-01 2.535464428E-02 -1.438403516E-01
 8.582793474E-01 2.751222625E-02 -1.617725193E-01
 8.455121517E-01 2.966309525E-02 -1.763653275E-01
 8.343952298E-01 3.152164817E-02 -1.935102574E-01
 8.227276206E-01 3.343202919E-02 -2.055454712E-01
 8.098034263E-01 3.548907116E-02 -2.246617148E-01
 7.970175743E-01 3.750656918E-02 -2.374985704E-01
 7.844624519E-01 3.940104321E-02 -2.540751536E-01
 7.723873854E-01 4.124840349E-02 -2.708171704E-01
 7.605198026E-01 4.296653718E-02 -2.858391789E-01
 7.476554513E-01 4.484207183E-02 -3.053734000E-01
 7.337267399E-01 4.675666243E-02 -3.160034008E-01
 7.231742740E-01 4.818773270E-02 -3.296504216E-01
 7.123736143E-01 4.962759838E-02 -3.424292249E-01
 7.010408044E-01 5.111043528E-02 -3.644430005E-01
 6.877378821E-01 5.280610919E-02 -3.828042760E-01
 6.746835113E-01 5.436376482E-02 -3.954816131E-01
 6.647584438E-01 5.551007390E-02 -4.099208703E-01
 6.535440087E-01 5.678341538E-02 -4.221203265E-01
 6.417831779E-01 5.803282186E-02 -4.346168810E-01
 6.301761270E-01 5.923355371E-02 -4.487928948E-01
 6.189209819E-01 6.033740565E-02 -4.622230625E-01
 6.082484126E-01 6.132604182E-02 -4.711412009E-01
 5.956299901E-01 6.241409108E-02 -4.817640527E-01
 5.842400789E-01 6.335111707E-02 -4.942581517E-01
 5.708643198E-01 6.435495615E-02 -5.019150043E-01
 5.584637523E-01 6.519456208E-02 -5.102434525E-01
 5.463821292E-01 6.595305353E-02 -5.213102727E-01
 5.356340408E-01 6.655617803E-02 -5.251751636E-01
 5.241243839E-01 6.712004542E-02 -5.263606339E-01
 5.115654469E-01 6.765968353E-02 -5.292545516E-01
 5.003912449E-01 6.807638705E-02 -5.315385707E-01
 4.872201085E-01 6.849300861E-02 -5.331450390E-01
 4.737093747E-01 6.882237643E-02 -5.351461540E-01
 4.596149027E-01 6.907982379E-02 -5.337202779E-01
 4.460999072E-01 6.921353191E-02 -5.324435390E-01
 4.333918989E-01 6.928393990E-02 -5.339757735E-01
 4.205851555E-01 6.926867366E-02 -5.304282281E-01
 4.080454707E-01 6.916864961E-02 -5.278724492E-01
 3.957858682E-01 6.901079416E-02 -5.231109178E-01
 3.833745420E-01 6.877057254E-02 -5.165417551E-01
 3.718904853E-01 6.849383563E-02 -5.136487342E-01
 3.587328494E-01 6.811541319E-02 -5.134026225E-01
 3.461791575E-01 6.767771393E-02 -5.066384836E-01
 3.329306245E-01 6.711444259E-02 -5.003453703E-01
 3.217572570E-01 6.659995019E-02 -4.977465186E-01
 3.090100884E-01 6.594049186E-02 -4.948062695E-01
 2.957049608E-01 6.517298520E-02 -4.873883419E-01
 2.815048695E-01 6.423839927E-02 -4.805853299E-01
 2.689697146E-01 6.334675848E-02 -4.737414727E-01
 2.568376660E-01 6.240008771E-02 -4.672161528E-01
 2.443355322E-01 6.136541441E-02 -4.626992901E-01
 2.315918952E-01 6.021475792E-02 -4.554659827E-01
 2.192596495E-01 5.901314318E-02 -4.487182196E-01
 2.073893547E-01 5.777746812E-02 -4.394798535E-01
 1.958291680E-01 5.649299547E-02 -4.315759704E-01
 1.834603697E-01 5.503599718E-02 -4.278514286E-01
 1.716094762E-01 5.354086682E-02 -4.169515915E-01
 1.603370160E-01 5.201199278E-02 -4.052115430E-01
 1.484455913E-01 5.032567680E-02 -3.985239839E-01
 1.379125118E-01 4.872005805E-02 -3.873200485E-01
 1.263044327E-01 4.685874656E-02 -3.741507789E-01
 1.149181798E-01 4.489643872E-02 -3.632448217E-01
 1.045228168E-01 4.299254715E-02 -3.542059765E-01
 9.481329471E-02 4.109936953E-02 -3.415883971E-01
 8.377955109E-02 3.880074993E-02 -3.123522066E-01
 7.203140855E-02 3.615351766E-02 -2.935502408E-01
 6.222404540E-02 3.375247493E-02 -2.672462280E-01
 5.234363303E-02 3.113636747E-02 -2.473129719E-01
 4.369478300E-02 2.862080559E-02 -2.180184248E-01
 3.632568941E-02 2.628617361E-02 -1.858656528E-01
 2.982909046E-02 2.403043769E-02 -1.588976055E-01
 2.432036586E-02 2.193753235E-02 -1.228655456E-01
 2.034514025E-02 2.029244974E-02 -9.114740775E-02
 1.656222902E-02 1.858891733E-02 -4.401254066E-02
 1.365060918E-02 1.716199704E-02 4.985937413E-02
 1.096834615E-02 1.572908275E-02 1.421873054E-01
 9.003346786E-03 1.458591968E-02 1.565388642E-01
 7.276175544E-03 1.350596454E-02 1.000230903E-01
 5.702604074E-03 1.242213510E-02 1.017052065E-01
 3.603723133E-03 1.080723200E-02 3.580353099E-01
 1.775679411E-03 9.136043489E-03 6.745316111E-01
 2.144981845E-04 7.358526811E-03 7.601582145E-01
 -1.280036988E-03 4.905416630E-03 1.557027476E+00
 -1.891621156E-03 3.053829074E-03 1.134556803E+00
 -2.067908645E-03 1.599826384E-03 1.017006434E+00
 -1.948917052E-03 3.236715202E-05 1.077385556E+00
 -1.523485174E-03 -1.537301578E-03 9.563250982E-01
 -6.034082035E-04 -3.417725209E-03 7.457816996E-01
 7.908083498E-04 -5.330587737E-03 5.877223287E-01
 2.743140096E-03 -7.326807361E-03 5.322405814E-01
 4.497273359E-03 -8.788080886E-03 2.774658353E-01
 6.509126630E-03 -1.023321506E-02 2.472633772E-01
 8.093536831E-03 -1.124599669E-02 1.342669523E-01
 1.012074947E-02 -1.243118197E-02 1.044521348E-01
 1.244080439E-02 -1.365641132E-02 7.559228633E-02
 1.566486619E-02 -1.519488543E-02 2.998399883E-02
 1.855284162E-02 -1.644301042E-02 -1.464516505E-03
 2.235201560E-02 -1.794036850E-02 -4.965681141E-02
 2.767912857E-02 -1.983456500E-02 -6.278281682E-02
 3.343540803E-02 -2.166625671E-02 -1.056448159E-01
 4.059496894E-02 -2.371191606E-02 -1.246022648E-01
 4.815918580E-02 -2.567057684E-02 -1.429351871E-01
 5.716897547E-02 -2.778036892E-02 -1.600225321E-01
 6.587790698E-02 -2.965306677E-02 -1.730548255E-01
 7.596838474E-02 -3.164361045E-02 -1.870972855E-01
 8.596920222E-02 -3.347656503E-02 -1.964779137E-01
 9.610996395E-02 -3.521084413E-02 -2.072561605E-01
 1.070896462E-01 -3.696705028E-02 -2.159527600E-01
 1.181972474E-01 -3.863113746E-02 -2.255489830E-01
 1.298500746E-01 -4.027260467E-02 -2.356486680E-01
 1.404723972E-01 -4.168093204E-02 -2.457003138E-01
 1.514877826E-01 -4.307633638E-02 -2.557255874E-01
 1.636024863E-01 -4.450802505E-02 -2.655646475E-01
 1.753049791E-01 -4.581788927E-02 -2.747168641E-01
 1.871645898E-01 -4.707010835E-02 -2.859636934E-01
 1.977792531E-01 -4.811677709E-02 -2.963993837E-01
 2.089902908E-01 -4.917043820E-02 -3.051705732E-01
 2.212939858E-01 -5.024033412E-02 -3.158884207E-01
 2.341264188E-01 -5.127048865E-02 -3.269179106E-01
 2.466063499E-01 -5.218577012E-02 -3.375874733E-01
 2.591483891E-01 -5.301698297E-02 -3.481063331E-01
 2.702687979E-01 -5.367483199E-02 -3.576292747E-01
 2.830872238E-01 -5.435648188E-02 -3.653836157E-01
 2.957357466E-01 -5.492962152E-02 -3.775514803E-01
 3.086566031E-01 -5.541307479E-02 -3.868669274E-01
 3.205537796E-01 -5.575233325E-02 -3.958041269E-01
 3.331335783E-01 -5.599740893E-02 -3.990156490E-01
 3.441532850E-01 -5.613408238E-02 -4.050621323E-01
 3.556032777E-01 -5.616311356E-02 -4.065029716E-01
 3.665307462E-01 -5.611291900E-02 -4.075024249E-01
 3.773443401E-01 -5.597177893E-02 -4.107020081E-01
 3.887354136E-01 -5.569712818E-02 -4.059988778E-01
 4.019270241E-01 -5.525113642E-02 -3.950632305E-01
 4.144364595E-01 -5.471624061E-02 -3.905862111E-01
 4.273678064E-01 -5.400580168E-02 -3.781540582E-01
 4.400838912E-01 -5.318162590E-02 -3.634523504E-01
 4.520812333E-01 -5.227207392E-02 -3.457943258E-01
 4.641228318E-01 -5.127202719E-02 -3.254258914E-01
 4.765429199E-01 -5.010410026E-02 -3.023026534E-01
 4.880342484E-01 -4.896011204E-02 -2.778206643E-01
 5.007905364E-01 -4.759700596E-02 -2.548018126E-01
 5.147570968E-01 -4.599583521E-02 -2.251043039E-01
 5.285193324E-01 -4.436009750E-02 -1.999152976E-01
 5.421254635E-01 -4.263160005E-02 -1.709242182E-01
 5.550338626E-01 -4.096204415E-02 -1.422644158E-01
 5.685796738E-01 -3.917876631E-02 -1.209737220E-01
 5.816128850E-01 -3.740664572E-02 -9.801803590E-02
 5.935660601E-01 -3.574957699E-02 -7.129312643E-02
 6.061449051E-01 -3.401693329E-02 -4.945732234E-02
 6.206138730E-01 -3.200270236E-02 -2.898006619E-02
 6.353004575E-01 -2.996626310E-02 -5.877237557E-03
 6.501362920E-01 -2.789346874E-02 1.391474500E-02
 6.629197598E-01 -2.607229352E-02 3.756563808E-02
 6.765565276E-01 -2.421426773E-02 5.490088341E-02
 6.887674332E-01 -2.250302583E-02 6.918039456E-02
 7.011302114E-01 -2.083140612E-02 8.842314599E-02
 7.154245973E-01 -1.889003627E-02 1.042160155E-01
 7.286397815E-01 -1.715681329E-02 1.231600788E-01
 7.406200171E-01 -1.559670735E-02 1.349167377E-01
 7.534586787E-01 -1.392446179E-02 1.542489025E-01
 7.658426762E-01 -1.239692699E-02 1.693340664E-01
 7.790150642E-01 -1.079806592E-02 1.796419349E-01
 7.903459668E-01 -9.421039373E-03 1.991336703E-01
 8.032928705E-01 -7.948789746E-03 2.136730172E-01
 8.142229319E-01 -6.738173775E-03 2.257201875E-01
 8.258326054E-01 -5.526790861E-03 2.403371345E-01
 8.385801911E-01 -4.256410059E-03 2.525160640E-01
 8.506307006E-01 -3.122386988E-03 2.684431423E-01
 8.628025651E-01 -2.099940320E-03 2.804467881E-01
 8.747805357E-01 -1.207583584E-03 2.879657795E-01
 8.865988851E-01 -4.202058190E-04 2.976588007E-01
 8.996752501E-01 3.069062368E-04 3.049763584E-01
 9.097673893E-01 7.569317240E-04 3.135151407E-01
 9.199759960E-01 1.110666199E-03 3.135039409E-01
 9.290897250E-01 1.342250616E-03 3.161035540E-01
 9.376146793E-01 1.484750304E-03 3.164684092E-01
 9.492608309E-01 1.571138855E-03 3.169660331E-01
 9.619776011E-01 1.528955647E-03 3.128306163E-01
 9.763072729E-01 1.308722887E-03 3.165221879E-01
 9.886218309E-01 9.643106023E-04 3.595168824E-01
 -5.000000000E-01 -1.000000000E+00 3.200343173E-02
 3.500000000E+00 -1.000000000E+00 1.628978079E-02
 3.500000000E+00 1.000000000E+00 -3.959574713E-04
 -5.000000000E-01 1.000000000E+00 -5.482956488E-03
 -5.000000000E-01 5.000000000E-01 3.151702863E-02
 -5.000000000E-01 2.752797990E-12 9.171678835E-02
 -5.000000000E-01 -5.000000000E-01 6.042541091E-02
 -9.421907698E-13 -1.000000000E+00 1.865880098E-02
 5.000000000E-01 -1.000000000E+00 -7.063874370E-04
 1.000000000E+00 -1.000000000E+00 1.863242156E-02
 1.500000000E+00 -1.000000000E+00 3.379819102E-02
 2.000000000E+00 -1.000000000E+00 2.778116072E-02
 2.500000000E+00 -1.000000000E+00 2.075382023E-02
 3.000000000E+00 -1.000000000E+00 1.691161084E-02
 3.500000000E+00 -5.000000000E-01 1.875326928E-02
 3.500000000E+00 -2.752797990E-12 1.740144898E-02
 3.500000000E+00 5.000000000E-01 6.803509805E-03
 3.000000000E+00 1.000000000E+00 -3.013091470E-03
 2.500000000E+00 1.000000000E+00 -9.297102366E-03
 2.000000000E+00 1.000000000E+00 -2.383025492E-02
 1.500000000E+00 1.000000000E+00 -6.248595389E-02
 1.000000000E+00 1.000000000E+00 -1.151476274E-01
 5.000000000E-01 1.000000000E+00 -1.029035580E-01
 1.733724275E-12 1.000000000E+00 -3.235188267E-02
 6.826607523E-01 -3.309619623E-02 6.012147412E-02
 7.891310294E-01 -2.117751572E-02 1.886326298E-01
 9.059208034E-01 -7.079053731E-03 2.978220994E-01
 2.746436613E-01 -6.576867189E-02 -3.425453921E-01
 7.115581299E-01 6.271820579E-02 -3.398594526E-01
 2.790872047E-01 7.589934308E-02 -4.631395846E-01
 3.666976202E-01 8.287789331E-02 -4.947433976E-01
 9.151468253E-01 3.116320136E-02 -4.158032422E-02
 5.775437127E-01 -5.253754003E-02 -1.005341693E-01
 8.192263723E-01 4.847022324E-02 -2.053282644E-01
 5.895142894E-01 7.459960226E-02 -4.736219082E-01
 4.099072216E-01 -6.459309946E-02 -3.736473088E-01
 4.929787174E-01 8.044109270E-02 -5.144208462E-01
 1.707039284E+00 -5.238400119E-01 3.108369669E-02
 1.776970044E+00 6.110695573E-01 -1.978187846E-02
 3.031169445E+00 2.156868791E-01 9.532917104E-03
 6.773955193E-01 -6.090281848E-01 1.943001171E-03
 4.823743485E-01 -6.117914056E-02 -2.754099815E-01
 7.458009950E-01 5.270493266E-01 -1.638589067E-01
 2.789507147E-01 6.452414718E-01 -1.258322042E-01
 1.207058349E-01 6.018616997E-02 -3.366194853E-01
 1.776100197E-01 6.868300037E-02 -3.961939819E-01
 2.734862953E+00 -5.326765914E-01 1.627127791E-02
 1.133217486E+00 6.233408420E-01 -6.817055164E-02
 1.005508884E+00 3.363653993E-01 -6.298896557E-02
 1.273890852E+00 -6.803647672E-01 4.228299838E-02
 1.504735667E+00 -2.681902572E-01 3.486951155E-02
 2.117254880E-01 -5.279221641E-01 -2.358066840E-02
 7.856284670E-02 -4.181656879E-02 -1.659112700E-01
 1.335480098E-01 -5.310024261E-02 -2.236990674E-01
 1.910624886E-01 -6.051357734E-02 -2.724143115E-01
 2.227397513E+00 -5.760119902E-01 1.885992304E-02
 2.002221900E+00 -2.152857459E-01 1.542428708E-02
 2.412864488E+00 -1.849964428E-01 1.204635283E-02
 2.184670762E+00 1.583445285E-01 5.432824661E-03
 1.854019092E+00 8.776058476E-02 8.612381653E-03
 -2.710233980E-01 -2.546213639E-01 1.071025623E-01
 -1.615127864E-01 -5.642569281E-01 3.386869004E-02
 -2.616825261E-01 2.055779508E-01 8.730344739E-02
 -6.710773296E-02 6.048208176E-01 -3.442197870E-02
 1.486619833E-02 3.513037936E-01 -6.330887640E-02
 4.322742508E-02 3.995300324E-02 -1.608732955E-01
 2.215576500E+00 5.746444559E-01 -6.016814686E-03
 2.742091314E+00 5.994272019E-01 1.693581659E-03
 -2.433582578E-01 -4.844674746E-03 1.465790657E-01
 -1.408584912E-01 -1.294793788E-01 1.649931078E-01
 3.208141827E-02 -3.019536762E-02 -3.963646985E-02
 4.135106373E-02 -3.609559367E-01 1.578458968E-02
 2.783929316E-01 -3.164441210E-01 -9.639977950E-02
 3.509985810E-01 -6.466521506E-02 -3.902760462E-01
 3.131613555E-01 -6.728200181E-02 -3.701926310E-01
 -1.314412274E-01 1.089831106E-01 1.612825676E-01
 -1.239621598E-01 -3.988130640E-03 2.391881244E-01
 -5.685012407E-02 -6.670477980E-02 2.722322584E-01
 -4.992802737E-02 -1.501781131E-01 1.215473478E-01
 2.343430963E-03 -9.350558869E-02 1.363680267E-01
 2.809437370E-02 -1.985469450E-01 2.328359006E-02
 1.640310951E-02 -1.904802865E-02 7.947994338E-02
 6.625187236E-02 -1.067046366E-01 -5.040231726E-02
 1.148340071E-01 -1.572502441E-01 -8.903079828E-02
 -1.536087031E-02 -5.249862842E-02 3.135321180E-01
 -5.367385123E-02 -3.099950903E-03 4.262138823E-01
 1.238097267E-01 -9.703981004E-02 -1.532626645E-01
 1.778350719E-01 -1.164232842E-01 -1.951701008E-01
 2.395149495E-01 -6.298977526E-02 -3.176881259E-01
 1.808550260E-01 -1.755099882E-01 -1.455239977E-01
 2.323821480E-01 -1.465555037E-01 -2.167038753E-01
 1.288742613E-01 -2.448621995E-01 -6.804667131E-02
 1.578414938E-01 -7.820832801E-02 -2.183289934E-01
 1.686025062E-01 -5.928716509E-02 -2.511011234E-01
 2.221647229E-01 -1.037434452E-01 -2.559360697E-01
 2.130502086E-01 -6.207624611E-02 -2.937497033E-01
 2.628654949E-01 -1.078139259E-01 -2.778329260E-01
 2.904955292E-01 -1.537311965E-01 -2.391026244E-01
 3.057244898E-01 -1.060124359E-01 -3.062348276E-01
 3.479388781E-01 -1.401495869E-01 -2.675634353E-01
 3.226601711E-01 -2.160964409E-01 -1.835764037E-01
 3.961936745E-01 -1.924017227E-01 -1.964096880E-01
 4.115314018E-01 -1.346363373E-01 -2.634684611E-01
 4.654649825E-01 -1.790810906E-01 -1.759249496E-01
 4.500821925E-01 -2.580154229E-01 -1.300047291E-01
 5.339606989E-01 -2.307827570E-01 -9.675304647E-02
 6.297077726E-01 -4.360967745E-02 -1.743390619E-02
 5.225177748E-01 -6.151885486E-02 -1.989893977E-01
 5.519209861E-01 -5.661612112E-02 -1.458135406E-01
 4.468702573E-01 -6.311685296E-02 -3.324031725E-01
 5.262201713E-01 -3.327426796E-01 -6.382389145E-02
 6.279878281E-01 -2.797256761E-01 -1.852611033E-02
 6.578407366E-01 -1.793647298E-01 5.195613142E-04
 7.369842198E-01 -2.894702238E-02 1.260358844E-01
 7.375710980E-01 -2.271267909E-01 5.360246130E-02
 8.465757203E-01 -1.526917786E-02 2.505537159E-01
 7.601891011E-01 -2.518807135E-02 1.543072964E-01
 7.345434166E-01 -1.264573182E-01 8.133415319E-02
 8.121433511E-01 -1.809034496E-01 1.111826533E-01
 9.689758413E-01 -9.420879043E-03 3.095479812E-01
 9.429959628E-01 -8.551088848E-03 3.030278870E-01
 8.311204396E-01 -2.757997627E-01 8.351659750E-02
 9.152141865E-01 -2.074564992E-01 1.275027524E-01
 9.262752487E-01 -3.542529149E-01 7.798139653E-02
 1.045163599E+00 -2.441643790E-01 1.013568573E-01
 9.223451740E-01 -1.160460807E-01 1.879416432E-01
 8.241757984E-01 -9.377330147E-02 1.620238186E-01
 5.723507836E-01 -1.358121449E-01 -9.200093863E-02
 6.695286444E-01 -1.142900549E-01 2.363011513E-02
 5.035712728E-01 -1.175089518E-01 -1.882468335E-01
 9.870112402E-01 -1.465491491E-01 1.587868011E-01
 1.137360525E+00 -1.487878752E-01 1.006322816E-01
 1.077925913E+00 -6.863093453E-02 1.309296337E-01
 1.182041542E+00 -2.744406828E-01 7.376824260E-02
 1.311929678E+00 -1.748240580E-01 5.669095194E-02
 9.653094514E-01 -8.483167372E-02 2.095691043E-01
 1.192878057E+00 -1.383081904E-02 6.640754727E-02
 1.357271450E+00 1.349641504E-02 3.390748000E-02
 1.230740002E+00 1.374294047E-01 3.016943061E-02
 1.085218119E+00 9.593346868E-03 1.052120237E-01
 9.231541948E-01 -6.594586783E-02 2.297025166E-01
 1.404672672E+00 2.200942761E-01 7.102256037E-03
 3.712206978E-01 -1.033366270E-01 -3.208590736E-01
 3.824577443E-01 -6.705710959E-02 -3.839072608E-01
 1.083128119E+00 1.863737468E-01 7.043326081E-03
 9.705771937E-01 1.778427775E-02 9.930449403E-02
 1.212823833E+00 3.294342077E-01 -1.969783236E-02
 9.276775354E-01 2.223941716E-01 -8.595886028E-02
 8.672042566E-01 4.019619711E-02 -1.372541583E-01
 8.912750503E-01 3.563910167E-02 -9.410397582E-02
 9.860983599E-01 1.316806582E-01 -5.867068019E-04
 8.375105237E-01 3.265819721E-01 -1.393343126E-01
 7.734448637E-01 2.117194636E-01 -2.032537693E-01
 6.457945434E-01 6.880458185E-02 -4.200511672E-01
 6.266046631E-01 6.880832368E-02 -4.416249755E-01
 6.707137103E-01 6.353227989E-02 -3.921596410E-01
 7.700677694E-01 5.796730970E-02 -2.651074292E-01
 7.395719677E-01 5.861964775E-02 -3.045747287E-01
 7.944544811E-01 5.276421263E-02 -2.354336634E-01
 7.064804097E-01 3.179463811E-01 -2.314627091E-01
 6.484526094E-01 2.122256151E-01 -3.085476411E-01
 5.415635320E-01 7.643175751E-02 -5.067999039E-01
 5.655754481E-01 7.481070937E-02 -4.945772228E-01
 5.783651414E-01 2.802535532E-01 -2.899487396E-01
 4.270511933E-01 8.312296419E-02 -5.113492531E-01
 5.316831016E-01 2.065771844E-01 -3.627968415E-01
 4.709062269E-01 3.045934896E-01 -2.997047614E-01
 4.187047215E-01 2.043738718E-01 -3.698315683E-01
 3.500906932E-01 2.735903568E-01 -2.983841493E-01
 3.100327619E-01 2.167514698E-01 -3.246246383E-01
 2.224527250E-01 7.114392224E-02 -4.348185004E-01
 2.002222213E-01 6.746372648E-02 -4.172482032E-01
 3.256600772E-01 7.795510381E-02 -4.844662478E-01
 3.008127437E-01 7.963607984E-02 -4.697980170E-01
 8.303062328E-01 1.372210543E-01 -1.688402791E-01
 7.100975442E-01 1.463579110E-01 -2.928186713E-01
 5.906314477E-01 1.526443032E-01 -3.827686405E-01
 4.753022928E-01 1.602456524E-01 -4.187029145E-01
 2.390272899E-01 2.888212351E-01 -2.361065209E-01
 1.886465257E-01 1.947340929E-01 -2.598297530E-01
 3.525976132E-01 1.502158757E-01 -4.110939759E-01
 2.426207893E-01 1.531313329E-01 -3.452671849E-01
 5.213489564E-01 4.340835382E-01 -2.167214154E-01
 9.559298347E-01 -4.597351870E-02 2.581189362E-01
 9.942739054E-01 -4.785139037E-02 2.200248240E-01
 3.399324091E-01 -9.590871757E-02 -3.314308465E-01
 1.446587168E+00 5.205702850E-01 -2.510553903E-02
 9.276697981E-01 -3.491572467E-02 2.670924591E-01
 8.956261768E-01 -4.044857530E-02 2.512291306E-01
 8.686563077E-01 -1.335250721E-02 2.702992735E-01
 9.238905525E-01 -8.117861226E-03 3.029576975E-01
 2.387352240E-01 -2.265730736E-01 -1.423011016E-01
 9.807458125E-01 -8.012423954E-03 2.781464947E-01
 9.759999842E-01 -2.396317335E-02 2.676566254E-01
 3.109368908E+00 -2.612617410E-01 1.581074556E-02
 3.997222374E-01 -3.650394489E-01 -8.467790630E-02
 4.806714689E-01 -4.955622046E-01 -4.733297647E-02
 8.938731007E-01 -1.491289425E-02 2.838615951E-01
 3.777691572E-02 -7.302909937E-02 3.188936329E-02
 6.104200722E-02 -3.758324140E-02 -1.356979343E-01
 1.550930722E-02 -5.077796520E-02 1.303759767E-01
 1.014194931E+00 -9.226441716E-02 1.773462451E-01
 1.046657208E+00 -2.782031431E-02 1.577277739E-01
 9.541892232E-01 -7.230984172E-03 3.004812653E-01
 -2.597737151E-02 -2.546398814E-02 3.971538794E-01
 4.009182974E-03 -1.131370517E-02 4.231804974E-01
 8.779868027E-01 -7.906416775E-02 2.128226478E-01
 8.610868399E-01 -4.692789282E-02 2.295633272E-01
 8.156286261E-01 -5.216219421E-02 1.936864109E-01
 8.206279707E-01 -1.566881614E-02 2.254495291E-01
 1.091657216E+00 -4.487122242E-01 6.350833378E-02
 3.251907115E-01 -6.509664128E-02 -3.786637360E-01
 3.205428574E-01 -8.010728748E-02 -3.516965184E-01
 3.018535493E-01 -7.751796469E-02 -3.457069837E-01
 7.751208322E-01 -2.383092582E-02 1.706107557E-01
 7.677763340E-01 -3.789156942E-02 1.562629904E-01
 7.511456997E-01 -3.728090776E-02 1.381366991E-01
 7.305957449E-01 -4.669025517E-02 1.112584670E-01
 7.616185933E-01 -5.898070307E-02 1.362739059E-01
 7.125845183E-01 -3.359696652E-02 9.735381959E-02
 7.064185103E-01 -5.201792789E-02 8.019801941E-02
 7.273666777E-01 -7.335660030E-02 9.544007732E-02
 7.875364961E-01 -4.148385731E-02 1.714622991E-01
 8.034306542E-01 -2.781719221E-02 1.997554380E-01
 7.866637512E-01 -7.590533457E-02 1.528569899E-01
 6.712424501E-01 -3.618396532E-02 4.100666621E-02
 6.846042729E-01 -4.717403124E-02 5.574882888E-02
 6.610172235E-01 -5.992422535E-02 2.481776765E-02
 8.320399451E-01 -1.730710147E-02 2.333117276E-01
 8.394607469E-01 -3.502094289E-02 2.251497522E-01
 8.584665477E-01 -2.547073971E-02 2.511979371E-01
 6.457827747E-01 -4.326885016E-02 5.483365316E-03
 2.896829404E-01 -6.644696818E-02 -3.542080519E-01
 2.825400124E-01 -8.355649120E-02 -3.232749425E-01
 2.623615472E-01 -7.831244931E-02 -3.170177085E-01
 6.581641582E-01 -3.846746826E-02 2.424677876E-02
 3.018180390E-01 -6.431792620E-02 -3.674274448E-01
 -4.264846699E-03 -3.292471928E-02 3.726024479E-01
 6.372040817E-01 -5.951375058E-02 -7.101415799E-03
 6.182103509E-01 -5.799482692E-02 -3.396676519E-02
 6.310326180E-01 -8.605142544E-02 -2.095821529E-02
 6.025316543E-01 -4.790382415E-02 -5.913681802E-02
 5.940098000E-01 -6.730579735E-02 -7.166725275E-02
 5.695823386E-01 -6.682167594E-02 -1.121899420E-01
 5.452017806E-01 -7.727500272E-02 -1.504784152E-01
 5.190576568E-01 -8.867775895E-02 -1.818815903E-01
 5.810451695E-01 -9.650274172E-02 -8.879072421E-02
 5.058540254E-01 -7.237375871E-02 -2.199771991E-01
 6.154417112E-01 -4.310559283E-02 -3.928273708E-02
 4.960489850E-01 -6.005716733E-02 -2.515780218E-01
 4.054327956E-01 -1.010293508E-01 -3.110703798E-01
 4.378083477E-01 -1.000724430E-01 -2.836184510E-01
 4.759628097E-01 -9.567400071E-02 -2.454094582E-01
 3.616532946E-01 -6.610904864E-02 -3.886106578E-01
 3.557625442E-01 -7.900050363E-02 -3.628347659E-01
 7.484795433E-01 -2.418743413E-02 1.413953986E-01
 3.385277022E-01 -6.955484860E-02 -3.767430832E-01
 9.130739604E-02 -7.703729882E-02 -1.224965572E-01
 1.103363160E-01 -4.882595822E-02 -2.048451016E-01
 9.141798460E-01 -6.613652982E-03 3.027363814E-01
 9.135438569E-01 -1.856190566E-02 2.881635686E-01
 4.224450184E-01 -6.580984824E-02 -3.607619654E-01
 7.248457723E-01 -2.905621873E-02 1.129684987E-01
 5.645321148E-01 -5.122322951E-02 -1.253997114E-01
 1.014776504E+00 -2.327481387E-02 2.268784228E-01
 3.722497414E-01 -7.800924924E-02 -3.638664922E-01
 9.927864212E-01 -1.465573834E-02 3.357084320E-01
 1.024525533E+00 -1.243472476E-03 1.717984980E-01
 1.048093777E+00 6.239517927E-02 1.020212630E-01
 9.513439093E-01 -2.112870661E-02 2.871016778E-01
 1.548006026E-01 -5.773379971E-02 -2.386301469E-01
 1.785674768E-01 -7.751595260E-02 -2.419317326E-01
 2.004922338E-01 -7.926090121E-02 -2.611054897E-01
 8.099011579E-01 -1.824119359E-02 2.142709038E-01
 2.515918811E-01 -6.606990803E-02 -3.246236438E-01
 2.636028553E-01 -6.336856884E-02 -3.376016250E-01
 6.622610589E-02 -6.863970675E-02 -8.721524715E-02
 4.609653313E-02 -5.105824092E-02 -5.296263842E-02
 2.152101747E-02 -3.478838233E-02 5.793613838E-02
 2.330931965E-02 -2.409500014E-02 1.870780164E-02
 2.022748950E-01 -5.982758799E-02 -2.853937159E-01
 5.898528224E-01 -4.818067685E-02 -7.922312333E-02
 5.380570675E-01 -5.648033525E-02 -1.718048080E-01
 8.574263683E-01 -1.186295042E-02 2.654063112E-01
 9.234045718E-02 -5.600990323E-02 -1.578398007E-01
 1.393565136E-01 -6.759565453E-02 -2.106883693E-01
 1.185765037E-01 -6.547575762E-02 -1.850468936E-01
 6.961275114E-01 -3.411606494E-02 7.613943087E-02
 3.713748630E-01 -2.714014185E-01 -1.448443229E-01
 8.800966661E-01 -1.117093772E-02 2.805297726E-01
 8.765032909E-01 -2.581028301E-02 2.598499245E-01
 9.911294487E-02 -4.412736149E-02 -1.944720446E-01
 4.601569915E-01 -6.332077083E-02 -3.112316209E-01
 4.548086973E-01 -7.918715360E-02 -2.987373810E-01
 4.726099991E-01 -7.402960742E-02 -2.787165519E-01
 4.352994521E-01 -7.551474232E-02 -3.290934799E-01
 3.720597740E-01 -6.540719596E-02 -3.917277790E-01
 2.557096494E+00 2.077500808E-01 4.681381128E-03
 9.332864856E-01 -1.743692234E-02 2.900278438E-01
 4.136071475E-01 -7.918239844E-02 -3.437270582E-01
 4.894722124E-01 -7.518453342E-02 -2.469175347E-01
 7.871054272E-01 -1.167985811E-01 1.315471343E-01
 5.388731104E-01 -1.129364699E-01 -1.392332821E-01
 3.177083548E-01 4.092051723E-01 -2.034653094E-01
 7.629105784E-01 -3.820927761E-01 3.473950523E-02
 9.525882685E-01 -7.119619964E-01 2.402943128E-02
 9.897861792E-01 6.784168852E-02 4.746412943E-02
 9.956949471E-01 1.810237934E-02 1.859982635E-01
 9.327591797E-01 8.469877213E-02 -2.882807811E-02
 9.524640225E-01 5.221595517E-02 2.495417650E-02
 9.399192064E-01 2.868757665E-02 1.677224070E-02
 9.559532255E-01 2.631159518E-02 5.639838481E-02
 9.300161110E-01 4.664581847E-02 -1.441450472E-02
 9.044808242E-01 5.232929755E-02 -7.088474727E-02
 8.795690868E-01 5.092750764E-02 -1.108170961E-01
 8.577105562E-01 5.939807754E-02 -1.521437863E-01
 8.766327910E-01 8.286045948E-02 -1.128211423E-01
 8.428112008E-01 4.421593108E-02 -1.736516881E-01
 8.317284604E-01 5.890312974E-02 -1.839861896E-01
 8.111843220E-01 6.196001644E-02 -2.116372885E-01
 7.891047415E-01 7.107351076E-02 -2.357105764E-01
 7.630265696E-01 7.920311114E-02 -2.632856772E-01
 7.875360022E-01 1.042139448E-01 -2.267383766E-01
 8.993143330E-01 1.440281680E-01 -9.208068150E-02
 7.553090827E-01 1.036868765E-01 -2.645754191E-01
 8.543035026E-01 4.019710545E-02 -1.581613726E-01
 8.263147294E-01 8.223288472E-02 -1.836471545E-01
 7.387472099E-01 8.155334353E-02 -2.936441840E-01
 7.267165566E-01 6.648323801E-02 -3.177857890E-01
 7.111215515E-01 8.128962661E-02 -3.273704035E-01
 6.724114527E-01 1.146897560E-01 -3.528919122E-01
 6.909711968E-01 7.954310315E-02 -3.547383630E-01
 8.301777768E-01 4.330859228E-02 -1.912034620E-01
 7.644774232E-01 1.372869459E-01 -2.421332353E-01
 5.975923139E-01 6.676989761E-01 -1.649029906E-01
 6.173381440E-01 -1.337035215E-01 -3.573044503E-02
 1.524700627E-01 4.317733629E-01 -1.180125590E-01
 1.057033760E+00 -1.381857100E-01 1.356738094E-01
 6.912267700E-01 -7.588402309E-02 5.707635462E-02
 2.405179121E-01 -7.959358734E-02 -2.948819434E-01
 3.963525889E-01 -6.663435840E-02 -3.768272500E-01
 3.902201193E-01 -8.254151558E-02 -3.504142655E-01
 8.063372352E-01 4.723801853E-02 -2.222761435E-01
 1.124208936E+00 9.445755544E-02 5.404884599E-02
 1.699523580E+00 -1.609379341E-01 2.359764714E-02
 -8.128621141E-03 -1.484652451E-02 6.061111232E-01
 -2.106677461E-03 -6.714581461E-03 6.309151386E-01
 -1.800414139E-02 8.734748135E-04 7.789021125E-01
 -6.307864832E-03 -1.279492056E-03 1.027824594E+00
 -3.072867379E-03 -1.114747755E-03 1.031362516E+00
 9.327797582E-01 5.090916168E-01 -9.802545676E-02
 8.787848092E-01 7.265472019E-01 -1.260788753E-01
 4.711362540E-01 -6.009650324E-02 -2.971722013E-01
 4.521806408E-02 -3.380713930E-02 -9.253639784E-02
 3.208526803E-02 -4.012541908E-02 2.330110927E-02
 9.023958224E-01 3.174996378E-02 -6.853209596E-02
 1.029568266E+00 -5.429453618E-02 1.747850104E-01
 3.133974596E+00 6.339745962E-01 1.435394396E-03
 4.124203685E-01 -7.298694563E-01 -5.851995789E-03
 1.578811381E+00 2.675030230E-02 1.770206329E-02
 4.342794925E-01 -6.297954889E-02 -3.521545845E-01
 9.269403253E-01 2.497584783E-02 -1.247770788E-02
 7.206735519E-01 5.651218727E-02 -3.277787231E-01
 7.293440791E-01 5.548370025E-02 -3.191040657E-01
 3.133974596E+00 -6.339745962E-01 1.563564122E-02
 -9.949064580E-02 -2.887232544E-01 6.189665332E-02
 1.309342465E-01 2.732214985E-01 -1.649068585E-01
 6.466625261E-02 1.889468821E-01 -9.685868754E-02
 7.836527940E-02 4.790103610E-02 -2.749726654E-01
 1.279085229E-01 1.283974418E-01 -2.477493777E-01
 -5.642488094E-02 2.310625747E-01 3.961842820E-02
 -1.437820572E-01 3.779219247E-01 2.276898607E-02
 -2.519583870E-02 1.294492428E-01 1.158525260E-01
 4.945465522E-02 1.160877219E-01 -8.457955262E-02
 9.607440128E-02 1.010734277E-01 -2.240640885E-01
 4.225065552E-03 7.836161679E-02 1.394284098E-01
 1.223206400E-02 2.102172716E-02 1.292915477E-01
 5.437359937E-03 1.585185626E-02 5.497969001E-02
 2.413756215E-02 2.722879848E-02 -6.164372879E-02
 4.402266278E-02 7.662431580E-02 -1.022220415E-01
 7.549028729E-02 8.172828318E-02 -1.932290649E-01
 9.802851585E-02 5.045465116E-02 -3.176188714E-01
 2.559891899E-02 5.813660789E-02 -1.692828661E-02
 -2.041414326E-02 3.686447360E-02 4.347803845E-01
 -6.505165575E-02 5.647367658E-02 2.749321847E-01
 7.820953659E-01 5.249089596E-02 -2.523733136E-01
 8.504396125E-01 2.075103734E-01 -1.357034746E-01
 1.221016303E-01 -4.926114012E-02 -2.165668969E-01
 8.601898561E-01 -1.197409227E-01 1.684250025E-01
 1.044767151E-02 -2.845038039E-02 1.783807602E-01
 1.014369879E-02 -1.537035429E-02 1.451060765E-01
 2.441417087E-03 -2.058113673E-02 3.252055841E-01
 8.782343473E-01 3.504803572E-02 -1.188824794E-01
 9.335919049E-01 -6.290936040E-03 3.067146011E-01
 1.963744484E+00 3.588462984E-01 -5.026516444E-03
 2.277949201E-01 -6.377709408E-02 -3.056855126E-01
 2.208039995E-01 -7.769025478E-02 -2.827956851E-01
 1.800168927E-01 -5.620398109E-02 -2.665064637E-01
 6.962682325E-01 6.492688714E-02 -3.591999743E-01
 6.710217122E-01 8.515453122E-02 -3.747775386E-01
 6.426553560E-01 1.014107912E-01 -3.914178453E-01