TITLE     = "Visualization of the solution"
VARIABLES = "x"
"y"
"Pressure_Coefficient"
ZONE T="Zone"
 STRANDID=0, SOLUTIONTIME=0
 Nodes=704, Elements=1193, ZONETYPE=FEQuadrilateral
 DATAPACKING=POINT
 DT=(DOUBLE DOUBLE DOUBLE )
 1.000249624E+00 5.284959334E-04 2.335880859E-01
 9.889003038E-01 2.596295672E-03 1.908039370E-01
 9.777961969E-01 4.657158628E-03 1.186398163E-01
 9.648980498E-01 7.043168880E-03 6.341086415E-02
 9.518580437E-01 9.388302453E-03 2.501704953E-02
 9.391279221E-01 1.167505514E-02 -1.299198033E-02
 9.283494353E-01 1.360317506E-02 -5.199356602E-02
 9.161807299E-01 1.572636142E-02 -8.190748179E-02
 9.045195580E-01 1.765224710E-02 -1.059551574E-01
 8.923007846E-01 1.961972378E-02 -1.373031852E-01
 8.802382946E-01 2.149505727E-02 -1.585643358E-01
 8.681060076E-01 2.324296720E-02 -1.666123362E-01
 8.547623754E-01 2.507425100E-02 -1.742015324E-01
 8.428938389E-01 2.667270973E-02 -1.838653051E-01
 8.308152556E-01 2.825922519E-02 -1.951408190E-01
 8.172480464E-01 2.999853343E-02 -2.058364820E-01
 8.037409186E-01 3.165952489E-02 -2.135560670E-01
 7.912458181E-01 3.317067400E-02 -2.249794491E-01
 7.783177495E-01 3.470586985E-02 -2.356157341E-01
 7.654508948E-01 3.618076816E-02 -2.422860779E-01
 7.516937852E-01 3.772528097E-02 -2.548167790E-01
 7.372282743E-01 3.933521360E-02 -2.705470780E-01
 7.260664701E-01 4.053590447E-02 -2.794541562E-01
 7.146884799E-01 4.172010720E-02 -2.909915564E-01
 7.027008533E-01 4.294585809E-02 -3.009263913E-01
 6.885853410E-01 4.431812838E-02 -3.082801464E-01
 6.750448346E-01 4.559699446E-02 -3.222557862E-01
 6.650313735E-01 4.653185233E-02 -3.347446753E-01
 6.532683969E-01 4.756747559E-02 -3.440135053E-01
 6.418702006E-01 4.853074998E-02 -3.537171293E-01
 6.296954751E-01 4.951922223E-02 -3.665643700E-01
 6.185944080E-01 5.037771910E-02 -3.738712456E-01
 6.072516441E-01 5.119040981E-02 -3.808322317E-01
 5.942114592E-01 5.208620057E-02 -3.922640017E-01
 5.822950006E-01 5.284539983E-02 -3.989814052E-01
 5.686462522E-01 5.363715068E-02 -4.074104455E-01
 5.561178327E-01 5.431034416E-02 -4.174075773E-01
 5.437176824E-01 5.490402505E-02 -4.223559657E-01
 5.328350067E-01 5.535554141E-02 -4.266183429E-01
 5.209927559E-01 5.580887571E-02 -4.288525748E-01
 5.080362558E-01 5.621727556E-02 -4.339017355E-01
 4.970814586E-01 5.652188510E-02 -4.382030478E-01
 4.838073254E-01 5.679973960E-02 -4.363412391E-01
 4.706633091E-01 5.699286982E-02 -4.339997747E-01
 4.564380646E-01 5.713606253E-02 -4.360010242E-01
 4.427030683E-01 5.720499530E-02 -4.361365354E-01
 4.297308624E-01 5.718096346E-02 -4.346977571E-01
 4.167397022E-01 5.709761754E-02 -4.337334177E-01
 4.045494795E-01 5.694700032E-02 -4.299267398E-01
 3.924995959E-01 5.673736334E-02 -4.254837984E-01
 3.803403080E-01 5.646774173E-02 -4.228863760E-01
 3.692760766E-01 5.617938191E-02 -4.189784539E-01
 3.563095629E-01 5.578062311E-02 -4.131590500E-01
 3.443422318E-01 5.534138158E-02 -4.093794357E-01
 3.321480751E-01 5.486053601E-02 -4.078184621E-01
 3.214094639E-01 5.436922237E-02 -4.017084755E-01
 3.091223240E-01 5.376323313E-02 -3.956563004E-01
 2.957857549E-01 5.302504823E-02 -3.872641835E-01
 2.818849087E-01 5.219550803E-02 -3.840193159E-01
 2.689852715E-01 5.136927590E-02 -3.792589657E-01
 2.567410469E-01 5.050109699E-02 -3.714648936E-01
 2.438889891E-01 4.954162613E-02 -3.656873641E-01
 2.309740335E-01 4.849803448E-02 -3.568805542E-01
 2.185522318E-01 4.742689431E-02 -3.504837535E-01
 2.068830281E-01 4.637042060E-02 -3.448977264E-01
 1.956679076E-01 4.529243708E-02 -3.382580920E-01
 1.833630800E-01 4.404680431E-02 -3.318331737E-01
 1.713984460E-01 4.276311770E-02 -3.255901687E-01
 1.599313617E-01 4.146378860E-02 -3.167493990E-01
 1.479091197E-01 4.002941027E-02 -3.125293928E-01
 1.371710896E-01 3.867428377E-02 -3.042604983E-01
 1.256988645E-01 3.713737056E-02 -2.950082679E-01
 1.141160578E-01 3.550350294E-02 -2.890865987E-01
 1.033039913E-01 3.388570249E-02 -2.820729798E-01
 9.337215871E-02 3.230906650E-02 -2.743403969E-01
 8.199752867E-02 3.038905375E-02 -2.600194380E-01
 6.977712363E-02 2.815503068E-02 -2.515608486E-01
 5.995120108E-02 2.621231228E-02 -2.401924753E-01
 5.009437352E-02 2.408855781E-02 -2.317526894E-01
 4.137311876E-02 2.202338725E-02 -2.273427763E-01
 3.402443975E-02 2.011789382E-02 -2.031898044E-01
 2.776035480E-02 1.831925288E-02 -1.867740303E-01
 2.234961838E-02 1.659739204E-02 -1.638466193E-01
 1.857218705E-02 1.528180111E-02 -1.442682862E-01
 1.506222412E-02 1.392939128E-02 -1.285551537E-01
 1.254633442E-02 1.287454180E-02 -9.665220130E-02
 1.027217973E-02 1.182438061E-02 -5.258251716E-02
 8.591606282E-03 1.098537538E-02 -3.502178041E-02
 7.077170536E-03 1.016443036E-02 -6.885739355E-03
 5.650757346E-03 9.322544560E-03 -4.333376060E-03
 3.732322017E-03 8.037378080E-03 1.550288797E-01
 2.066275803E-03 6.719319150E-03 2.544539014E-01
 6.261466770E-04 5.306800362E-03 3.335238415E-01
 -7.607617299E-04 3.426884999E-03 7.078359424E-01
 -1.460692147E-03 1.891244319E-03 8.642142036E-01
 -1.746592694E-03 6.869428325E-04 7.023257403E-01
 -1.799181686E-03 -7.064237725E-04 1.431963253E+00
 -1.507047215E-03 -2.290409990E-03 1.193195433E+00
 -7.324623875E-04 -4.115756601E-03 1.166992079E+00
 6.023281021E-04 -6.053763442E-03 1.233873071E+00
 2.549400553E-03 -8.084231988E-03 3.823844210E-01
 4.269677214E-03 -9.525265545E-03 4.257433146E-01
 6.381584331E-03 -1.103595924E-02 3.217911908E-01
 7.929712534E-03 -1.201803051E-02 1.992759961E-01
 9.925364517E-03 -1.317437179E-02 1.923713096E-01
 1.225042250E-02 -1.439841185E-02 1.569120440E-01
 1.548774447E-02 -1.592913643E-02 1.114406697E-01
 1.856316999E-02 -1.724428684E-02 7.607206022E-02
 2.256327868E-02 -1.881194301E-02 -4.571774481E-03
 2.800775319E-02 -2.071374655E-02 -4.491425524E-02
 3.377289325E-02 -2.253388613E-02 -8.469583681E-02
 4.142412543E-02 -2.469354495E-02 -1.107939107E-01
 4.904945567E-02 -2.664463595E-02 -1.399586070E-01
 5.820932239E-02 -2.876380458E-02 -1.579449125E-01
 6.703703105E-02 -3.063947149E-02 -1.729074033E-01
 7.745000720E-02 -3.267386928E-02 -1.849281285E-01
 8.761984855E-02 -3.452123329E-02 -2.017133213E-01
 9.799879044E-02 -3.626520932E-02 -2.121302244E-01
 1.088875905E-01 -3.798751906E-02 -2.226131770E-01
 1.203636155E-01 -3.968711570E-02 -2.342735385E-01
 1.318365335E-01 -4.128268361E-02 -2.453982047E-01
 1.425960809E-01 -4.268837720E-02 -2.551637343E-01
 1.538159847E-01 -4.407896474E-02 -2.636316161E-01
 1.660114229E-01 -4.550006241E-02 -2.748929120E-01
 1.778598130E-01 -4.679801688E-02 -2.858657649E-01
 1.898862123E-01 -4.803691059E-02 -2.974387206E-01
 2.005114406E-01 -4.906234518E-02 -3.074666460E-01
 2.119682878E-01 -5.011074618E-02 -3.185967476E-01
 2.244049162E-01 -5.116247386E-02 -3.300177583E-01
 2.371486872E-01 -5.214393511E-02 -3.392542212E-01
 2.497062534E-01 -5.302906036E-02 -3.502613319E-01
 2.627222836E-01 -5.387154967E-02 -3.623407043E-01
 2.739438713E-01 -5.450735614E-02 -3.740921910E-01
 2.869025171E-01 -5.515400693E-02 -3.844471145E-01
 2.998906672E-01 -5.568442121E-02 -3.936671904E-01
 3.125756383E-01 -5.610806122E-02 -4.008624599E-01
 3.242596090E-01 -5.640767142E-02 -4.110787788E-01
 3.365717828E-01 -5.661322176E-02 -4.160603124E-01
 3.472291231E-01 -5.671033263E-02 -4.220303124E-01
 3.583880067E-01 -5.671253428E-02 -4.253308048E-01
 3.693796694E-01 -5.662377924E-02 -4.261828096E-01
 3.798754811E-01 -5.644321814E-02 -4.260017137E-01
 3.909442723E-01 -5.615440384E-02 -4.202114321E-01
 4.036056697E-01 -5.571271479E-02 -4.159557079E-01
 4.156067371E-01 -5.515111983E-02 -4.095423744E-01
 4.286965728E-01 -5.440751463E-02 -3.918725053E-01
 4.413848519E-01 -5.354247615E-02 -3.751672960E-01
 4.539334178E-01 -5.256953090E-02 -3.578781414E-01
 4.660366476E-01 -5.151763558E-02 -3.368705837E-01
 4.785549343E-01 -5.034349859E-02 -3.171656434E-01
 4.896852374E-01 -4.918165877E-02 -2.958569896E-01
 5.020791888E-01 -4.780969396E-02 -2.647542589E-01
 5.158933401E-01 -4.620803520E-02 -2.380255700E-01
 5.297981501E-01 -4.450072721E-02 -2.116250851E-01
 5.434548259E-01 -4.274268821E-02 -1.806790886E-01
 5.571450591E-01 -4.093290865E-02 -1.520587917E-01
 5.698866844E-01 -3.920270875E-02 -1.262097870E-01
 5.833806992E-01 -3.735221922E-02 -1.026196967E-01
 5.950236917E-01 -3.571208939E-02 -7.895834361E-02
 6.073459983E-01 -3.400708735E-02 -5.862929018E-02
 6.209432483E-01 -3.207739443E-02 -3.855399958E-02
 6.352881193E-01 -3.004668839E-02 -1.429152382E-02
 6.494395137E-01 -2.804531343E-02 7.935526620E-03
 6.627482772E-01 -2.617172711E-02 2.710343393E-02
 6.762724519E-01 -2.426991425E-02 4.742714417E-02
 6.891283393E-01 -2.251463011E-02 6.438004799E-02
 7.016855478E-01 -2.079808339E-02 7.754519281E-02
 7.159481049E-01 -1.884900033E-02 9.856106602E-02
 7.292404175E-01 -1.711886935E-02 1.152935105E-01
 7.408478260E-01 -1.558857504E-02 1.267381383E-01
 7.532314658E-01 -1.400458626E-02 1.452321238E-01
 7.655364871E-01 -1.246974710E-02 1.578638747E-01
 7.779148817E-01 -1.092632394E-02 1.747273041E-01
 7.895959616E-01 -9.545631707E-03 1.910789145E-01
 8.019557595E-01 -8.132161573E-03 2.036805082E-01
 8.133710623E-01 -6.897761486E-03 2.157861190E-01
 8.249722123E-01 -5.678732879E-03 2.270326500E-01
 8.373854756E-01 -4.431386013E-03 2.424751396E-01
 8.494453430E-01 -3.303429112E-03 2.584607970E-01
 8.616113067E-01 -2.273674821E-03 2.685105565E-01
 8.737524748E-01 -1.338303438E-03 2.783418217E-01
 8.859832883E-01 -5.146161420E-04 2.906164728E-01
 8.996789455E-01 2.376836055E-04 2.957084629E-01
 9.095776081E-01 6.977216108E-04 3.034970661E-01
 9.194866419E-01 1.057567773E-03 3.064745972E-01
 9.288599491E-01 1.304140082E-03 3.070774647E-01
 9.377634525E-01 1.462172484E-03 3.069820528E-01
 9.502261281E-01 1.566890976E-03 3.061801899E-01
 9.631368518E-01 1.528247842E-03 3.021372893E-01
 9.777028561E-01 1.313184388E-03 3.086581166E-01
 9.901044965E-01 9.621195495E-04 2.849416980E-01
 -5.000000000E-01 -1.000000000E+00 2.413028053E-02
 3.500000000E+00 -1.000000000E+00 1.355057395E-02
 3.500000000E+00 1.000000000E+00 1.301205533E-03
 -5.000000000E-01 1.000000000E+00 -2.632050912E-03
 -5.000000000E-01 5.000000000E-01 2.650669405E-02
 -5.000000000E-01 2.752797990E-12 8.019888263E-02
 -5.000000000E-01 -5.000000000E-01 5.066978362E-02
 -9.421907698E-13 -1.000000000E+00 1.120426856E-02
 5.000000000E-01 -1.000000000E+00 -7.171796363E-04
 1.000000000E+00 -1.000000000E+00 1.219424346E-02
 1.500000000E+00 -1.000000000E+00 2.687863361E-02
 2.000000000E+00 -1.000000000E+00 2.429897142E-02
 2.500000000E+00 -1.000000000E+00 1.770308625E-02
 3.000000000E+00 -1.000000000E+00 1.430770473E-02
 3.500000000E+00 -5.000000000E-01 1.587438233E-02
 3.500000000E+00 -2.752797990E-12 1.576173627E-02
 3.500000000E+00 5.000000000E-01 7.512611749E-03
 3.000000000E+00 1.000000000E+00 -1.323913840E-03
 2.500000000E+00 1.000000000E+00 -7.115665415E-03
 2.000000000E+00 1.000000000E+00 -2.017226666E-02
 1.500000000E+00 1.000000000E+00 -5.040764452E-02
 1.000000000E+00 1.000000000E+00 -9.120104634E-02
 5.000000000E-01 1.000000000E+00 -8.183654419E-02
 1.733724275E-12 1.000000000E+00 -2.548654899E-02
 6.833219845E-01 -3.879964353E-02 4.988215863E-02
 7.849511362E-01 -2.035208973E-02 1.784014997E-01
 9.071925409E-01 -9.981672404E-03 2.848992924E-01
 5.909970696E-01 -4.960608799E-02 -8.643056919E-02
 7.078335942E-01 5.543772241E-02 -2.882577352E-01
 7.983734100E-01 4.588906890E-02 -2.132241259E-01
 8.926967348E-01 3.257477557E-02 -1.247157458E-01
 2.737928123E-01 6.805550667E-02 -3.610923089E-01
 2.833098918E-01 -7.067344860E-02 -3.570713919E-01
 6.140077335E-01 6.341177031E-02 -3.658892467E-01
 4.246121356E-01 7.251050752E-02 -4.168122574E-01
 5.149344714E-01 6.758623450E-02 -4.173965905E-01
 4.239409728E-01 -6.681612931E-02 -3.732812976E-01
 1.834528679E+00 -5.945196351E-01 2.402082690E-02
 1.773190946E+00 5.862955499E-01 -1.320525725E-02
 3.031189201E+00 2.156776317E-01 9.029127169E-03
 7.633221765E-01 -5.686521210E-01 1.440740547E-02
 4.975963968E-01 -6.078916583E-02 -2.633342003E-01
 7.373642599E-01 6.365326001E-01 -1.210268017E-01
 2.734814767E+00 -5.327249504E-01 1.389694838E-02
 1.201504861E+00 6.421007084E-01 -5.255769191E-02
 9.807938729E-01 3.483007177E-01 -6.665281550E-02
 9.487084790E-01 2.545821138E-02 5.796621472E-03
 1.245450636E+00 -6.398505046E-01 3.579146827E-02
 1.519201960E+00 -2.516424920E-01 3.033595610E-02
 3.327878068E-01 6.147848607E-01 -1.081842225E-01
 1.063708166E-01 4.558194997E-02 -2.642540423E-01
 1.777099082E-01 5.302483729E-02 -3.163298484E-01
 2.350793286E-01 -5.829651293E-01 -3.102651623E-02
 8.041164422E-02 -4.492730072E-02 -1.625154055E-01
 1.355365796E-01 -5.453704960E-02 -2.261064895E-01
 1.933821257E-01 -5.739006299E-02 -2.901758118E-01
 3.530319065E-01 -6.609053860E-02 -4.027834026E-01
 2.248603511E+00 -5.878577594E-01 1.651141075E-02
 2.002227022E+00 -2.154946189E-01 1.494883541E-02
 2.416348252E+00 -1.871129764E-01 1.029520867E-02
 2.184509224E+00 1.579598271E-01 4.810134304E-03
 1.783378525E+00 1.406929936E-01 3.949626935E-03
 -2.693218121E-01 2.392244072E-01 7.068797967E-02
 -9.989901114E-02 6.174799778E-01 -2.077398007E-02
 1.504367129E-02 3.254672856E-01 -3.576496976E-02
 4.152675658E-02 3.088403180E-02 -1.648896576E-01
 -2.711101599E-01 -2.506973782E-01 9.361608061E-02
 -1.581028079E-01 -5.684595700E-01 2.581280568E-02
 2.203729692E+00 5.864491843E-01 -4.486753051E-03
 2.740125884E+00 6.013907161E-01 2.236094232E-03
 -2.508978136E-01 9.001836783E-04 1.335865646E-01
 -1.427501566E-01 1.242663199E-01 1.149603473E-01
 -1.301355346E-01 -1.258473594E-01 1.434885931E-01
 3.502080998E-02 -3.035712232E-02 -4.907583710E-02
 3.866332437E-02 -4.034870502E-01 6.803439568E-03
 3.089221412E-01 -3.300697018E-01 -1.122693844E-01
 -1.047945178E-01 -5.284819846E-03 2.351852610E-01
 -5.404438977E-02 6.469607653E-02 2.180198964E-01
 2.017979251E-02 1.993515104E-02 -1.173682934E-01
 -3.994086393E-02 1.760796758E-01 4.673309590E-02
 4.210048917E-03 9.308239916E-02 4.241720737E-02
 7.195339833E-02 3.991098832E-02 -2.201850108E-01
 3.995117868E-02 1.783903485E-01 -6.367028702E-02
 1.762944552E-01 2.634415435E-01 -1.528561948E-01
 3.502810157E-01 6.999577172E-02 -3.968667323E-01
 3.181424090E-01 6.768912160E-02 -3.869726846E-01
 2.233658118E-01 6.127572902E-02 -3.395769185E-01
 1.505297942E-01 1.545281782E-01 -1.960823038E-01
 1.424340212E-01 4.879988975E-02 -2.953092347E-01
 6.837635999E-02 1.111863092E-01 -1.157075928E-01
 1.235782111E-01 1.056980806E-01 -2.015589011E-01
 -1.069685793E-02 5.109907309E-02 2.071854511E-01
 -5.467817979E-02 1.311048040E-02 3.608552443E-01
 1.480969491E-01 4.314376108E-01 -8.693776359E-02
 3.074559954E-01 3.360932603E-01 -2.001351573E-01
 2.651449118E-01 2.118946919E-01 -2.438172101E-01
 4.235817232E-01 2.458191809E-01 -2.670747476E-01
 4.596889240E-01 4.225636383E-01 -1.920799144E-01
 5.479605744E-01 2.756466338E-01 -2.415509161E-01
 5.655073133E-01 6.855868723E-02 -3.956271308E-01
 4.953997223E-01 1.791670967E-01 -3.183406560E-01
 4.632077249E-01 6.849063256E-02 -4.223491723E-01
 5.997906404E-01 2.005228196E-01 -2.738675557E-01
 6.610930837E-01 5.791921448E-02 -3.305342043E-01
 6.834728128E-01 5.752366677E-02 -3.082707742E-01
 6.610938436E-01 2.772143667E-01 -2.109068407E-01
 7.179023023E-01 1.879122437E-01 -2.178385157E-01
 3.724327921E-01 1.581761307E-01 -3.242737154E-01
 3.818125047E-01 6.644837872E-02 -4.112112343E-01
 7.765512921E-01 2.912023122E-01 -1.583511028E-01
 8.207283123E-01 1.800932622E-01 -1.540132339E-01
 8.387422997E-01 4.262407592E-02 -1.784354663E-01
 8.635509676E-01 3.727842776E-02 -1.571704926E-01
 7.851417285E-01 1.174542460E-01 -1.981672346E-01
 7.446323852E-01 5.083060975E-02 -2.567353773E-01
 6.662527949E-01 1.384647641E-01 -2.751173516E-01
 5.611966441E-01 1.357493720E-01 -3.311322336E-01
 5.943576939E-01 4.263136192E-01 -1.708428443E-01
 1.958460708E-02 6.000509314E-02 3.040143436E-02
 5.089319652E-02 6.981721479E-02 -8.744622833E-02
 9.210856669E-02 7.561954617E-02 -2.029216094E-01
 3.109341956E+00 -2.613041927E-01 1.395516455E-02
 -2.539708631E-02 2.119951757E-02 3.827702425E-01
 -3.695460690E-03 3.110881991E-02 2.719198665E-01
 5.150774874E-03 1.144387905E-02 5.277392818E-02
 9.379909138E-03 1.479350471E-02 2.589785271E-02
 5.840291003E-02 4.693367431E-02 -1.726831368E-01
 8.585039844E-02 4.289629019E-02 -2.373650440E-01
 5.143449959E-02 3.530763567E-02 -1.834439530E-01
 1.258809793E-01 7.282102362E-02 -2.459884770E-01
 1.571996145E-01 8.120361401E-02 -2.687172409E-01
 2.012146781E-01 1.167909437E-01 -2.701897867E-01
 1.859822886E-01 9.007798996E-02 -2.831500857E-01
 1.989185678E-01 5.832437369E-02 -3.265414918E-01
 2.072155800E-01 1.866607597E-01 -2.290108096E-01
 1.483538864E-02 3.888784915E-02 3.946607639E-02
 3.085650969E-02 2.485349764E-02 -1.601747132E-01
 1.172994982E-01 4.477254160E-02 -2.757671617E-01
 1.517995194E-01 4.992694031E-02 -3.010263733E-01
 7.567417854E-02 5.483755652E-02 -2.042792388E-01
 6.230382653E-02 3.530392825E-02 -2.129328479E-01
 1.876295954E-01 5.452371987E-02 -3.222455151E-01
 2.063428697E-01 7.603315572E-02 -3.108156654E-01
 2.324124431E-01 7.971354405E-02 -3.264190547E-01
 2.469871553E-01 1.224283823E-01 -2.924018782E-01
 2.480245926E-01 6.434775307E-02 -3.534600546E-01
 2.564780214E-01 8.438968071E-02 -3.412827009E-01
 2.845629127E-01 9.429364223E-02 -3.446689325E-01
 3.115442748E-01 1.451864898E-01 -3.137796287E-01
 3.227623079E-01 1.030303622E-01 -3.558535361E-01
 3.664897106E-01 1.120174802E-01 -3.571327360E-01
 4.102637082E-01 1.291082072E-01 -3.600352802E-01
 3.994126969E-01 1.010795827E-01 -3.853622100E-01
 4.285429624E-01 9.757127665E-02 -3.910300234E-01
 4.401772272E-01 7.968843070E-02 -4.106821163E-01
 4.621092321E-01 8.910444394E-02 -4.015987698E-01
 4.916541795E-01 6.870963875E-02 -4.209221459E-01
 4.543987723E-01 1.310099139E-01 -3.577836533E-01
 4.940109596E-01 1.139083760E-01 -3.718049073E-01
 5.296330275E-01 1.045548301E-01 -3.739086829E-01
 5.363459409E-01 6.432388300E-02 -4.150802723E-01
 4.074978988E-01 8.210142886E-02 -4.025395993E-01
 4.761441983E-01 7.056163466E-02 -4.207097900E-01
 4.854696481E-01 8.449038832E-02 -4.060691422E-01
 5.050445454E-01 8.215405357E-02 -4.047363690E-01
 3.967397405E-01 6.937807120E-02 -4.140446559E-01
 2.913616665E-01 7.115741000E-02 -3.693684167E-01
 1.632816164E-01 5.817744780E-02 -2.994973133E-01
 2.608043489E-01 6.373266267E-02 -3.607728115E-01
 2.357331740E-01 6.067533735E-02 -3.496646483E-01
 1.289756610E-01 5.252071899E-02 -2.772404524E-01
 2.555329237E+00 2.095935236E-01 4.832037330E-03
 4.100277913E-01 6.760692509E-02 -4.203122854E-01
 2.108125019E-01 5.788611467E-02 -3.361618044E-01
 -9.296433136E-03 1.515623247E-02 6.015613370E-01
 -1.142183388E-04 7.760310965E-03 3.439304105E-01
 4.343167953E-01 1.750776640E-01 -3.269976759E-01
 8.392926534E-03 2.746442446E-02 5.840253671E-02
 3.179259681E-03 1.839109901E-02 1.763307759E-01
 1.243731939E-02 2.101052147E-02 1.558647054E-03
 2.001148001E-02 2.799551159E-02 -4.752659247E-02
 3.083687893E-01 8.014165883E-02 -3.677008171E-01
 3.315227028E-01 8.056624860E-02 -3.782812822E-01
 3.536993667E-01 8.849455404E-02 -3.789795515E-01
 3.668538383E-01 7.541886703E-02 -3.985295408E-01
 8.450827257E-01 4.298681632E-01 -1.085868572E-01
 8.852153241E-01 2.821947472E-01 -1.019085002E-01
 9.482897000E-01 1.871474714E-01 -5.560011826E-02
 1.089932575E+00 2.341131985E-01 -8.945549887E-03
 1.058368468E+00 1.122231095E-01 4.145862928E-02
 1.174162628E+00 1.254907968E-01 3.484012495E-02
 1.163127934E+00 3.177112073E-02 5.758664838E-02
 1.262257979E+00 4.446708510E-02 3.231838099E-02
 1.316172847E+00 2.019790559E-01 9.379293131E-03
 1.239722805E+00 -8.461979286E-02 6.211234285E-02
 1.100550997E+00 -1.255492830E-01 1.049829192E-01
 9.669044437E-01 -1.199400378E-02 2.841513116E-01
 1.171798157E+00 -2.310144752E-01 7.622103795E-02
 1.049603773E+00 -2.449252338E-01 9.198413390E-02
 8.859472135E-01 1.175419140E-01 -1.097702023E-01
 9.761395495E-01 9.210762110E-02 3.505930324E-03
 9.915078740E-01 -1.377050519E-01 1.510109532E-01
 8.465293224E-01 -1.857455893E-02 2.391346511E-01
 8.222936007E-01 -1.807120280E-02 2.167874409E-01
 8.684919461E-01 -1.232054915E-02 2.615375959E-01
 9.222283347E-01 -2.305331356E-01 1.103863477E-01
 8.694110646E-01 -1.375208264E-01 1.526700329E-01
 8.004126525E-01 -2.200917573E-01 6.927099436E-02
 7.371965495E-01 -2.570568977E-02 1.196552022E-01
 7.538639221E-01 -1.401113495E-01 8.903899113E-02
 7.015688124E-01 -1.834322726E-01 2.309091147E-02
 6.861629680E-01 -1.170960247E-01 2.365422218E-02
 6.140529015E-01 -1.658108032E-01 -4.737006036E-02
 5.404722401E-01 -5.752104069E-02 -1.787608548E-01
 5.664828196E-01 -5.381104427E-02 -1.297547439E-01
 6.298166633E-01 -4.307773040E-02 -2.556063435E-02
 6.419093775E-01 -2.657806571E-01 -1.770791376E-02
 5.455006222E-01 -2.359268416E-01 -9.225514253E-02
 5.609085576E-01 -3.565582231E-01 -5.217688925E-02
 9.529219320E-01 -4.028866312E-01 5.223530742E-02
 5.307189732E-01 -1.542166389E-01 -1.420604211E-01
 4.678839436E-01 -1.949666405E-01 -1.757061069E-01
 4.595938520E-01 -6.149887149E-02 -3.305207058E-01
 8.259215386E-01 -9.000923409E-02 1.604839386E-01
 9.281321312E-01 -8.656208828E-02 2.001304424E-01
 9.323709982E-01 -1.033563868E-02 2.881975634E-01
 6.208554898E-01 -1.083553220E-01 -4.142659993E-02
 4.763452440E-01 -1.313852235E-01 -2.217361818E-01
 4.106461852E-01 -1.472308076E-01 -2.563009823E-01
 3.848607725E-01 -6.602325270E-02 -4.029705053E-01
 7.266041205E-01 -8.596622273E-02 8.136330565E-02
 7.096382962E-01 -3.585228093E-02 8.452357350E-02
 9.220682348E-01 8.102441640E-02 -6.166502818E-02
 9.234533893E-01 3.041842625E-02 -6.011212039E-02
 5.689204821E-01 -1.031511103E-01 -1.134343915E-01
 3.909237294E-01 -2.161800971E-01 -1.859111569E-01
 3.419858261E-01 -1.647758565E-01 -2.516376308E-01
 3.181237491E-01 -6.633998692E-02 -3.887769048E-01
 1.070749115E+00 3.481300035E-02 9.068561975E-02
 5.190191713E-01 -1.032082983E-01 -1.862228360E-01
 3.608003673E-01 -1.163860112E-01 -3.177119362E-01
 3.088283103E-01 -1.178966301E-01 -3.035282753E-01
 2.437795431E-01 -6.835639739E-02 -3.238465696E-01
 2.764249859E-01 -1.639011640E-01 -2.292098879E-01
 2.550791941E-01 -1.172049629E-01 -2.725533358E-01
 2.166476663E-01 -1.515034292E-01 -2.039869419E-01
 2.020884124E-01 -1.110983921E-01 -2.339051939E-01
 1.728770883E-01 -1.431602145E-01 -1.802541257E-01
 2.162169664E-01 -6.137801479E-02 -3.083888018E-01
 1.835154344E-01 -2.169968280E-01 -1.305249805E-01
 1.506902420E-01 -9.660379504E-02 -1.953798103E-01
 1.144127290E-01 -1.383600792E-01 -9.974353292E-02
 1.696733548E-01 -5.524243651E-02 -2.668122550E-01
 1.404141726E+00 -5.573476792E-02 3.119822214E-02
 1.069879757E-01 -8.883966563E-02 -1.321095213E-01
 1.025195535E-01 -4.971428643E-02 -1.915934698E-01
 6.557426412E-01 -8.082378193E-02 1.247102583E-03
 6.573040531E-01 -4.120571872E-02 1.554902754E-02
 1.036984250E+00 -6.883820787E-02 1.577917068E-01
 9.779135025E-01 -6.745255864E-02 2.045493972E-01
 3.999053524E-01 -1.044864865E-01 -3.231715799E-01
 4.520555332E-01 -2.955093563E-01 -1.201300737E-01
 3.355941386E-01 -8.971477453E-02 -3.517847343E-01
 4.839638775E-01 -9.326291797E-02 -2.553792008E-01
 4.400837280E-01 -1.022137761E-01 -2.933994425E-01
 4.414693540E-01 -4.669228710E-01 -6.075669690E-02
 3.961603122E-01 -6.472066279E-02 -4.011500268E-01
 4.100925589E-01 -6.582514655E-02 -3.883880148E-01
 4.169877418E-01 -8.314111264E-02 -3.486898290E-01
 3.289548957E-01 -7.040581193E-02 -3.880549794E-01
 6.151686510E-01 -4.655505717E-02 -4.884192702E-02
 6.253926403E-01 -6.510056481E-02 -3.245231812E-02
 6.037383941E-01 -5.980749632E-02 -6.738384564E-02
 5.822759759E-01 -6.727977193E-02 -1.018284540E-01
 6.471169078E-01 -5.506271843E-02 -2.884737343E-03
 2.834418941E-01 -9.561185038E-02 -3.226939811E-01
 1.817055282E-01 -8.666515520E-02 -2.428692623E-01
 8.269816562E-01 -3.635576201E-01 4.249544915E-02
 1.020970896E+00 -5.957531251E-01 3.939137540E-02
 4.720076845E-01 -6.257602992E-02 -3.105758982E-01
 5.585581754E-01 -7.100019315E-02 -1.397172434E-01
 9.430701576E-01 -4.810930633E-02 2.481702899E-01
 9.964035983E-01 -3.285537094E-02 2.693567705E-01
 1.039299884E+00 -1.884227318E-02 1.538547661E-01
 9.068015790E-01 -4.795014640E-02 2.367868702E-01
 2.326850949E-01 -8.820109875E-02 -2.877748814E-01
 2.268469676E-01 -6.754035503E-02 -3.111201948E-01
 2.565208781E-01 -8.442746527E-02 -3.161678154E-01
 2.972147882E-01 -7.788919055E-02 -3.548210591E-01
 3.753165605E-01 -9.195729111E-02 -3.539569670E-01
 3.933428877E-01 -7.867404995E-02 -3.730048633E-01
 3.744599821E-01 -7.538874501E-02 -3.833492809E-01
 1.586972095E-01 -5.522910666E-02 -2.538403510E-01
 1.666865834E-01 -7.045686108E-02 -2.445211811E-01
 1.472730849E-01 -6.639234446E-02 -2.237405423E-01
 5.532226240E-01 -5.320157499E-02 -1.553783590E-01
 3.063985963E-01 -6.820438290E-02 -3.785377427E-01
 2.947432921E-01 -6.552109004E-02 -3.729765077E-01
 3.553638980E-01 -8.375082561E-02 -3.723276787E-01
 6.437930515E-01 -3.948763388E-02 -4.160139300E-03
 9.836272411E-01 -8.627635255E-03 2.994795985E-01
 5.236541134E-01 -5.929361153E-02 -2.107689540E-01
 5.370232381E-01 -7.826024409E-02 -1.759372076E-01
 5.099022065E-01 -7.539339073E-02 -2.260560935E-01
 4.481715608E-01 -6.414097750E-02 -3.434430936E-01
 4.367426275E-01 -7.810736542E-02 -3.357912478E-01
 4.596558600E-01 -7.714777275E-02 -3.076055596E-01
 4.357929256E-01 -6.500836694E-02 -3.623400591E-01
 1.526496939E+00 1.132178994E-01 1.721084518E-02
 1.532713783E+00 3.476545376E-01 -4.790511496E-03
 1.468079241E+00 5.924893094E-01 -2.741105897E-02
 1.147006282E+00 3.976602793E-01 -3.737617619E-02
 2.667237661E-01 -7.038045942E-02 -3.448756651E-01
 5.071927997E-01 -7.154776303E-01 -2.615187415E-02
 3.039182206E-01 -2.243878662E-01 -1.981084301E-01
 1.665715897E+00 -9.355323675E-02 1.973465982E-02
 1.132652057E+00 -3.971303863E-01 5.631353926E-02
 1.319434430E+00 -3.165492072E-01 4.649617457E-02
 6.960231856E-01 -3.956244553E-01 4.102362311E-03
 5.937832147E-01 -5.006470601E-01 -2.074546949E-02
 1.247336328E-01 -6.794975537E-02 -1.994634064E-01
 6.707904319E-01 -5.597216468E-02 2.817246108E-02
 6.994930444E-01 -5.539255123E-02 6.358875553E-02
 7.260655101E-01 -5.252898671E-02 9.364985398E-02
 7.595505511E-01 -6.060889965E-02 1.240075421E-01
 7.607730660E-01 -2.328869514E-02 1.476916908E-01
 5.100768723E-01 -5.818102153E-02 -2.389155147E-01
 8.317640611E-01 1.215551578E-01 -1.556612087E-01
 8.532961151E-01 8.367132935E-02 -1.479881998E-01
 8.102831359E-01 8.406751505E-02 -1.875465721E-01
 7.741353576E-01 8.002588513E-02 -2.192850478E-01
 7.413983614E-01 9.585040586E-02 -2.399127867E-01
 7.722707169E-01 5.313686338E-02 -2.317192273E-01
 8.853482734E-01 7.070528617E-02 -1.135110577E-01
 7.575693233E-01 4.851040142E-02 -2.451347390E-01
 7.537705637E-01 6.573652205E-02 -2.429045580E-01
 7.339256446E-01 6.642463718E-02 -2.586767105E-01
 7.075000348E-01 8.055670193E-02 -2.756651162E-01
 7.900510345E-01 6.222535591E-02 -2.129737996E-01
 7.029726105E-01 1.204372272E-01 -2.561327740E-01
 9.102967613E-01 4.833760211E-02 -8.621572470E-02
 9.398980113E-01 4.938504095E-02 -1.776203412E-02
 9.897229268E-01 5.318235756E-02 5.139388363E-02
 9.717895993E-01 1.720157018E-02 8.463303899E-02
 9.685205588E-01 3.958586422E-02 4.690270558E-02
 9.992196341E-01 2.940737487E-02 1.265863061E-01
 1.020222163E+00 5.652822925E-02 8.839297613E-02
 1.025948084E+00 2.048696544E-02 1.085844756E-01
 8.776037364E-01 4.847607659E-02 -1.362921787E-01
 8.570229125E-01 5.426503424E-02 -1.564182963E-01
 8.314428826E-01 6.185649295E-02 -1.787960849E-01
 8.232335911E-01 4.595210926E-02 -1.920399704E-01
 8.108580677E-01 5.685768464E-02 -1.981312547E-01
 9.099641786E-01 3.187553223E-02 -9.054492571E-02
 1.108405831E+00 -3.854423931E-02 9.871748561E-02
 1.449285686E-01 6.057493908E-02 -2.796220204E-01
 5.310355457E-01 6.245062873E-01 -1.392898165E-01
 3.629637944E-02 4.718037106E-02 -1.110860113E-01
 4.855882859E-01 -7.273200968E-02 -2.752152263E-01
 3.143690691E-01 -8.513254602E-02 -3.512954477E-01
 7.269815502E-01 -3.180756130E-02 1.046984282E-01
 1.703061556E+00 -3.292132447E-01 2.404721138E-02
 9.265764344E-01 -2.832228053E-02 2.583133344E-01
 9.601226088E-01 1.747198000E-02 4.635228662E-02
 3.822945479E-01 8.541484420E-02 -3.943002061E-01
 5.786046497E-01 -4.945036643E-02 -1.087223891E-01
 6.865449304E-01 -8.074925256E-02 4.107396431E-02
 5.033501822E-01 6.623781749E-02 -4.222959085E-01
 8.757331201E-01 3.329601866E-02 -1.472039165E-01
 7.449908583E-01 1.407725196E-01 -2.187643172E-01
 6.966534424E-01 -3.467143784E-02 6.779455609E-02
 -1.327474791E-01 2.654874865E-01 3.702023679E-02
 6.711698863E-01 9.492036706E-02 -2.971881163E-01
 6.316834890E-01 1.029032813E-01 -3.218145869E-01
 6.363457799E-01 6.278920784E-02 -3.479091616E-01
 6.462454222E-01 8.222630165E-02 -3.264066632E-01
 6.489816426E-01 6.072349841E-02 -3.369106107E-01
 6.264533767E-01 7.509685708E-02 -3.463034232E-01
 6.053759771E-01 8.007440046E-02 -3.572262230E-01
 5.903890454E-01 6.599377951E-02 -3.809589289E-01
 5.825125096E-01 7.908457327E-02 -3.746983901E-01
 5.583414493E-01 8.946718410E-02 -3.771967509E-01
 5.778700242E-01 6.402391810E-02 -3.911555780E-01
 5.316850847E-01 7.678376373E-02 -4.039878086E-01
 5.929052534E-01 1.045113455E-01 -3.466278148E-01
 6.022471719E-01 6.255131213E-02 -3.748829196E-01
 9.535906169E-02 1.547159232E-01 -1.328873772E-01
 5.269315539E-01 6.408322774E-02 -4.175916597E-01
 9.446932220E-02 5.327475483E-02 -2.348834333E-01
 4.849773386E-01 -5.931008401E-02 -2.918031414E-01
 7.229863042E-01 5.492927202E-02 -2.756150789E-01
 1.824377801E-01 6.733787690E-02 -3.071044331E-01
 3.427909575E-01 -7.054758418E-02 -3.929390810E-01
 3.133974596E+00 6.339745962E-01 2.560613666E-03
 8.513944788E-01 3.718289973E-02 -1.701664807E-01
 6.026654969E-01 -8.255363828E-02 -6.738374720E-02
 2.076464541E-01 -7.816011409E-02 -2.762564226E-01
 6.700874397E-01 -3.728383366E-02 3.389070563E-02
 9.359074474E-01 2.610798175E-02 -2.712886378E-02
 1.637009173E-01 1.096597613E-01 -2.442583448E-01
 6.250618584E-01 5.917618089E-02 -3.611188977E-01
 3.133974596E+00 -6.339745962E-01 1.330892636E-02