TITLE     = "Visualization of the solution"
VARIABLES = "x"
"y"
"Pressure_Coefficient"
ZONE T="Zone"
 STRANDID=0, SOLUTIONTIME=0
 Nodes=686, Elements=1157, ZONETYPE=FEQuadrilateral
 DATAPACKING=POINT
 DT=(DOUBLE DOUBLE DOUBLE )
 1.000325322E+00 5.207997747E-04 2.431695106E-01
 9.855291843E-01 3.369918559E-03 2.057171926E-01
 9.730504751E-01 5.833386909E-03 1.350612583E-01
 9.584510922E-01 8.710385300E-03 6.575620123E-02
 9.448335767E-01 1.135367434E-02 2.269647551E-02
 9.329369068E-01 1.367733721E-02 -7.462275681E-03
 9.215434194E-01 1.578042470E-02 -3.829834215E-02
 9.100875854E-01 1.798777655E-02 -7.573803199E-02
 8.987258077E-01 2.004994825E-02 -9.286624915E-02
 8.867137432E-01 2.217224613E-02 -1.268035220E-01
 8.749688268E-01 2.424409613E-02 -1.472553219E-01
 8.626919985E-01 2.622674219E-02 -1.535753286E-01
 8.503128290E-01 2.821851894E-02 -1.773283624E-01
 8.389745951E-01 3.003193624E-02 -1.915478666E-01
 8.271450400E-01 3.181334212E-02 -1.966571161E-01
 8.143317699E-01 3.372182325E-02 -2.130674205E-01
 8.015567660E-01 3.562209383E-02 -2.335238437E-01
 7.894986272E-01 3.734850883E-02 -2.429900143E-01
 7.767132521E-01 3.910437971E-02 -2.531145558E-01
 7.649146318E-01 4.072652012E-02 -2.691765598E-01
 7.519589067E-01 4.246937111E-02 -2.821654422E-01
 7.381119132E-01 4.426896572E-02 -2.978764729E-01
 7.272228599E-01 4.567153379E-02 -3.109929332E-01
 7.157932520E-01 4.708554223E-02 -3.268103986E-01
 7.040373683E-01 4.852381721E-02 -3.396925636E-01
 6.904712915E-01 5.008563772E-02 -3.503873360E-01
 6.773813367E-01 5.156333745E-02 -3.669884580E-01
 6.666057706E-01 5.274484679E-02 -3.789285521E-01
 6.548853517E-01 5.397567153E-02 -3.940118279E-01
 6.437511444E-01 5.510891229E-02 -4.066584318E-01
 6.315393448E-01 5.627476051E-02 -4.153181224E-01
 6.199848056E-01 5.732510611E-02 -4.263850365E-01
 6.092560291E-01 5.826522037E-02 -4.383333693E-01
 5.969493389E-01 5.928773805E-02 -4.511940297E-01
 5.849701166E-01 6.019921228E-02 -4.611758933E-01
 5.711294413E-01 6.117983535E-02 -4.707413856E-01
 5.580090880E-01 6.200981513E-02 -4.779673272E-01
 5.448635817E-01 6.277333945E-02 -4.875837075E-01
 5.334182382E-01 6.336554140E-02 -4.932114641E-01
 5.212163925E-01 6.392836571E-02 -4.977044266E-01
 5.083958507E-01 6.443041563E-02 -5.019108622E-01
 4.974575043E-01 6.479911506E-02 -5.027330077E-01
 4.841828346E-01 6.516826898E-02 -5.059470895E-01
 4.710821211E-01 6.545860320E-02 -5.063253346E-01
 4.569875896E-01 6.566490978E-02 -5.065202866E-01
 4.428577423E-01 6.578943133E-02 -5.090752595E-01
 4.296765924E-01 6.581290811E-02 -5.040471351E-01
 4.162826240E-01 6.573794782E-02 -5.016836405E-01
 4.037970304E-01 6.561999768E-02 -4.983776304E-01
 3.907549381E-01 6.540609896E-02 -4.957500058E-01
 3.787119091E-01 6.515199691E-02 -4.954943321E-01
 3.672343493E-01 6.484644860E-02 -4.887409922E-01
 3.537736535E-01 6.439970434E-02 -4.831968204E-01
 3.413933516E-01 6.393764913E-02 -4.808499835E-01
 3.288175464E-01 6.339284033E-02 -4.784086908E-01
 3.184514344E-01 6.288469583E-02 -4.716954346E-01
 3.062779903E-01 6.222600490E-02 -4.652116157E-01
 2.935057282E-01 6.147225574E-02 -4.593590271E-01
 2.796103060E-01 6.056822836E-02 -4.548432073E-01
 2.673690617E-01 5.969455093E-02 -4.477669955E-01
 2.554810643E-01 5.877087638E-02 -4.406209455E-01
 2.430260926E-01 5.774020776E-02 -4.338787377E-01
 2.303493917E-01 5.660886690E-02 -4.270635187E-01
 2.183113247E-01 5.546240509E-02 -4.217534797E-01
 2.065899819E-01 5.427443981E-02 -4.135490231E-01
 1.951682121E-01 5.302776024E-02 -4.058061624E-01
 1.830318272E-01 5.164755881E-02 -4.001612154E-01
 1.713672727E-01 5.022786930E-02 -3.893927458E-01
 1.597919017E-01 4.873009771E-02 -3.826438528E-01
 1.481975913E-01 4.714326188E-02 -3.750051970E-01
 1.375674903E-01 4.560457170E-02 -3.650292093E-01
 1.264365613E-01 4.389792681E-02 -3.538699942E-01
 1.152674556E-01 4.207762331E-02 -3.471011579E-01
 1.048018560E-01 4.027680308E-02 -3.384644137E-01
 9.520772099E-02 3.851421550E-02 -3.264470611E-01
 8.445668966E-02 3.642266989E-02 -3.112762388E-01
 7.299566269E-02 3.401894867E-02 -3.005460512E-01
 6.320883334E-02 3.180555254E-02 -2.886218029E-01
 5.365105346E-02 2.946600877E-02 -2.743836354E-01
 4.465429857E-02 2.706918679E-02 -2.609496216E-01
 3.683426231E-02 2.478075586E-02 -2.343740500E-01
 3.000362962E-02 2.257847413E-02 -2.197699498E-01
 2.420145832E-02 2.053006366E-02 -1.778517129E-01
 1.994916797E-02 1.887207851E-02 -1.613601739E-01
 1.598405093E-02 1.718146540E-02 -1.437812236E-01
 1.307630260E-02 1.582090370E-02 -1.250976637E-01
 1.053483225E-02 1.452081650E-02 -6.503045938E-02
 8.639922366E-03 1.345328987E-02 -4.252822191E-02
 6.898876280E-03 1.239924133E-02 -6.762379496E-02
 5.288850982E-03 1.131473482E-02 1.936564416E-01
 3.228019224E-03 9.740948677E-03 2.640217632E-01
 1.516112359E-03 8.170154877E-03 3.646060623E-01
 7.039689808E-05 6.512830965E-03 4.259844323E-01
 -1.305538928E-03 4.280456807E-03 5.684907698E-01
 -1.946171164E-03 2.504096599E-03 6.068551935E-01
 -2.184741432E-03 1.087403158E-03 1.051810215E+00
 -2.167804167E-03 -6.454066606E-04 8.205649587E-01
 -1.750559430E-03 -2.652435098E-03 9.317567223E-01
 -7.717959234E-04 -4.973059986E-03 7.189921274E-01
 8.135131793E-04 -7.437099237E-03 7.463406175E-01
 3.009039210E-03 -9.984518401E-03 5.690427024E-01
 4.984965548E-03 -1.186050102E-02 4.477372105E-01
 7.311567664E-03 -1.377666276E-02 4.090852495E-01
 9.035270661E-03 -1.505016442E-02 2.538686405E-01
 1.115368400E-02 -1.649099030E-02 2.449493826E-01
 1.367050689E-02 -1.805800945E-02 1.857351413E-01
 1.699019223E-02 -1.994216442E-02 1.436378317E-01
 2.020688727E-02 -2.159773745E-02 6.213468029E-02
 2.438180521E-02 -2.357601747E-02 2.490378143E-02
 2.987968922E-02 -2.592592500E-02 -2.371342442E-02
 3.564148396E-02 -2.814730071E-02 -8.913497123E-02
 4.281792417E-02 -3.064499795E-02 -1.167947823E-01
 5.032040179E-02 -3.301749378E-02 -1.707436196E-01
 5.902661756E-02 -3.551281244E-02 -1.994196613E-01
 6.761439145E-02 -3.776290640E-02 -2.237486604E-01
 7.804806530E-02 -4.027474672E-02 -2.382410983E-01
 8.787606657E-02 -4.244211689E-02 -2.578946645E-01
 9.836768359E-02 -4.459689930E-02 -2.719830470E-01
 1.094826534E-01 -4.670282453E-02 -2.904892558E-01
 1.209335998E-01 -4.872642085E-02 -3.069903431E-01
 1.324709058E-01 -5.062069744E-02 -3.200039373E-01
 1.426814049E-01 -5.219611526E-02 -3.326003441E-01
 1.537874043E-01 -5.380697176E-02 -3.426879145E-01
 1.656458825E-01 -5.541880056E-02 -3.556973651E-01
 1.771612167E-01 -5.687475577E-02 -3.696005024E-01
 1.887043118E-01 -5.823884904E-02 -3.788062185E-01
 1.990788877E-01 -5.938276276E-02 -3.886967636E-01
 2.101541162E-01 -6.052921712E-02 -3.993016562E-01
 2.222328484E-01 -6.167449430E-02 -4.103531801E-01
 2.341324538E-01 -6.271305680E-02 -4.210398584E-01
 2.460184246E-01 -6.366150081E-02 -4.322111547E-01
 2.584413588E-01 -6.455600262E-02 -4.449931502E-01
 2.694173157E-01 -6.524480879E-02 -4.549874201E-01
 2.819275856E-01 -6.594069302E-02 -4.629686317E-01
 2.941112220E-01 -6.649918854E-02 -4.738616745E-01
 3.069611192E-01 -6.697524339E-02 -4.798704927E-01
 3.185446560E-01 -6.729422510E-02 -4.892809792E-01
 3.310278952E-01 -6.751330197E-02 -4.916135967E-01
 3.414444923E-01 -6.762205064E-02 -4.960769527E-01
 3.527756333E-01 -6.761631370E-02 -4.975988847E-01
 3.638366759E-01 -6.752783060E-02 -4.975478379E-01
 3.745825291E-01 -6.733463705E-02 -4.988322207E-01
 3.860417008E-01 -6.699125469E-02 -4.901163318E-01
 3.989339769E-01 -6.649482995E-02 -4.803930977E-01
 4.109305739E-01 -6.589441001E-02 -4.732975183E-01
 4.238128960E-01 -6.511072814E-02 -4.573592410E-01
 4.364005625E-01 -6.420115381E-02 -4.379438059E-01
 4.493742883E-01 -6.314405054E-02 -4.162231221E-01
 4.617595673E-01 -6.200324744E-02 -3.953947217E-01
 4.742456973E-01 -6.072865427E-02 -3.694000624E-01
 4.861979187E-01 -5.943603069E-02 -3.459312660E-01
 4.986416996E-01 -5.797882751E-02 -3.214334666E-01
 5.122453570E-01 -5.627879500E-02 -2.920084955E-01
 5.255978107E-01 -5.448827520E-02 -2.568287229E-01
 5.384983420E-01 -5.275334045E-02 -2.286643643E-01
 5.520181060E-01 -5.082463473E-02 -2.028675416E-01
 5.650702715E-01 -4.893199354E-02 -1.725602478E-01
 5.783184767E-01 -4.697125778E-02 -1.468598674E-01
 5.913813114E-01 -4.502595589E-02 -1.253716898E-01
 6.040798426E-01 -4.306298494E-02 -1.014027152E-01
 6.172958016E-01 -4.100641981E-02 -7.342645024E-02
 6.311872602E-01 -3.884577379E-02 -4.883226592E-02
 6.451298594E-01 -3.670853376E-02 -2.983897761E-02
 6.583268642E-01 -3.464839235E-02 -1.164700473E-02
 6.717082262E-01 -3.252812475E-02 1.444148579E-02
 6.845203638E-01 -3.056697175E-02 3.479997551E-02
 6.968861222E-01 -2.865171432E-02 4.895236675E-02
 7.118647695E-01 -2.633482777E-02 6.946295113E-02
 7.250076532E-01 -2.432932891E-02 9.002992782E-02
 7.365429997E-01 -2.259155177E-02 1.053303653E-01
 7.492790222E-01 -2.064084075E-02 1.233846687E-01
 7.623037100E-01 -1.872506365E-02 1.449777988E-01
 7.759032249E-01 -1.679594256E-02 1.573158922E-01
 7.882732749E-01 -1.505203266E-02 1.708078451E-01
 8.009166718E-01 -1.327402703E-02 1.915169142E-01
 8.119001389E-01 -1.176719554E-02 2.110605727E-01
 8.231025338E-01 -1.029385347E-02 2.235789490E-01
 8.354123235E-01 -8.743261918E-03 2.372137997E-01
 8.476621509E-01 -7.270107511E-03 2.542563477E-01
 8.598451614E-01 -5.889246706E-03 2.711600450E-01
 8.709853292E-01 -4.710320849E-03 2.840143321E-01
 8.825593591E-01 -3.588924883E-03 2.985195938E-01
 8.951179385E-01 -2.486582380E-03 3.077321504E-01
 9.052174091E-01 -1.714034704E-03 3.181627015E-01
 9.156916738E-01 -1.030354644E-03 3.222028399E-01
 9.252973795E-01 -4.886622191E-04 3.299838379E-01
 9.348812103E-01 -5.580335346E-05 3.348977462E-01
 9.470726848E-01 3.642840020E-04 3.337487853E-01
 9.613092542E-01 6.589850527E-04 3.285774017E-01
 9.763771892E-01 7.642941200E-04 3.543035789E-01
 9.895440936E-01 6.777733797E-04 2.878481134E-01
 -5.000000000E-01 -1.000000000E+00 2.623342891E-02
 3.500000000E+00 -1.000000000E+00 1.590846162E-02
 3.500000000E+00 1.000000000E+00 2.190734531E-03
 -5.000000000E-01 1.000000000E+00 -9.460199812E-04
 -5.000000000E-01 5.000000000E-01 3.452633473E-02
 -5.000000000E-01 2.752797990E-12 9.978935346E-02
 -5.000000000E-01 -5.000000000E-01 5.956336584E-02
 -9.421907698E-13 -1.000000000E+00 1.381378837E-02
 5.000000000E-01 -1.000000000E+00 -1.635975144E-02
 1.000000000E+00 -1.000000000E+00 3.104489198E-03
 1.500000000E+00 -1.000000000E+00 2.594828594E-02
 2.000000000E+00 -1.000000000E+00 2.541728814E-02
 2.500000000E+00 -1.000000000E+00 1.919036331E-02
 3.000000000E+00 -1.000000000E+00 1.614024514E-02
 3.500000000E+00 -5.000000000E-01 1.905175131E-02
 3.500000000E+00 -2.752797990E-12 1.882647380E-02
 3.500000000E+00 5.000000000E-01 9.163259497E-03
 3.000000000E+00 1.000000000E+00 -5.546821331E-04
 2.500000000E+00 1.000000000E+00 -6.363833695E-03
 2.000000000E+00 1.000000000E+00 -1.948710101E-02
 1.500000000E+00 1.000000000E+00 -5.638591980E-02
 1.000000000E+00 1.000000000E+00 -1.021066099E-01
 5.000000000E-01 1.000000000E+00 -9.398531147E-02
 1.733724275E-12 1.000000000E+00 -2.763292246E-02
 6.797833404E-01 -4.245135820E-02 2.239686434E-02
 7.840515292E-01 -2.923548241E-02 1.613631755E-01
 9.110115638E-01 -9.906010869E-03 3.103769678E-01
 5.861228444E-01 -5.654678293E-02 -1.331711584E-01
 6.947710250E-01 6.294354967E-02 -3.382073632E-01
 2.720492610E-01 -7.689129737E-02 -4.366052081E-01
 2.845433548E-01 7.350985303E-02 -4.401979622E-01
 9.052803981E-01 3.040148742E-02 -7.819924623E-02
 7.991017178E-01 4.988915944E-02 -2.263741962E-01
 5.867928902E-01 7.405154131E-02 -4.420150922E-01
 4.112096916E-01 7.526358012E-02 -4.870340913E-01
 4.146923471E-01 -7.663713433E-02 -4.410884183E-01
 1.837940337E+00 -5.900541457E-01 2.567153698E-02
 1.770154354E+00 6.269654031E-01 -1.616199690E-02
 3.031179503E+00 2.156822490E-01 1.111661557E-02
 7.500000000E-01 -5.669872981E-01 -3.939247625E-03
 4.929871762E-01 -7.104965060E-02 -3.196002180E-01
 3.233747789E-01 -6.606865272E-01 -3.954591991E-02
 1.254850078E-01 -6.101198531E-02 -2.918072026E-01
 1.891072710E-01 -6.797116558E-02 -3.632629697E-01
 3.471147717E-01 -7.691967081E-02 -4.754019362E-01
 7.457099215E-01 5.784704270E-01 -1.320023953E-01
 4.899137195E-01 7.707230749E-02 -4.873248089E-01
 3.332498872E-01 6.150516429E-01 -1.228529621E-01
 1.182288178E-01 5.446095875E-02 -3.265722117E-01
 1.841192096E-01 6.253778042E-02 -3.824924110E-01
 2.734837747E+00 -5.327017309E-01 1.594616748E-02
 1.174619938E+00 6.108615825E-01 -5.612928387E-02
 9.893769341E-01 3.825294092E-01 -7.019046090E-02
 9.688508997E-01 2.232312181E-02 8.606217610E-02
 1.295879078E+00 -5.934755962E-01 4.165550669E-02
 1.508090671E+00 -2.208880836E-01 3.593474379E-02
 2.249192256E+00 -5.870823302E-01 1.873005664E-02
 2.037264335E+00 -2.211797052E-01 1.601336860E-02
 2.422309959E+00 -1.878796638E-01 1.216699529E-02
 2.184584855E+00 1.581437320E-01 6.511842613E-03
 1.783650058E+00 1.123818695E-01 1.050712697E-02
 -2.744531157E-01 2.324048697E-01 9.036077103E-02
 -1.012205830E-01 6.206863065E-01 -2.193266041E-02
 1.630984935E-02 3.396966414E-01 -4.110632137E-02
 4.505788692E-02 3.788713680E-02 -1.988416933E-01
 -2.713266724E-01 -2.367873731E-01 1.173664133E-01
 -1.459643283E-01 -6.019148916E-01 2.144439169E-02
 1.366740894E-01 -3.728980934E-01 -4.946848511E-02
 6.967850926E-02 -5.000299146E-02 -1.810551434E-01
 2.224634273E+00 5.657242357E-01 -3.344900056E-03
 2.743605362E+00 5.979385472E-01 3.596199466E-03
 -2.355651320E-01 -4.445322613E-03 1.561777636E-01
 -1.282027620E-01 1.266233378E-01 1.449324479E-01
 -1.099747703E-01 -1.271880654E-01 1.816120864E-01
 -7.414416223E-02 -3.212890300E-01 4.598895197E-02
 8.239224701E-03 -1.817143257E-01 5.589342756E-02
 3.726924380E-02 -3.502898810E-02 -5.724193196E-02
 1.588683207E-01 -2.192559344E-01 -1.560243903E-01
 -2.246958400E-02 -9.879676960E-02 2.013828265E-01
 -1.100823732E-01 -2.335431757E-02 2.982400272E-01
 -7.112701352E-02 5.538656265E-02 2.970341837E-01
 2.095536611E-02 2.552144417E-02 -8.183744339E-02
 3.257140230E-02 -1.158502481E-01 4.554383155E-02
 3.109354768E+00 -2.612837048E-01 1.649288919E-02
 -5.126673671E-02 -3.890465234E-02 3.551530764E-01
 -5.155329811E-02 1.151306761E-02 4.738039843E-01
 -2.714339218E-02 5.116130927E-02 2.785103400E-01
 -3.679196720E-02 1.022016561E-01 1.503315614E-01
 3.350517348E-02 1.135474109E-01 -2.573907783E-02
 8.969263275E-02 4.744030940E-02 -2.965307026E-01
 -7.233546561E-03 1.958235346E-01 1.538761751E-02
 8.123123616E-02 1.623802657E-01 -1.279548481E-01
 1.755846854E-01 2.833930440E-01 -1.750533581E-01
 3.489037604E-01 7.490538733E-02 -4.698787870E-01
 2.345132538E-01 6.935418190E-02 -4.141700173E-01
 2.051734152E-01 1.781650202E-01 -2.694763240E-01
 2.809348346E-01 2.348236528E-01 -2.797367284E-01
 2.921149561E-01 1.646809724E-01 -3.496634788E-01
 3.633046477E-01 2.225937358E-01 -3.201331966E-01
 3.192132289E-01 3.574549286E-01 -2.296649717E-01
 4.487534972E-01 2.702256790E-01 -2.980385162E-01
 5.385814744E-01 7.219524935E-02 -4.772838337E-01
 4.763303988E-01 1.798439789E-01 -3.727452369E-01
 5.531729831E-01 2.197812574E-01 -3.239176290E-01
 6.503117817E-01 6.532903052E-02 -3.881713936E-01
 6.284285712E-01 6.822490186E-02 -4.067786250E-01
 6.768911966E-01 6.237241549E-02 -3.596524942E-01
 4.481716878E-01 8.007150279E-02 -4.873420448E-01
 5.398802880E-01 1.462509779E-01 -3.921640251E-01
 6.106341681E-01 1.630070915E-01 -3.368279667E-01
 6.352160076E-01 2.491538128E-01 -2.670675758E-01
 7.015479269E-01 1.790968402E-01 -2.659840510E-01
 7.487176273E-01 5.638255125E-02 -2.794570233E-01
 7.218599842E-01 6.006365237E-02 -3.102832087E-01
 7.247353298E-01 2.540703203E-01 -2.173317242E-01
 7.984918046E-01 1.924314215E-01 -1.837314447E-01
 8.572160955E-01 3.539472992E-02 -1.605592413E-01
 8.338236345E-01 4.091846679E-02 -1.896959318E-01
 7.575336072E-01 1.283939244E-01 -2.401195455E-01
 8.396770563E-01 1.290925572E-01 -1.517494823E-01
 8.767629211E-01 1.986255529E-01 -1.070294918E-01
 9.124979798E-01 1.185062780E-01 -7.264590832E-02
 3.674796946E-01 1.425196816E-01 -4.019962547E-01
 1.405779714E-01 1.328384451E-01 -2.484004368E-01
 1.527259266E-01 5.946305597E-02 -3.557715688E-01
 9.497875536E-01 1.765299613E-01 -5.242276248E-02
 9.917748286E-01 1.187640141E-01 1.577331433E-02
 1.042604960E+00 2.070106309E-01 -9.974756655E-03
 1.148915282E+00 3.258911012E-01 -1.715259637E-02
 1.217619141E+00 1.558162591E-01 3.008271957E-02
 1.343515096E+00 3.651824447E-01 -1.361300748E-02
 8.332916968E-01 3.007759608E-01 -1.491273231E-01
 6.656880683E-01 1.292131287E-01 -3.262577079E-01
 9.500851769E-01 7.677002333E-02 -8.984274916E-03
 9.409994230E-01 2.439116224E-02 5.743358457E-04
 1.001517504E+00 6.833650170E-02 8.482838984E-02
 9.966896751E-01 1.722601894E-02 2.279063034E-01
 1.087107120E+00 8.170724094E-02 8.019669763E-02
 1.198463604E+00 4.223773683E-05 6.817548572E-02
 1.068915157E+00 2.211584160E-02 1.220075068E-01
 1.137459929E+00 -8.637230852E-02 1.050228036E-01
 1.228904666E+00 -1.209064201E-01 7.457452846E-02
 1.365545473E+00 -4.281224266E-02 4.366016301E-02
 1.134646250E+00 -2.072737181E-01 9.442479242E-02
 1.006464305E+00 -1.887251538E-01 1.352114048E-01
 8.428090415E-01 -1.858221150E-02 2.379614353E-01
 8.772402857E-01 -1.789663303E-02 2.723573652E-01
 9.550326323E-01 -1.234881468E-02 3.256086530E-01
 1.037150577E+00 -3.303518212E-01 7.839863605E-02
 9.050897121E-01 -2.533746289E-01 1.004486147E-01
 8.672288576E-01 -1.450132230E-01 1.494835304E-01
 7.782792354E-01 -2.026881402E-01 7.068376205E-02
 7.340311669E-01 -3.968697383E-02 9.435515327E-02
 7.574328164E-01 -3.084258928E-02 1.323570886E-01
 8.012979662E-01 -1.152775901E-01 1.240698416E-01
 7.114320890E-01 -1.439535271E-01 3.383661672E-02
 6.413679837E-01 -5.451346189E-02 -3.706272328E-02
 6.911560368E-01 -2.368935244E-01 -6.731557179E-04
 6.264377630E-01 -1.658678858E-01 -6.365882332E-02
 6.032891223E-01 -2.388958270E-01 -8.079723430E-02
 5.270385766E-01 -1.853011182E-01 -1.676956262E-01
 5.472529267E-01 -6.941051842E-02 -2.040135314E-01
 5.194108280E-01 -6.835681046E-02 -2.604704780E-01
 5.024365069E-01 -2.808156947E-01 -1.355258330E-01
 4.321871190E-01 -2.059615896E-01 -2.280706970E-01
 3.962599529E-01 -2.811657121E-01 -2.017344777E-01
 4.645811122E-01 -1.443455901E-01 -2.723886529E-01
 4.560592701E-01 -7.766763718E-02 -3.771808187E-01
 3.905709013E-01 -1.443743620E-01 -3.374957584E-01
 3.816269907E-01 -7.727896111E-02 -4.679952125E-01
 3.056015611E-01 -2.194175005E-01 -2.382953110E-01
 5.602056341E-01 -1.277184622E-01 -1.580547452E-01
 6.176276827E-01 -1.041255503E-01 -7.644171098E-02
 6.137284623E-01 -5.552609385E-02 -8.286031172E-02
 1.063016511E+00 -5.184726764E-02 1.595418240E-01
 9.862490255E-01 -9.062503100E-02 2.177775372E-01
 9.175369795E-01 -7.924731616E-02 2.169443316E-01
 7.497369606E-01 -9.694585359E-02 8.790403189E-02
 4.864275566E-01 -4.142574565E-01 -9.067281681E-02
 2.408018062E-01 1.296847111E-01 -3.447412013E-01
 5.843642054E-01 1.189971250E-01 -3.957009096E-01
 5.664055460E-01 7.802948047E-02 -4.529220237E-01
 8.714699574E-01 8.675340012E-02 -1.264109066E-01
 3.224902466E-01 1.137952560E-01 -4.109626020E-01
 3.120838274E-01 7.406578472E-02 -4.543819500E-01
 7.931970199E-01 9.588792204E-02 -2.131533592E-01
 7.691546647E-01 5.375600295E-02 -2.570468826E-01
 2.797464458E-01 1.136404713E-01 -3.888347801E-01
 2.623821636E-01 7.412242221E-02 -4.259790168E-01
 6.679608309E-01 3.853693918E-01 -1.927080161E-01
 4.799117776E-01 4.263497187E-01 -2.179556791E-01
 4.854587853E-01 1.212263221E-01 -4.330562727E-01
 4.319900713E-01 1.325577297E-01 -4.221030172E-01
 7.661416236E-01 -3.438586463E-01 2.273761029E-02
 9.200492656E-01 -4.481611503E-01 4.932841004E-02
 4.283942141E-01 -1.203182088E-01 -3.460861175E-01
 8.592951056E-02 1.024980395E-01 -1.905368735E-01
 1.486274136E-01 4.432565127E-01 -9.956067632E-02
 5.212843162E-01 1.053684368E-01 -4.445782212E-01
 5.165061992E-01 7.997034448E-02 -4.775372938E-01
 -8.524486923E-03 -6.048365793E-02 3.417476664E-01
 8.924556139E-03 -1.774128080E-02 3.123411662E-01
 2.091618302E-02 -2.771375446E-02 9.120449539E-02
 2.803273569E-02 -7.420109154E-02 7.356570875E-02
 5.406904654E-02 -4.452231212E-02 -1.332939737E-01
 6.940146542E-02 -9.130546576E-02 -9.968252893E-02
 1.027395412E-01 -5.615542855E-02 -2.536903892E-01
 8.182334590E-02 -1.382084193E-01 -7.170311597E-02
 1.140391781E-01 -1.052117652E-01 -1.989145188E-01
 1.590060354E-01 -6.621443430E-02 -3.268499446E-01
 1.318336777E+00 -2.930342461E-01 5.252687980E-02
 5.537576578E-01 1.007285832E-01 -4.321377010E-01
 5.822728250E-01 -9.379515913E-02 -1.333175342E-01
 1.226393018E-01 9.263233536E-02 -2.695024228E-01
 5.514802403E-01 -9.339792421E-02 -1.843304892E-01
 1.296133638E-02 6.502303767E-02 5.668675403E-02
 4.845605081E-02 7.514335264E-02 -1.301939829E-01
 6.613192840E-02 4.478843352E-02 -2.501384470E-01
 5.022187277E-01 7.525686629E-02 -4.874954058E-01
 4.988789110E-01 9.176699189E-02 -4.668995879E-01
 4.781349877E-01 9.142302267E-02 -4.714538180E-01
 3.548102805E-01 1.110079936E-01 -4.320740558E-01
 3.807338258E-01 7.748910960E-02 -4.797643860E-01
 3.340308861E-01 7.504690273E-02 -4.642251470E-01
 4.648112329E-01 7.972635643E-02 -4.874166467E-01
 4.567736357E-01 9.996714911E-02 -4.619561999E-01
 4.320750494E-01 9.479796099E-02 -4.677136821E-01
 4.037088431E-01 1.063084165E-01 -4.472951513E-01
 1.469096907E+00 5.950056909E-01 -2.675023272E-02
 4.776249792E-01 7.576971175E-02 -4.914283325E-01
 5.494016770E-01 7.730924704E-02 -4.644568989E-01
 3.417127960E-01 9.071595935E-02 -4.506225304E-01
 1.025960163E+00 3.126715672E-02 1.452340504E-01
 1.040304741E+00 -8.368860197E-03 1.648185773E-01
 1.017084539E+00 -3.561272028E-02 2.689255421E-01
 9.828924977E-01 -9.649206029E-03 3.444011719E-01
 9.868616244E-01 3.733255428E-02 1.106356830E-01
 9.570871176E-01 4.217028454E-02 3.334347384E-02
 9.307968325E-01 5.227683814E-02 -2.419298045E-02
 9.260232592E-01 3.385864863E-02 -2.767354825E-02
 4.354676302E-01 7.682940517E-02 -4.918103980E-01
 3.976876480E-01 8.310859891E-02 -4.769705233E-01
 4.234440022E-01 7.836639130E-02 -4.877091847E-01
 5.320317032E-01 -6.536808323E-02 -2.347209013E-01
 2.775587782E-01 -3.552552939E-01 -1.150473904E-01
 2.367637085E-01 -1.786700349E-01 -2.515009863E-01
 2.290154502E-01 -7.597670911E-02 -3.928469038E-01
 5.604900195E-01 -6.114605040E-02 -1.795008194E-01
 1.590014045E+00 -4.904771021E-02 2.318403672E-02
 1.476256493E+00 1.522566074E-01 1.752504862E-02
 5.277877757E-01 7.384637856E-02 -4.812767003E-01
 5.346705045E-01 8.647821120E-02 -4.621432626E-01
 5.745220797E-01 -6.106337422E-02 -1.539789660E-01
 -1.206010652E-01 2.695540156E-01 4.197858754E-02
 -1.841024846E-02 -3.108571158E-02 4.827069704E-01
 2.197732507E-03 -1.412311438E-02 5.340677724E-01
 -2.160249020E-02 -4.295368255E-03 7.712252912E-01
 -2.357660206E-02 2.348882318E-02 5.415747809E-01
 7.199703937E-03 1.632996468E-02 5.389564225E-02
 2.560408452E+00 2.054834916E-01 6.364313083E-03
 8.568323921E-01 -8.892259888E-02 1.861199244E-01
 8.158642113E-01 -6.861783854E-02 1.725716639E-01
 8.144363414E-01 -2.379044859E-02 2.028357410E-01
 7.748228523E-01 -6.425905507E-02 1.316566316E-01
 8.826680809E-01 -5.574690842E-02 2.345770366E-01
 9.117317106E-01 -4.757095054E-02 2.549451429E-01
 9.310581357E-01 -1.153743013E-02 3.159167440E-01
 8.441654400E-01 -5.303594311E-02 2.095923728E-01
 1.567865300E-01 9.013541818E-02 -3.142000365E-01
 1.926555029E-01 1.181764402E-01 -3.216800087E-01
 5.298986068E-01 -8.190880257E-02 -2.302119718E-01
 5.217843246E-01 -1.047287670E-01 -2.277177321E-01
 4.871583623E-01 -1.091423717E-01 -2.814566692E-01
 5.085529071E-01 -8.400980733E-02 -2.750395532E-01
 4.533027212E-01 -1.024087897E-01 -3.413287109E-01
 4.412795630E-01 -8.473433074E-02 -3.903493100E-01
 4.782841149E-01 -8.394531388E-02 -3.295165257E-01
 7.394394013E-01 -6.333091375E-02 9.251155899E-02
 7.074590474E-01 -4.009038860E-02 6.099710629E-02
 7.107935961E-01 -7.868372756E-02 4.863501017E-02
 6.680052389E-01 -1.103936156E-01 -1.269471138E-02
 6.758011663E-01 -7.677061962E-02 7.368610313E-03
 6.488629524E-01 -7.853324285E-02 -2.788417757E-02
 2.331759170E-03 -4.113531689E-02 3.577860369E-01
 1.930848757E-02 -5.125197412E-02 1.451259827E-01
 2.224423864E-01 1.000264576E-01 -3.695854572E-01
 2.094772465E-01 6.749294906E-02 -3.998549905E-01
 2.528584003E-01 9.845850573E-02 -3.900525136E-01
 1.372243604E-01 -1.521503980E-01 -1.794839630E-01
 1.901337464E-01 -1.348560793E-01 -2.549679756E-01
 2.408693780E-01 -1.265755351E-01 -3.297920246E-01
 2.832737273E-01 -1.492795649E-01 -3.286629747E-01
 3.108549261E-01 -7.685885896E-02 -4.634849154E-01
 2.543153389E-01 -7.515456274E-02 -4.220132135E-01
 2.738814457E-01 -1.098055963E-01 -3.788528710E-01
 3.114706082E-01 -1.178910461E-01 -3.825999047E-01
 3.339766822E-01 -1.571655802E-01 -3.310089577E-01
 3.468141507E-01 -1.142222678E-01 -3.976655356E-01
 3.802470401E-01 -1.117284840E-01 -4.051795108E-01
 3.002736336E-01 -7.656709361E-02 -4.575562003E-01
 3.717192433E-01 -2.016169489E-01 -2.701205690E-01
 4.062810821E-01 -1.015270799E-01 -3.947715196E-01
 3.639311001E-01 -9.408593358E-02 -4.372773167E-01
 3.291077740E-01 -9.517872640E-02 -4.322787055E-01
 3.984524443E-01 -8.493333344E-02 -4.435392947E-01
 2.115600619E-01 -1.013219785E-01 -3.377114243E-01
 1.788142045E-01 -1.007171318E-01 -2.987042964E-01
 1.750456162E-01 -7.709973571E-02 -3.320567094E-01
 1.483756287E-01 -8.854932826E-02 -2.699842615E-01
 1.401186447E-01 -7.200613579E-02 -2.927036437E-01
 2.101979477E-01 -8.085876175E-02 -3.634106350E-01
 9.821963717E-01 1.721700010E-02 1.247793463E-01
 7.729457934E-01 -4.292193397E-02 1.400316739E-01
 7.975557859E-01 -4.712045977E-02 1.634627160E-01
 8.002369070E-01 -3.029660883E-02 1.819333571E-01
 8.168720749E-01 -4.191704339E-02 1.924776670E-01
 8.614990451E-01 -3.150469626E-02 2.424577600E-01
 9.763331650E-02 7.689387304E-02 -2.493557342E-01
 1.352193707E-01 7.325690229E-02 -3.137568007E-01
 1.685767044E-01 7.280671903E-02 -3.615211881E-01
 1.944470152E-01 8.200554360E-02 -3.647617239E-01
 3.225870210E-01 8.567550241E-02 -4.467644947E-01
 3.000442790E-01 8.907130754E-02 -4.310223160E-01
 9.684404502E-01 -6.898772298E-01 7.403374046E-03
 2.230932916E-01 -2.690993714E-01 -1.641151723E-01
 7.184973942E-01 -3.687266686E-02 7.581520337E-02
 7.175308740E-01 -5.213444177E-02 6.955882729E-02
 6.949646379E-01 -5.414198003E-02 3.576419989E-02
 6.647458468E-01 -5.719470780E-02 -4.880764987E-03
 6.274286050E-01 -6.827230673E-02 -6.191423176E-02
 6.064168729E-01 -7.546556675E-02 -9.650405182E-02
 9.546176482E-01 2.194602006E-02 4.410002110E-02
 5.412519907E-01 -6.167624105E-01 -3.345227494E-02
 7.705274148E-01 -2.770420238E-02 1.465913519E-01
 5.063675936E-01 -6.753477818E-02 -2.926823765E-01
 6.984406432E-02 -2.627979649E-01 -2.826909240E-02
 8.925469617E-01 -3.148428460E-02 2.734277927E-01
 9.185961396E-01 -2.450000110E-02 2.850423248E-01
 9.456196053E-01 -4.798740030E-02 2.855315748E-01
 9.007260950E-01 -1.485718051E-02 2.985880312E-01
 5.728297946E-01 6.358955788E-01 -1.595090128E-01
 2.990840732E-01 7.142966492E-02 -4.497000073E-01
 3.776567814E-01 9.991644387E-02 -4.458983031E-01
 3.661683270E-01 8.442627372E-02 -4.643038794E-01
 -3.144124140E-03 3.720061605E-02 2.886647287E-01
 -8.574495708E-03 1.491414016E-02 6.244843421E-01
 2.883736684E-01 -7.821011539E-02 -4.454908196E-01
 3.024400943E-01 -9.083554208E-02 -4.308007843E-01
 8.644204535E-01 -1.864764209E-02 2.650025674E-01
 8.289737639E-01 -2.864096153E-02 2.191075133E-01
 1.113517239E+00 -1.373624743E-02 1.073432920E-01
 1.743433384E+00 -2.484913680E-01 2.351030247E-02
 8.373478959E-01 4.614625824E-01 -1.249792107E-01
 9.423004470E-01 -1.359907646E-01 1.684383203E-01
 5.673434242E-01 -7.581248749E-02 -1.629305464E-01
 7.457429972E-01 -3.218004516E-02 1.146863286E-01
 3.133974596E+00 6.339745962E-01 3.607089645E-03
 8.324609203E-01 8.487550827E-02 -1.749395318E-01
 8.559364829E-01 6.731215753E-02 -1.502511462E-01
 8.773359008E-01 5.423122859E-02 -1.216600810E-01
 8.834798941E-01 3.527801420E-02 -1.228230884E-01
 8.686425867E-01 3.712896961E-02 -1.447281865E-01
 8.968931079E-01 4.403587576E-02 -9.430458374E-02
 9.075908814E-01 6.657929053E-02 -6.860499668E-02
 8.566377749E-01 4.892373328E-02 -1.559788066E-01
 8.064805927E-01 7.014929820E-02 -2.095262337E-01
 7.824462662E-01 7.106418182E-02 -2.359554315E-01
 8.143157906E-01 5.355108839E-02 -2.055532465E-01
 1.052017562E+00 -1.145277247E-01 1.511679879E-01
 1.211192405E-01 -7.883850130E-02 -2.454589518E-01
 9.813606604E-02 -7.895523631E-02 -1.959418032E-01
 5.587292421E-02 -6.462794580E-02 -9.185368837E-02
 7.952595969E-02 -6.549535072E-02 -1.733017332E-01
 8.942185902E-01 3.038751435E-02 -1.020189740E-01
 3.133974596E+00 -6.339745962E-01 1.548066272E-02
 9.362905039E-02 -1.984395479E-01 -8.292740647E-02
 6.262016226E-01 -5.163281121E-02 -5.895501208E-02
 3.698277484E-01 -7.982693500E-02 -4.688599066E-01
 7.731834976E-02 6.308941130E-02 -2.256845914E-01
 5.187822845E-02 5.443348212E-02 -1.768846793E-01
 1.026752031E-01 5.627781826E-02 -2.995723098E-01
 1.173850768E-01 6.889886629E-02 -2.972296297E-01
 8.044184814E-01 -1.999329309E-02 1.924794921E-01
 8.335448429E-01 5.606022085E-02 -1.817478569E-01
 9.095335066E-01 6.405760489E-01 -9.556381502E-02
 7.811905265E-02 4.515195456E-02 -2.752362745E-01
 9.383648131E-01 2.530943030E-01 -7.458359958E-02
 6.552344065E-01 -4.551648936E-02 -1.741530504E-02
 6.659597368E-01 -4.246781449E-02 1.252335491E-03
 9.141762276E-01 4.210936410E-02 -5.923246333E-02
 1.963691982E+00 3.587383808E-01 -2.691932821E-03
 4.303877914E-01 -7.645356565E-02 -4.221832259E-01
 9.893056825E-01 -5.113084988E-02 2.341826318E-01
 9.677946064E-01 -2.676921642E-02 2.764256668E-01
 9.422402228E-01 -2.323076224E-02 3.043755622E-01
 5.782212380E-01 9.420134830E-02 -4.260608000E-01
 6.015391951E-01 9.360512264E-02 -4.076111381E-01
 6.085850489E-01 7.612982055E-02 -4.226073252E-01
 6.254164022E-01 8.584101979E-02 -3.936905390E-01
 6.227438999E-01 1.138029974E-01 -3.696334757E-01
 6.553789681E-01 9.514467618E-02 -3.579532219E-01