TITLE     = "Visualization of the solution"
VARIABLES = "x"
"y"
"Pressure_Coefficient"
ZONE T="Zone"
 STRANDID=0, SOLUTIONTIME=0
 Nodes=702, Elements=1189, ZONETYPE=FEQuadrilateral
 DATAPACKING=POINT
 DT=(DOUBLE DOUBLE DOUBLE )
 1.000100374E+00 5.077832029E-04 2.203248093E-01
 9.880368114E-01 2.919683233E-03 2.729171962E-01
 9.750314355E-01 5.502746906E-03 1.309912361E-01
 9.579406381E-01 8.888775483E-03 8.043851793E-02
 9.424896836E-01 1.193619426E-02 4.333483623E-02
 9.271415472E-01 1.494103856E-02 2.561642754E-03
 9.154069424E-01 1.731525175E-02 -3.447523063E-02
 9.034363627E-01 1.965080947E-02 -6.266108255E-02
 8.912813663E-01 2.198199183E-02 -8.662638615E-02
 8.791761994E-01 2.426837385E-02 -1.084463197E-01
 8.667454720E-01 2.658838779E-02 -1.377406328E-01
 8.542118073E-01 2.889987268E-02 -1.573119671E-01
 8.415781260E-01 3.112274595E-02 -1.715114629E-01
 8.307113647E-01 3.305262700E-02 -1.978816863E-01
 8.191787004E-01 3.507438675E-02 -2.203658308E-01
 8.066012859E-01 3.717110679E-02 -2.322469486E-01
 7.939669490E-01 3.922343627E-02 -2.469598717E-01
 7.816249728E-01 4.121337831E-02 -2.638044581E-01
 7.696432471E-01 4.311253503E-02 -2.838759610E-01
 7.583556175E-01 4.487390071E-02 -3.017228685E-01
 7.454640865E-01 4.681068659E-02 -3.192315650E-01
 7.320848703E-01 4.877148569E-02 -3.354802688E-01
 7.215404510E-01 5.027107149E-02 -3.497883053E-01
 7.107127905E-01 5.178194866E-02 -3.657535994E-01
 6.992382407E-01 5.333307013E-02 -3.819758939E-01
 6.861091256E-01 5.506233871E-02 -3.978946581E-01
 6.734392047E-01 5.665104091E-02 -4.131662188E-01
 6.633384824E-01 5.788265914E-02 -4.285534817E-01
 6.520044208E-01 5.922514945E-02 -4.474479471E-01
 6.403999329E-01 6.054164469E-02 -4.639824267E-01
 6.287702918E-01 6.177742407E-02 -4.735405064E-01
 6.172544956E-01 6.292498112E-02 -4.856137901E-01
 6.067316532E-01 6.393891573E-02 -4.984651053E-01
 5.945616364E-01 6.503293663E-02 -5.064846185E-01
 5.831577778E-01 6.597555429E-02 -5.173049793E-01
 5.701144934E-01 6.700818986E-02 -5.319479203E-01
 5.580301285E-01 6.785687804E-02 -5.391228820E-01
 5.461001992E-01 6.861664355E-02 -5.431341206E-01
 5.353490710E-01 6.922639906E-02 -5.499877554E-01
 5.239964128E-01 6.982741505E-02 -5.558659693E-01
 5.117704272E-01 7.036443055E-02 -5.537946902E-01
 5.006847382E-01 7.078133523E-02 -5.547759427E-01
 4.877132177E-01 7.121200114E-02 -5.573573377E-01
 4.744881094E-01 7.155936211E-02 -5.583493719E-01
 4.609962106E-01 7.181534171E-02 -5.542212175E-01
 4.479126036E-01 7.196352631E-02 -5.534834184E-01
 4.354907870E-01 7.205459476E-02 -5.547940696E-01
 4.231209755E-01 7.206229120E-02 -5.506287143E-01
 4.109807909E-01 7.199145108E-02 -5.482195208E-01
 3.986307383E-01 7.185751200E-02 -5.432132563E-01
 3.863321841E-01 7.164316624E-02 -5.403793625E-01
 3.745924532E-01 7.139442116E-02 -5.368626146E-01
 3.615601659E-01 7.102660090E-02 -5.320883019E-01
 3.488461673E-01 7.060777396E-02 -5.292768514E-01
 3.356335759E-01 7.007408887E-02 -5.227575314E-01
 3.245747983E-01 6.957964599E-02 -5.189443166E-01
 3.117345572E-01 6.892995536E-02 -5.160892670E-01
 2.985049486E-01 6.817729026E-02 -5.108060518E-01
 2.846884727E-01 6.729415059E-02 -5.058910698E-01
 2.723703384E-01 6.643266976E-02 -4.988391047E-01
 2.604674101E-01 6.551558524E-02 -4.934481152E-01
 2.480286360E-01 6.449072063E-02 -4.870653433E-01
 2.355746776E-01 6.336805969E-02 -4.789667946E-01
 2.231661677E-01 6.216949597E-02 -4.713245208E-01
 2.111375630E-01 6.092227250E-02 -4.701557897E-01
 1.991943270E-01 5.960550904E-02 -4.614271141E-01
 1.866097599E-01 5.808799714E-02 -4.529236634E-01
 1.747100204E-01 5.657473952E-02 -4.453253529E-01
 1.630750149E-01 5.498722941E-02 -4.343487122E-01
 1.511282027E-01 5.324655399E-02 -4.253968564E-01
 1.402827799E-01 5.155240372E-02 -4.116284442E-01
 1.285224557E-01 4.961019009E-02 -3.976436098E-01
 1.171866432E-01 4.760052264E-02 -3.809628784E-01
 1.065701097E-01 4.559294507E-02 -3.696963872E-01
 9.650158137E-02 4.355134070E-02 -3.488105106E-01
 8.549387008E-02 4.116705433E-02 -3.271724523E-01
 7.394772023E-02 3.845964372E-02 -3.021714838E-01
 6.402806193E-02 3.592699394E-02 -2.781260784E-01
 5.422548205E-02 3.321575373E-02 -2.392190242E-01
 4.561531171E-02 3.061576374E-02 -2.074996744E-01
 3.822492808E-02 2.817769162E-02 -1.654847116E-01
 3.162969649E-02 2.580947056E-02 -1.150218740E-01
 2.601279505E-02 2.359323390E-02 -7.427741823E-02
 2.194305137E-02 2.185750939E-02 -2.709262918E-02
 1.799871214E-02 2.003996447E-02 5.932530022E-03
 1.483919565E-02 1.845120639E-02 2.744937764E-02
 1.193051599E-02 1.686007157E-02 8.697889461E-02
 9.781191126E-03 1.557929721E-02 1.312001957E-01
 7.923367433E-03 1.438115537E-02 1.774549056E-01
 6.207910366E-03 1.316643693E-02 2.151518771E-01
 3.974270076E-03 1.138988044E-02 2.903992858E-01
 2.044068417E-03 9.562333114E-03 3.976122747E-01
 4.506693222E-04 7.683272939E-03 5.664757525E-01
 -1.106881071E-03 4.997150507E-03 6.908642744E-01
 -1.708600088E-03 3.006792394E-03 5.632520260E-01
 -1.850136323E-03 1.436277409E-03 9.367775294E-01
 -1.685750554E-03 -2.395207412E-04 6.991107696E-01
 -1.216497156E-03 -1.843268401E-03 1.131926095E+00
 -2.434772905E-04 -3.800434526E-03 5.942758126E-01
 1.199612510E-03 -5.792960525E-03 7.275632915E-01
 3.184500150E-03 -7.863951847E-03 4.583984305E-01
 4.981526639E-03 -9.400124662E-03 4.942884681E-01
 7.035946939E-03 -1.092063915E-02 1.548223110E-01
 8.697366342E-03 -1.202074159E-02 1.417685066E-01
 1.079242118E-02 -1.328194700E-02 1.237233487E-01
 1.313318871E-02 -1.456622593E-02 8.776133551E-02
 1.643541455E-02 -1.620513014E-02 6.534733599E-02
 1.936624385E-02 -1.752636209E-02 -2.820675305E-03
 2.318384126E-02 -1.909877732E-02 -3.152502212E-02
 2.849009074E-02 -2.107283659E-02 -1.050125395E-01
 3.419487178E-02 -2.298521809E-02 -1.369779410E-01
 4.114521667E-02 -2.508085035E-02 -1.401433984E-01
 4.882876202E-02 -2.717777900E-02 -1.571250555E-01
 5.789095536E-02 -2.941888198E-02 -1.732040996E-01
 6.677258760E-02 -3.141843528E-02 -1.968546826E-01
 7.695844769E-02 -3.352453932E-02 -2.056171261E-01
 8.708592504E-02 -3.546622768E-02 -2.178137561E-01
 9.744799882E-02 -3.731095046E-02 -2.304692704E-01
 1.086623296E-01 -3.917196020E-02 -2.394345004E-01
 1.199155003E-01 -4.090937600E-02 -2.496871689E-01
 1.317531168E-01 -4.263264686E-02 -2.591528885E-01
 1.425530463E-01 -4.410535470E-02 -2.713452746E-01
 1.538095027E-01 -4.555269331E-02 -2.829119479E-01
 1.660190523E-01 -4.702185467E-02 -2.907034203E-01
 1.777718961E-01 -4.835909232E-02 -3.019604141E-01
 1.897043884E-01 -4.962626472E-02 -3.136776316E-01
 2.004975975E-01 -5.069451034E-02 -3.225816714E-01
 2.118557394E-01 -5.174780637E-02 -3.303042764E-01
 2.243360877E-01 -5.282853544E-02 -3.405664655E-01
 2.370331436E-01 -5.382212996E-02 -3.519166640E-01
 2.492897511E-01 -5.469937250E-02 -3.612045775E-01
 2.614738941E-01 -5.548990145E-02 -3.714410803E-01
 2.725707889E-01 -5.612286925E-02 -3.822984486E-01
 2.851387858E-01 -5.675274879E-02 -3.896142132E-01
 2.975374758E-01 -5.726978928E-02 -3.993652697E-01
 3.102453649E-01 -5.769343674E-02 -4.066432077E-01
 3.220511377E-01 -5.798371881E-02 -4.131736634E-01
 3.346899748E-01 -5.818096176E-02 -4.180166710E-01
 3.455769122E-01 -5.824878067E-02 -4.217064874E-01
 3.571371734E-01 -5.823014304E-02 -4.216180550E-01
 3.680454195E-01 -5.811422691E-02 -4.227751055E-01
 3.788547516E-01 -5.790396407E-02 -4.196544254E-01
 3.905081153E-01 -5.756823719E-02 -4.123825456E-01
 4.038179815E-01 -5.705736205E-02 -4.055563728E-01
 4.163501561E-01 -5.643612146E-02 -3.965401494E-01
 4.290699661E-01 -5.566840246E-02 -3.805440739E-01
 4.416187406E-01 -5.477738380E-02 -3.623397529E-01
 4.535232484E-01 -5.383351445E-02 -3.437316834E-01
 4.651966691E-01 -5.280369520E-02 -3.241694919E-01
 4.774707854E-01 -5.163658038E-02 -3.037052100E-01
 4.890090227E-01 -5.042942613E-02 -2.808583782E-01
 5.016111732E-01 -4.901861027E-02 -2.510330205E-01
 5.155524015E-01 -4.741738737E-02 -2.252597643E-01
 5.289332867E-01 -4.576866701E-02 -2.011840286E-01
 5.420596004E-01 -4.408679530E-02 -1.689152420E-01
 5.548229814E-01 -4.244226217E-02 -1.478315804E-01
 5.680574775E-01 -4.063167796E-02 -1.237213841E-01
 5.812456608E-01 -3.883185983E-02 -9.510730544E-02
 5.935214758E-01 -3.714175150E-02 -7.838967618E-02
 6.058833599E-01 -3.537651524E-02 -5.307999307E-02
 6.204496026E-01 -3.332943097E-02 -2.743632262E-02
 6.349886656E-01 -3.127538413E-02 -8.477661568E-03
 6.499646902E-01 -2.914518677E-02 1.415503906E-02
 6.628820300E-01 -2.733497508E-02 3.357658901E-02
 6.763413548E-01 -2.543236315E-02 5.051824292E-02
 6.887727380E-01 -2.369480208E-02 6.896701210E-02
 7.010937333E-01 -2.197741345E-02 8.668467342E-02
 7.154825330E-01 -2.000878006E-02 1.033112194E-01
 7.283323407E-01 -1.824401878E-02 1.222530736E-01
 7.403678298E-01 -1.665139385E-02 1.412514246E-01
 7.540546060E-01 -1.488490496E-02 1.497400176E-01
 7.657788396E-01 -1.333538163E-02 1.714087914E-01
 7.793107629E-01 -1.169107016E-02 1.857527454E-01
 7.910115719E-01 -1.025435235E-02 1.965914143E-01
 8.038417101E-01 -8.743288927E-03 2.168386735E-01
 8.149580359E-01 -7.511932403E-03 2.269219837E-01
 8.261477947E-01 -6.262267940E-03 2.425024333E-01
 8.394014835E-01 -4.943082109E-03 2.557518216E-01
 8.516160250E-01 -3.754490986E-03 2.671593519E-01
 8.638120890E-01 -2.677351004E-03 2.838539197E-01
 8.753389716E-01 -1.772987423E-03 2.938811545E-01
 8.869751096E-01 -9.654708556E-04 3.007331710E-01
 8.999117017E-01 -1.932151063E-04 3.088168922E-01
 9.100376964E-01 3.040330776E-04 3.173601254E-01
 9.205774665E-01 7.161277463E-04 3.196978859E-01
 9.302163720E-01 9.947748622E-04 3.234178569E-01
 9.393912554E-01 1.174544101E-03 3.207955080E-01
 9.509211779E-01 1.298165182E-03 3.243999035E-01
 9.634326696E-01 1.299575786E-03 3.179388296E-01
 9.770275354E-01 1.148838899E-03 3.432082876E-01
 9.888256192E-01 8.837172645E-04 3.600413531E-01
 -5.000000000E-01 -1.000000000E+00 3.258741439E-02
 3.500000000E+00 -1.000000000E+00 1.709411856E-02
 3.500000000E+00 1.000000000E+00 -6.913808234E-04
 -5.000000000E-01 1.000000000E+00 -5.528182866E-03
 -5.000000000E-01 5.000000000E-01 3.098629203E-02
 -5.000000000E-01 2.752797990E-12 9.712936097E-02
 -5.000000000E-01 -5.000000000E-01 6.263638095E-02
 -9.421907698E-13 -1.000000000E+00 1.830654497E-02
 5.000000000E-01 -1.000000000E+00 9.998227582E-03
 1.000000000E+00 -1.000000000E+00 2.072288983E-02
 1.500000000E+00 -1.000000000E+00 3.457852847E-02
 2.000000000E+00 -1.000000000E+00 2.985998610E-02
 2.500000000E+00 -1.000000000E+00 2.162191182E-02
 3.000000000E+00 -1.000000000E+00 1.764786086E-02
 3.500000000E+00 -5.000000000E-01 1.957216181E-02
 3.500000000E+00 -2.752797990E-12 1.831194252E-02
 3.500000000E+00 5.000000000E-01 7.128576626E-03
 3.000000000E+00 1.000000000E+00 -3.333491973E-03
 2.500000000E+00 1.000000000E+00 -1.007369754E-02
 2.000000000E+00 1.000000000E+00 -2.631285503E-02
 1.500000000E+00 1.000000000E+00 -6.384175150E-02
 1.000000000E+00 1.000000000E+00 -1.177117651E-01
 5.000000000E-01 1.000000000E+00 -1.104238065E-01
 1.733724275E-12 1.000000000E+00 -3.349892932E-02
 6.850265097E-01 -3.393847127E-02 6.086826225E-02
 7.876001515E-01 -2.236648275E-02 1.867491626E-01
 9.041305015E-01 -8.071015728E-03 3.012703654E-01
 5.874193202E-01 -4.773379746E-02 -8.567069046E-02
 2.761195588E-01 -6.601256122E-02 -3.688040965E-01
 7.064839600E-01 6.384891406E-02 -3.600699872E-01
 2.814715582E-01 7.958755341E-02 -4.871476198E-01
 3.677774569E-01 8.179919724E-02 -5.204135413E-01
 9.105072632E-01 3.276239323E-02 -4.342766989E-02
 8.157445940E-01 4.762512749E-02 -2.150888669E-01
 1.795501749E-01 -6.013659803E-02 -2.852280647E-01
 6.105648418E-01 7.269462352E-02 -4.820907745E-01
 4.106220789E-01 -6.759992331E-02 -3.766891858E-01
 5.200830428E-01 8.287611905E-02 -5.356363604E-01
 1.838295683E+00 -5.933859208E-01 2.885818797E-02
 1.763226197E+00 5.851933291E-01 -1.773129445E-02
 3.031170311E+00 2.156864815E-01 9.936189920E-03
 7.201904599E-01 -5.491822699E-01 1.232636210E-02
 4.952760587E-01 -6.181625954E-02 -2.536724674E-01
 7.500000000E-01 5.669872981E-01 -1.563825897E-01
 3.370778145E-01 6.522183071E-01 -1.394934925E-01
 1.214146716E-01 5.759324422E-02 -3.669894584E-01
 1.795024007E-01 6.777453318E-02 -4.288792901E-01
 4.464538587E-01 8.585474965E-02 -5.354722562E-01
 2.734860763E+00 -5.326787722E-01 1.662843068E-02
 1.166231571E+00 6.153510232E-01 -7.342205673E-02
 9.979730855E-01 3.478924565E-01 -6.099734461E-02
 1.261400394E+00 -6.273639488E-01 4.628679057E-02
 1.508469548E+00 -2.643133654E-01 3.680200356E-02
 2.500000000E-01 -5.669872981E-01 -2.829635930E-02
 8.099273542E-02 -4.840071987E-02 -1.777362925E-01
 2.249271659E+00 -5.876059919E-01 2.037780481E-02
 2.037721498E+00 -2.251392792E-01 1.789202181E-02
 2.422424385E+00 -1.885758754E-01 1.265895963E-02
 2.184663259E+00 1.583270912E-01 4.786373876E-03
 1.779090726E+00 1.282863017E-01 6.036262057E-03
 -2.709620589E-01 -2.473636150E-01 1.146809513E-01
 -1.560095778E-01 -5.625842550E-01 3.706471769E-02
 -2.716173178E-01 2.369710062E-01 8.242460097E-02
 -6.696804897E-02 6.047567276E-01 -3.917942669E-02
 1.085035431E-01 3.643671711E-01 -1.154044804E-01
 6.605105186E-02 4.665716299E-02 -2.452980406E-01
 2.203178096E+00 5.865285325E-01 -6.084196745E-03
 2.740025290E+00 6.014077143E-01 1.928640041E-03
 -2.349157233E-01 2.224917144E-03 1.556250542E-01
 -1.272321865E-01 -1.261280890E-01 1.708868677E-01
 4.208688131E-02 -3.993884948E-01 1.782581441E-02
 2.694593504E-01 -3.014972741E-01 -1.185968225E-01
 3.504267892E-01 -6.914380904E-02 -3.997084390E-01
 3.149170634E-01 -6.938160105E-02 -3.898325606E-01
 -1.198895730E-01 1.417718100E-01 1.373240218E-01
 -6.785721120E-02 3.225856493E-01 -6.218309205E-04
 7.988198189E-03 1.821562299E-01 -6.611014008E-03
 3.344559952E-02 3.292548178E-02 -1.103884064E-01
 1.578234441E-01 2.207466027E-01 -2.251070318E-01
 2.275338438E-01 7.622301759E-02 -4.566482750E-01
 2.042067270E-01 7.605748468E-02 -4.391471964E-01
 -3.795922672E-02 9.836529123E-02 2.027108847E-01
 -1.102066206E-01 2.399602067E-02 2.835916986E-01
 -7.045700806E-02 -5.505965517E-02 2.960671409E-01
 3.601050239E-02 -2.953704767E-02 -9.762686481E-02
 2.006399855E-02 -2.125280989E-02 2.196134439E-02
 3.492596244E-02 1.128914070E-01 -3.780768924E-02
 3.109367678E+00 -2.612636438E-01 1.651950877E-02
 -4.703844257E-02 3.693772201E-02 3.936405887E-01
 -5.068203837E-02 -1.097118343E-02 4.740746027E-01
 -2.433230620E-02 -5.161345806E-02 4.030353004E-01
 -3.310584778E-02 -1.000788696E-01 1.901570876E-01
 3.661209579E-02 -1.152448229E-01 4.550417859E-02
 1.358776792E-01 -5.272201408E-02 -2.476986844E-01
 1.136264162E-01 -5.389888709E-02 -2.176021291E-01
 -1.202161649E-02 -1.718587973E-01 1.042749025E-01
 8.231164809E-02 -1.704723072E-01 -4.971746013E-02
 9.067337571E-02 -1.075588443E-01 -1.094364597E-01
 1.571721555E-01 -1.439988964E-01 -1.646786777E-01
 2.314366860E-01 -6.472315882E-02 -3.325197015E-01
 1.612454297E-01 -2.357967650E-01 -1.074290177E-01
 2.339558221E-01 -1.879912375E-01 -1.959349299E-01
 3.731337727E-01 -2.284937123E-01 -1.791925779E-01
 3.976569956E-01 -3.562335775E-01 -8.590830250E-02
 4.759634922E-01 -2.360975735E-01 -1.375615931E-01
 4.248343762E-01 -1.604930108E-01 -2.331814815E-01
 4.585910090E-01 -6.797420924E-02 -3.132503154E-01
 4.349316642E-01 -6.719800473E-02 -3.511309094E-01
 5.174788021E-01 -1.571546252E-01 -1.473453707E-01
 5.511075376E-01 -5.639603956E-02 -1.493034596E-01
 5.262280548E-01 -6.126586568E-02 -1.926172009E-01
 5.695179396E-01 -2.212875926E-01 -6.991669232E-02
 6.138241564E-01 -1.606942503E-01 -4.120866578E-02
 6.455291258E-01 -4.340555891E-02 5.331734399E-03
 6.597514821E-01 -2.099502145E-01 -1.218998784E-03
 7.371520806E-01 -2.915705482E-02 1.279651135E-01
 6.920404244E-01 -1.489570237E-01 3.597535734E-02
 8.453330897E-01 -1.657133806E-02 2.504087371E-01
 7.468489077E-01 -2.014199117E-01 6.806294727E-02
 8.230421408E-01 -1.812758997E-02 2.275856134E-01
 8.737739162E-01 -1.356888285E-02 2.769750579E-01
 7.790776499E-01 -1.395410975E-01 1.112687542E-01
 8.251570351E-01 -1.781943383E-01 1.205963940E-01
 9.705809459E-01 -1.074022578E-02 3.175415624E-01
 9.458799592E-01 -8.575181362E-03 3.121238621E-01
 8.766189649E-01 -1.270184987E-01 1.749472756E-01
 9.231336385E-01 -1.896140801E-01 1.411780667E-01
 9.607223674E-01 -1.123228350E-01 1.850710989E-01
 1.013196270E+00 -1.773813368E-01 1.403274564E-01
 1.048645768E+00 -9.765965050E-02 1.616253641E-01
 9.680865304E-01 -2.956742137E-01 9.879105841E-02
 1.115691011E+00 -2.485513526E-01 9.496767073E-02
 3.509689023E-01 -1.452727265E-01 -2.739840653E-01
 9.022982261E-01 -7.651179178E-02 2.203063458E-01
 8.251353769E-01 -7.587535256E-02 1.847465621E-01
 7.475798868E-01 -9.133493295E-02 1.098936023E-01
 5.376311849E-01 -3.331836760E-01 -6.416101539E-02
 5.209626449E-01 -4.920345680E-01 -4.493544808E-02
 8.228803755E-01 -2.841906842E-01 7.475234397E-02
 6.473574218E-01 -1.041528743E-01 -2.653270613E-03
 9.938637972E-01 -6.848991373E-02 2.169908141E-01
 4.672316482E-01 -1.305027304E-01 -2.268203491E-01
 5.438201923E-01 -1.109772469E-01 -1.386320074E-01
 3.948801186E-01 -1.109015050E-01 -3.136195998E-01
 3.864540866E-01 -7.084397606E-02 -3.901246103E-01
 4.339544801E-01 -1.055196293E-01 -2.846291633E-01
 1.089956194E+00 -4.365726254E-01 6.682778922E-02
 2.209555790E-01 -1.234094333E-01 -2.487566894E-01
 2.850135557E-01 -1.358821416E-01 -2.705469984E-01
 2.578688782E-01 -1.046641390E-01 -2.990721817E-01
 2.535176058E-01 -6.890500460E-02 -3.463987440E-01
 3.589573715E-01 -1.044039003E-01 -3.386425457E-01
 -8.387596314E-03 6.050423390E-02 2.206641063E-01
 8.396109486E-03 1.925887695E-02 2.153520940E-01
 1.822708236E-02 2.562078233E-02 4.103323377E-02
 3.115193955E-02 7.129542127E-02 -3.949605032E-02
 4.845901755E-02 4.031174614E-02 -1.854002497E-01
 2.932549674E-01 -9.861176092E-02 -3.301483990E-01
 3.289825966E-01 -6.954733241E-02 -3.951755720E-01
 3.222366664E-01 -8.238850097E-02 -3.663743717E-01
 3.399290461E-01 -8.122124163E-02 -3.761702030E-01
 1.400543814E-01 -9.770916625E-02 -1.911143586E-01
 1.579060741E-01 -5.997543308E-02 -2.636962328E-01
 1.814088305E-01 -1.026918182E-01 -2.321601997E-01
 6.290926025E-01 -4.663500800E-02 -2.014939804E-02
 6.402774059E-01 -6.120865509E-02 -5.683743879E-03
 6.151037712E-01 -6.242267978E-02 -4.063840059E-02
 6.769001535E-01 -7.549734569E-02 3.828821648E-02
 7.153236051E-01 -6.334042433E-02 8.532602412E-02
 7.108427709E-01 -3.743034189E-02 9.285203445E-02
 6.149391798E-01 -4.696679508E-02 -4.089970933E-02
 3.286867478E-01 -1.054084407E-01 -3.298436023E-01
 2.891771319E-01 -7.327247727E-02 -3.673507475E-01
 3.046248276E-01 -7.834560255E-02 -3.674361215E-01
 3.612792477E-01 -6.686327122E-02 -4.041295835E-01
 3.607414120E-01 -8.027869014E-02 -3.794823729E-01
 3.787290299E-01 -8.611751083E-02 -3.601735622E-01
 6.725012418E-01 -3.850572838E-02 4.216886558E-02
 6.622081655E-01 -5.488714654E-02 2.607226670E-02
 3.033683545E-01 -6.744432171E-02 -3.843991711E-01
 6.586170507E-01 -3.865571914E-02 2.452594199E-02
 3.399210637E-01 -6.726842510E-02 -4.009507589E-01
 1.244942561E-02 -7.165494078E-02 1.368696795E-01
 5.317902297E-02 -7.815014960E-02 -3.373666066E-02
 4.955910690E-02 -3.756455409E-02 -1.049983844E-01
 3.191745171E-02 -4.754472825E-02 1.504473961E-02
 6.167521698E-02 -5.196774738E-02 -1.210600576E-01
 8.450408681E-02 -7.241070790E-02 -1.357874919E-01
 9.550161821E-02 -5.677925016E-02 -1.847496886E-01
 1.121937658E-01 -7.688924454E-02 -1.762008878E-01
 4.217625122E-01 -6.596747298E-02 -3.693625084E-01
 4.204882395E-01 -8.267421735E-02 -3.389104780E-01
 5.757091581E-01 -5.116197865E-02 -1.051242045E-01
 5.891310895E-01 -6.465371958E-02 -8.021114590E-02
 5.668603189E-01 -6.484529905E-02 -1.210713251E-01
 5.447810192E-01 -7.567227457E-02 -1.511663904E-01
 5.210417063E-01 -8.269099674E-02 -1.894795403E-01
 7.247202590E-01 -2.973364633E-02 1.124816449E-01
 7.305560958E-01 -4.325041507E-02 1.134132341E-01
 7.612586493E-01 -2.426362746E-02 1.559021373E-01
 7.677050990E-01 -5.878258555E-02 1.443835412E-01
 7.504583560E-01 -3.996992033E-02 1.370533078E-01
 7.486002878E-01 -2.653067900E-02 1.407114302E-01
 7.736868243E-01 -2.454532756E-02 1.720865336E-01
 7.817511026E-01 -3.903114529E-02 1.699768176E-01
 7.984104242E-01 -3.118926629E-02 1.932237153E-01
 8.015206683E-01 -5.356255610E-02 1.791234654E-01
 7.900869578E-01 -8.980901306E-02 1.489955611E-01
 5.633114947E-01 -5.109545148E-02 -1.292778929E-01
 6.121220691E-02 -3.821485385E-02 -1.580129051E-01
 6.964205378E-01 -3.350640272E-02 7.591307611E-02
 6.904024139E-01 -4.888046612E-02 6.102821350E-02
 6.009996994E-01 -4.904920977E-02 -6.404212273E-02
 6.067209715E-01 -8.691405480E-02 -5.508923465E-02
 5.386218997E-01 -5.663792842E-02 -1.712449089E-01
 7.016316770E-02 -4.070465051E-02 -1.704325059E-01
 3.723506579E-01 -7.002027321E-02 -3.968728589E-01
 3.977090122E-01 -8.290674186E-02 -3.570460697E-01
 2.556276956E+00 2.094598280E-01 5.152376435E-03
 -2.078997400E-02 3.142550175E-02 4.487459005E-01
 3.291651121E-03 1.563839521E-02 2.961536912E-01
 -2.266234690E-02 6.386301793E-03 6.576083419E-01
 -7.014128239E-03 -1.429446047E-02 6.696628813E-01
 8.094493132E-01 -1.967465032E-02 2.117132100E-01
 7.980626342E-01 -1.844560813E-02 2.012506091E-01
 8.164073900E-01 -3.311528578E-02 2.095096343E-01
 8.543016534E-01 -5.618408521E-02 2.186925133E-01
 8.342017679E-01 -2.766471134E-02 2.301635676E-01
 1.394939024E-01 -7.158820027E-02 -2.236972906E-01
 9.465391427E-04 3.933889257E-02 2.730974961E-01
 1.616416028E-02 5.084265433E-02 1.126174461E-01
 3.346573549E-02 4.429710822E-02 -6.868149204E-02
 2.087312351E-01 -8.649185727E-02 -2.809007273E-01
 1.998562775E-01 -6.315226881E-02 -3.039433866E-01
 7.330299960E-03 -3.703773346E-02 1.631139149E-01
 9.050670514E-03 -1.655331248E-02 1.972212288E-01
 -8.427349130E-02 -2.834311391E-01 6.250891766E-02
 9.601810869E-01 -6.675618058E-01 3.738269448E-02
 4.656287894E-01 -8.883198032E-02 -2.719140308E-01
 4.981632231E-01 -1.017137790E-01 -2.104595181E-01
 8.739268457E-01 -4.410867044E-01 5.484447621E-02
 6.850154131E-01 -3.987253553E-01 6.711540376E-03
 5.103425520E-01 -6.146718542E-02 -2.229217298E-01
 5.028385281E-01 -7.581848263E-02 -2.285662364E-01
 4.849430818E-01 -7.563890768E-02 -2.581033181E-01
 7.564838164E-02 2.579890510E-01 -1.056667026E-01
 2.608140514E-01 3.101814812E-01 -2.460674080E-01
 2.755584295E-01 1.954181834E-01 -3.413356107E-01
 3.329634303E-01 7.957661878E-02 -5.104800522E-01
 3.012253762E-01 8.334060869E-02 -4.905320473E-01
 3.632160510E-01 2.488630504E-01 -3.369801869E-01
 3.604742024E-01 1.713844073E-01 -4.134865926E-01
 4.046909943E-01 8.250704178E-02 -5.310321807E-01
 4.424930846E-01 1.909581349E-01 -4.094091572E-01
 4.840884339E-01 8.661014226E-02 -5.355713579E-01
 4.630619790E-01 2.849838396E-01 -3.226254168E-01
 5.390228946E-01 2.093729485E-01 -3.808303526E-01
 5.655653195E-01 7.960723777E-02 -5.163831632E-01
 5.419018319E-01 8.055873628E-02 -5.294322812E-01
 5.727330927E-01 3.237247049E-01 -2.889625232E-01
 6.480274109E-01 2.257471327E-01 -3.100294228E-01
 6.636361130E-01 6.956585252E-02 -4.159814281E-01
 6.806688128E-01 6.774061491E-02 -3.963344938E-01
 6.019338543E-01 1.547595146E-01 -4.007298197E-01
 6.871348653E-01 1.575632635E-01 -3.196513965E-01
 7.659835775E-01 5.730803856E-02 -2.831166642E-01
 7.392523949E-01 6.204317966E-02 -3.179749916E-01
 7.925559673E-01 5.633587291E-02 -2.432106041E-01
 7.311822338E-01 2.235840205E-01 -2.478586571E-01
 7.787516580E-01 1.520612225E-01 -2.288752981E-01
 8.635970464E-01 3.702398991E-02 -1.359462794E-01
 8.287572928E-01 2.149866229E-01 -1.677618622E-01
 8.511971222E-01 1.511151312E-01 -1.431846494E-01
 9.705458189E-01 2.075723292E-02 1.141671398E-01
 2.049810317E-01 1.499886209E-01 -3.326927411E-01
 1.065778541E-01 1.533688777E-01 -2.022129181E-01
 6.823150579E-01 3.397006916E-01 -2.241673969E-01
 5.461278399E-01 1.444196278E-01 -4.396351303E-01
 6.451517564E-01 1.209281397E-01 -3.914281133E-01
 6.347843822E-01 7.189019191E-02 -4.557669677E-01
 8.167057106E-01 1.077889403E-01 -1.968071815E-01
 8.604736480E-01 9.853902295E-02 -1.372476940E-01
 9.153327064E-01 1.231591936E-01 -5.973419398E-02
 9.080602228E-01 2.244368303E-01 -9.940271455E-02
 1.007462190E+00 1.951702044E-01 -2.206023322E-02
 1.130196984E+00 2.520242302E-01 -1.229291195E-02
 1.125137664E+00 1.190214437E-01 5.231978608E-02
 1.275492754E+00 2.062256725E-01 1.383618346E-02
 9.928897380E-01 9.640179523E-02 4.304784690E-02
 1.272846792E+00 3.429105788E-02 4.833025161E-02
 7.270699600E-01 1.143698364E-01 -3.035766584E-01
 2.674426049E-01 1.285849724E-01 -4.124335207E-01
 9.391041439E-01 7.445823486E-02 -2.368507315E-02
 9.386624255E-01 2.409120761E-02 2.209551435E-02
 1.062320660E+00 5.364112550E-02 1.094583255E-01
 4.080702011E-01 1.332357283E-01 -4.685289336E-01
 4.532887892E-01 1.369170575E-01 -4.695621225E-01
 8.713942445E-02 1.023169091E-01 -2.126165674E-01
 8.941884927E-02 5.123535630E-02 -3.108757909E-01
 4.397854674E-01 4.292366549E-01 -2.380479268E-01
 1.633353132E-01 1.178185963E-01 -3.283229730E-01
 1.239841597E-01 9.829320370E-02 -2.934391452E-01
 1.529734884E-01 6.646130674E-02 -3.997487532E-01
 1.467487860E+00 9.250969397E-02 1.929346962E-02
 1.500394821E+00 3.441490204E-01 -5.914633308E-03
 5.783428951E-01 1.224543168E-01 -4.507679415E-01
 5.902029578E-01 7.794470419E-02 -4.951300438E-01
 6.072649973E-01 1.131902647E-01 -4.356741376E-01
 3.647724617E-01 1.247761534E-01 -4.635803102E-01
 3.174361990E-01 1.379007185E-01 -4.295104557E-01
 1.008719606E+00 4.481697519E-02 1.310697549E-01
 2.271234878E-01 1.126556263E-01 -4.056570523E-01
 6.284543156E-02 7.870207857E-02 -1.586983335E-01
 9.490510893E-02 7.902701630E-02 -2.612855003E-01
 5.346973954E-02 5.473195975E-02 -1.703843530E-01
 8.293752576E-01 7.846861238E-02 -1.807849751E-01
 8.390999048E-01 4.528545098E-02 -1.760102472E-01
 1.380513016E-01 7.479452421E-02 -3.663665225E-01
 1.962411932E-01 1.013245731E-01 -3.954175454E-01
 9.535861741E-01 2.436585723E-02 5.214830845E-02
 9.685505075E-01 3.690043841E-02 8.699579970E-02
 2.586201725E-01 9.693466555E-02 -4.470105535E-01
 2.515061031E-01 7.857104794E-02 -4.693120747E-01
 1.463410299E+00 6.550759349E-01 -3.329820430E-02
 4.307854478E-01 1.151952767E-01 -4.987978591E-01
 3.360670935E-01 1.107204257E-01 -4.729894327E-01
 8.472356733E-01 3.397419828E-01 -1.472216684E-01
 8.014866260E-01 7.854943864E-02 -2.243142373E-01
 8.040150222E-01 4.862101096E-02 -2.305777026E-01
 7.778591376E-01 6.939250253E-02 -2.602557919E-01
 7.573174750E-01 7.054452074E-02 -2.878467409E-01
 7.378472343E-01 8.392373923E-02 -3.094321185E-01
 7.710054002E-01 9.666145718E-02 -2.585715657E-01
 7.096747441E-01 8.917059287E-02 -3.409400561E-01
 7.231098541E-01 6.950016474E-02 -3.347711650E-01
 5.506860598E-01 1.117481443E-01 -4.818564702E-01
 5.163776054E-01 1.179578930E-01 -4.872165735E-01
 1.430503231E-01 6.124883760E-02 -3.965293359E-01
 7.775333805E-01 5.347246547E-02 -2.663310450E-01
 4.963573881E-01 1.521160703E-01 -4.487486821E-01
 1.554551793E-01 8.619332338E-02 -3.715187453E-01
 1.315975649E-01 6.172334980E-02 -3.768649891E-01
 4.169884649E-01 8.272376701E-02 -5.356154367E-01
 4.131624761E-01 1.006482730E-01 -5.128882563E-01
 3.893941847E-01 9.838325705E-02 -5.042997216E-01
 6.938776996E-01 7.789391763E-02 -3.703035061E-01
 6.839738572E-01 1.026691870E-01 -3.641642539E-01
 4.315136007E-01 8.222161462E-02 -5.397539530E-01
 6.572225351E-01 9.254668053E-02 -4.081404929E-01
 6.313135993E-01 9.008488511E-02 -4.374331019E-01
 6.066784064E-01 8.530356855E-02 -4.713315584E-01
 1.253661088E+00 3.976031901E-01 -2.449557140E-02
 4.811954531E-01 1.125779636E-01 -4.984604673E-01
 4.519293241E-01 1.065085638E-01 -5.073747979E-01
 4.659720703E-01 9.045558968E-02 -5.306983945E-01
 9.383600952E-01 5.243008428E-01 -1.057634638E-01
 7.532275219E-01 5.655864947E-02 -3.024446886E-01
 1.584213168E+00 -8.505455389E-02 2.571721424E-02
 3.977966227E-01 -6.664499454E-02 -3.896338797E-01
 8.532985361E-01 6.331937054E-02 -1.477226830E-01
 8.927191853E-01 6.909183152E-02 -8.507251880E-02
 8.865644173E-01 3.516870470E-02 -9.471285448E-02
 8.735897974E-01 3.519415661E-02 -1.176091776E-01
 9.185342877E-01 5.221819356E-02 -2.938583462E-02
 9.011647822E-01 4.476053801E-02 -7.395409486E-02
 8.725387276E-01 5.123989764E-02 -1.199759702E-01
 8.293342694E-01 5.825430088E-02 -1.904635867E-01
 4.453181088E-01 -7.918677398E-02 -3.196266595E-01
 9.466615906E-01 4.343669703E-02 3.040454635E-02
 7.533343872E-02 5.863891472E-02 -2.549898600E-01
 5.786477127E-01 9.476534761E-02 -4.839188826E-01
 3.090585633E-01 1.067517698E-01 -4.650524282E-01
 3.471288588E-01 9.215257664E-02 -4.988367954E-01
 8.527024092E-01 -3.282036280E-02 2.402197537E-01
 8.721482731E-01 -3.349429712E-02 2.540177909E-01
 8.872865186E-01 -1.932660213E-02 2.789670287E-01
 8.987518820E-01 -3.991549377E-02 2.616001813E-01
 8.772638587E-01 -5.854544919E-02 2.312459764E-01
 9.282652321E-01 -4.446177495E-02 2.628461582E-01
 9.262221976E-01 -1.018651440E-02 3.053901647E-01
 9.181646779E-01 -2.413586781E-02 2.847001776E-01
 9.361522801E-01 -7.276230439E-03 3.108863328E-01
 9.386230788E-01 -2.110607850E-02 2.928710675E-01
 9.609886023E-01 -3.893248432E-02 2.691593940E-01
 9.463034643E-01 -7.308560521E-02 2.268511294E-01
 9.902766656E-01 -3.316433379E-02 2.695998813E-01
 1.028394110E+00 -3.925023294E-02 1.997813641E-01
 1.086190097E+00 -5.211218869E-02 1.247925406E-01
 1.227027445E+00 -1.273737544E-01 7.503727435E-02
 1.300139076E+00 -3.284057433E-01 5.750638794E-02
 9.858963133E-01 -1.713860401E-02 2.810928521E-01
 1.005716785E+00 -1.871910989E-02 2.524119792E-01
 1.023321000E+00 5.764888029E-03 1.602247683E-01
 8.935398894E-01 -1.017295772E-02 2.942746337E-01
 9.029012563E-01 -1.830667647E-02 2.884881724E-01
 1.409560338E+00 -1.120147880E-01 4.220255912E-02
 7.032026485E-01 -1.028664929E-01 6.054582045E-02
 3.170895875E-01 8.036043082E-02 -5.025221293E-01
 2.835636550E-01 9.903991396E-02 -4.608828150E-01
 6.014931565E-01 7.398769880E-02 -4.895620040E-01
 9.964261845E-02 5.902938181E-02 -3.218977427E-01