TITLE     = "Visualization of the solution"
VARIABLES = "x"
"y"
"Pressure_Coefficient"
ZONE T="Zone"
 STRANDID=0, SOLUTIONTIME=0
 Nodes=699, Elements=1183, ZONETYPE=FEQuadrilateral
 DATAPACKING=POINT
 DT=(DOUBLE DOUBLE DOUBLE )
 9.999408722E-01 5.321755889E-04 1.819483629E-01
 9.894990325E-01 2.431412460E-03 2.070092539E-01
 9.787782431E-01 4.490532447E-03 9.702074257E-02
 9.651340842E-01 6.987459958E-03 8.363403127E-02
 9.517724514E-01 9.428377263E-03 1.372917658E-02
 9.381034970E-01 1.191340666E-02 -1.835918973E-02
 9.272015095E-01 1.387237664E-02 -4.981279665E-02
 9.146798253E-01 1.602137834E-02 -8.001241590E-02
 9.036786556E-01 1.793296263E-02 -1.147651296E-01
 8.917053938E-01 1.987605542E-02 -1.382236742E-01
 8.793989420E-01 2.177486941E-02 -1.527711130E-01
 8.671017289E-01 2.355037443E-02 -1.660102592E-01
 8.540561795E-01 2.540531009E-02 -1.809439942E-01
 8.425824046E-01 2.694901638E-02 -1.846369691E-01
 8.304282427E-01 2.853239700E-02 -1.945290678E-01
 8.170183301E-01 3.027516417E-02 -2.063421494E-01
 8.035787940E-01 3.195691109E-02 -2.156457904E-01
 7.908975482E-01 3.349401057E-02 -2.273764166E-01
 7.782864571E-01 3.501717374E-02 -2.409171060E-01
 7.655237913E-01 3.650545329E-02 -2.498930014E-01
 7.515942454E-01 3.807129338E-02 -2.604352608E-01
 7.368533611E-01 3.970457986E-02 -2.741893602E-01
 7.257786393E-01 4.089323431E-02 -2.816477286E-01
 7.144662738E-01 4.206898808E-02 -2.924400229E-01
 7.026637793E-01 4.329238459E-02 -3.076447302E-01
 6.883997917E-01 4.469830170E-02 -3.158035906E-01
 6.745903492E-01 4.598490521E-02 -3.293727180E-01
 6.651522517E-01 4.687068239E-02 -3.376669586E-01
 6.534053683E-01 4.788510129E-02 -3.483090634E-01
 6.418260336E-01 4.888477549E-02 -3.564318215E-01
 6.295500994E-01 4.984859750E-02 -3.649819681E-01
 6.186092496E-01 5.071046576E-02 -3.811034283E-01
 6.073092818E-01 5.153245851E-02 -3.871106108E-01
 5.939300656E-01 5.242488533E-02 -3.949918274E-01
 5.820561051E-01 5.316314846E-02 -4.013178924E-01
 5.684942007E-01 5.393623561E-02 -4.085416586E-01
 5.560007691E-01 5.458882079E-02 -4.153619230E-01
 5.438954234E-01 5.515520275E-02 -4.222432530E-01
 5.332822800E-01 5.560372397E-02 -4.268246384E-01
 5.218044519E-01 5.602636933E-02 -4.308510759E-01
 5.088358521E-01 5.643715709E-02 -4.308463025E-01
 4.973504245E-01 5.671478435E-02 -4.328681328E-01
 4.842091501E-01 5.700901151E-02 -4.350814182E-01
 4.707598388E-01 5.719552189E-02 -4.331632517E-01
 4.561137557E-01 5.733561516E-02 -4.323023801E-01
 4.424245656E-01 5.736637861E-02 -4.315394558E-01
 4.294933379E-01 5.734193698E-02 -4.304462722E-01
 4.166165292E-01 5.724045262E-02 -4.255216696E-01
 4.044109285E-01 5.708217993E-02 -4.247622823E-01
 3.927850425E-01 5.689056590E-02 -4.209835928E-01
 3.804332912E-01 5.660649762E-02 -4.176273830E-01
 3.696363866E-01 5.632200465E-02 -4.131034335E-01
 3.568058610E-01 5.591744184E-02 -4.088912846E-01
 3.448833227E-01 5.549903959E-02 -4.063697896E-01
 3.322923481E-01 5.498949438E-02 -4.016448772E-01
 3.213119805E-01 5.449287221E-02 -3.955409059E-01
 3.088146150E-01 5.387113616E-02 -3.907712479E-01
 2.953641713E-01 5.315097794E-02 -3.863195797E-01
 2.812745571E-01 5.230683833E-02 -3.779477136E-01
 2.682600319E-01 5.146046355E-02 -3.740443533E-01
 2.560537159E-01 5.061490834E-02 -3.673880846E-01
 2.433833927E-01 4.966432601E-02 -3.627004174E-01
 2.305993736E-01 4.864985496E-02 -3.556302131E-01
 2.181788236E-01 4.758402705E-02 -3.483776299E-01
 2.066613883E-01 4.655500501E-02 -3.442200448E-01
 1.955285370E-01 4.549242556E-02 -3.364124247E-01
 1.830876321E-01 4.423735663E-02 -3.294197270E-01
 1.710602641E-01 4.295315593E-02 -3.239053450E-01
 1.598776430E-01 4.169704393E-02 -3.162602442E-01
 1.476998031E-01 4.024723917E-02 -3.116527467E-01
 1.371698976E-01 3.893140703E-02 -3.040476160E-01
 1.255853325E-01 3.739058226E-02 -2.963565238E-01
 1.138737276E-01 3.574500978E-02 -2.895768748E-01
 1.031598747E-01 3.414541110E-02 -2.879898877E-01
 9.328071773E-02 3.258418664E-02 -2.793714749E-01
 8.186461031E-02 3.065370955E-02 -2.695391117E-01
 6.956663728E-02 2.840805985E-02 -2.653021601E-01
 5.970610306E-02 2.644901723E-02 -2.577103492E-01
 4.957308248E-02 2.425044030E-02 -2.496804166E-01
 4.098961875E-02 2.221013419E-02 -2.436763641E-01
 3.373838589E-02 2.030957304E-02 -2.047803143E-01
 2.745114639E-02 1.848522387E-02 -2.044831640E-01
 2.206749283E-02 1.676454395E-02 -1.959623567E-01
 1.826884411E-02 1.541580167E-02 -1.643698852E-01
 1.473189518E-02 1.403867267E-02 -1.606136973E-01
 1.218418404E-02 1.295401808E-02 -1.411595764E-01
 9.872227907E-03 1.187430508E-02 -8.044609855E-02
 8.158836514E-03 1.099568419E-02 -8.401715007E-02
 6.649623625E-03 1.015688200E-02 -8.125828971E-03
 5.273997318E-03 9.327029809E-03 -5.059122934E-02
 3.423751099E-03 8.059742860E-03 3.496117174E-01
 1.778439037E-03 6.716649514E-03 1.251106184E-01
 3.605632810E-04 5.263324827E-03 7.055474487E-01
 -9.365226142E-04 3.348422237E-03 5.278954088E-01
 -1.504150452E-03 1.844852814E-03 6.636637481E-01
 -1.670911908E-03 6.793767679E-04 5.242859037E-01
 -1.577716903E-03 -6.011704681E-04 3.717756007E-01
 -1.164213289E-03 -1.945503522E-03 3.499534070E-01
 -2.830558515E-04 -3.483416513E-03 2.020314994E-01
 1.071447856E-03 -5.057149567E-03 2.041443131E-01
 3.021242330E-03 -6.707322784E-03 1.441666511E-01
 4.740782082E-03 -7.878701203E-03 9.874781898E-02
 6.753881462E-03 -9.045752697E-03 4.690478734E-02
 8.275672793E-03 -9.831756353E-03 2.656926604E-02
 1.026501227E-02 -1.075951196E-02 -1.047547094E-03
 1.260580402E-02 -1.174882054E-02 -2.161793121E-02
 1.582408696E-02 -1.296254806E-02 -3.296474025E-02
 1.878623851E-02 -1.397031173E-02 -7.591558983E-02
 2.263158932E-02 -1.516203117E-02 -6.980079809E-02
 2.808377147E-02 -1.666815765E-02 -7.331742183E-02
 3.392958269E-02 -1.811937615E-02 -9.392260922E-02
 4.164977744E-02 -1.983093657E-02 -1.290204848E-01
 4.930874333E-02 -2.135729976E-02 -1.308682252E-01
 5.853865296E-02 -2.303680405E-02 -1.299293689E-01
 6.743771583E-02 -2.451052144E-02 -1.456490421E-01
 7.767676562E-02 -2.608595416E-02 -1.598445029E-01
 8.794504404E-02 -2.755130082E-02 -1.610525042E-01
 9.825050086E-02 -2.892538719E-02 -1.725855824E-01
 1.090008840E-01 -3.026752546E-02 -1.803040489E-01
 1.206249595E-01 -3.163662180E-02 -1.837287387E-01
 1.321697384E-01 -3.291244060E-02 -1.917918544E-01
 1.431372464E-01 -3.406169266E-02 -1.985400280E-01
 1.542854160E-01 -3.516902775E-02 -2.090499476E-01
 1.666202396E-01 -3.632187471E-02 -2.126225871E-01
 1.785470247E-01 -3.736801445E-02 -2.217202613E-01
 1.907487959E-01 -3.837450221E-02 -2.293796937E-01
 2.015133500E-01 -3.921252489E-02 -2.363992079E-01
 2.129939497E-01 -4.005172849E-02 -2.495823340E-01
 2.255748212E-01 -4.090677202E-02 -2.514161009E-01
 2.388320267E-01 -4.173114523E-02 -2.647084054E-01
 2.517712712E-01 -4.246189445E-02 -2.698118339E-01
 2.650441825E-01 -4.314385727E-02 -2.803713125E-01
 2.762738168E-01 -4.363946617E-02 -2.882470264E-01
 2.895115316E-01 -4.415009543E-02 -2.954298494E-01
 3.025735319E-01 -4.457212985E-02 -3.032061707E-01
 3.152261078E-01 -4.488298669E-02 -3.102917496E-01
 3.269835413E-01 -4.509978741E-02 -3.152689152E-01
 3.392612636E-01 -4.523115605E-02 -3.201093745E-01
 3.501361012E-01 -4.527178779E-02 -3.253029489E-01
 3.610985875E-01 -4.521336034E-02 -3.246604130E-01
 3.717975318E-01 -4.509156942E-02 -3.237834893E-01
 3.821699917E-01 -4.489718005E-02 -3.262407882E-01
 3.931502104E-01 -4.459372535E-02 -3.202410099E-01
 4.055311978E-01 -4.413835332E-02 -3.153707349E-01
 4.176614583E-01 -4.360163584E-02 -3.065664939E-01
 4.302549660E-01 -4.288614914E-02 -2.949944605E-01
 4.426646531E-01 -4.208777100E-02 -2.810168660E-01
 4.544790387E-01 -4.122050479E-02 -2.677766053E-01
 4.661157131E-01 -4.025282338E-02 -2.470528142E-01
 4.780968130E-01 -3.917926922E-02 -2.285270847E-01
 4.887827635E-01 -3.815969080E-02 -2.086703885E-01
 5.010655522E-01 -3.691945970E-02 -1.914815562E-01
 5.144224763E-01 -3.547617048E-02 -1.651345629E-01
 5.280845761E-01 -3.394224867E-02 -1.425882697E-01
 5.417311788E-01 -3.233071417E-02 -1.160493951E-01
 5.544813871E-01 -3.077529371E-02 -9.266381092E-02
 5.670717955E-01 -2.925312705E-02 -7.046982806E-02
 5.797932744E-01 -2.767289430E-02 -5.181630598E-02
 5.908479691E-01 -2.629850246E-02 -3.149977727E-02
 6.026694179E-01 -2.483890392E-02 -1.721736818E-02
 6.163166761E-01 -2.314034291E-02 6.217330892E-04
 6.307449937E-01 -2.134710923E-02 2.020083651E-02
 6.449185610E-01 -1.958738640E-02 4.002413587E-02
 6.581149101E-01 -1.799382642E-02 5.589756866E-02
 6.713175774E-01 -1.638864726E-02 6.909058240E-02
 6.836718321E-01 -1.492467243E-02 8.857494855E-02
 6.961323023E-01 -1.347895060E-02 9.817072977E-02
 7.100462317E-01 -1.186928246E-02 1.137304044E-01
 7.229054570E-01 -1.044504531E-02 1.296639815E-01
 7.352062464E-01 -9.148068726E-03 1.403240706E-01
 7.472326159E-01 -7.862021215E-03 1.507514880E-01
 7.594161034E-01 -6.626587827E-03 1.630923324E-01
 7.716221213E-01 -5.412545521E-03 1.746257498E-01
 7.829344273E-01 -4.337517079E-03 1.857243301E-01
 7.957295179E-01 -3.197805490E-03 1.961212448E-01
 8.065794706E-01 -2.249903744E-03 2.058651577E-01
 8.189743161E-01 -1.287140651E-03 2.165881162E-01
 8.315657377E-01 -3.388866025E-04 2.237608160E-01
 8.438968658E-01 4.913743469E-04 2.345745457E-01
 8.559265137E-01 1.205264358E-03 2.427657874E-01
 8.688977957E-01 1.852453453E-03 2.501500226E-01
 8.820348978E-01 2.377497731E-03 2.547344889E-01
 8.961414099E-01 2.778796013E-03 2.579311657E-01
 9.064407945E-01 2.966396045E-03 2.606896584E-01
 9.168181419E-01 3.059128532E-03 2.602965637E-01
 9.258147478E-01 3.059131093E-03 2.576592608E-01
 9.344817996E-01 2.998149954E-03 2.542483881E-01
 9.466140270E-01 2.798457397E-03 2.508324593E-01
 9.594940543E-01 2.459307667E-03 2.413277389E-01
 9.754505157E-01 1.876511262E-03 2.374032837E-01
 9.889048934E-01 1.224266714E-03 2.217827191E-01
 -5.000000000E-01 -1.000000000E+00 2.552276068E-02
 3.500000000E+00 -1.000000000E+00 1.300230768E-02
 3.500000000E+00 1.000000000E+00 -6.902665828E-04
 -5.000000000E-01 1.000000000E+00 -5.714402789E-03
 -5.000000000E-01 5.000000000E-01 2.977384004E-02
 -5.000000000E-01 2.752797990E-12 7.582022529E-02
 -5.000000000E-01 -5.000000000E-01 5.310132200E-02
 -9.421907698E-13 -1.000000000E+00 1.758533378E-02
 5.000000000E-01 -1.000000000E+00 1.281743489E-02
 1.000000000E+00 -1.000000000E+00 2.179923617E-02
 1.500000000E+00 -1.000000000E+00 2.966118531E-02
 2.000000000E+00 -1.000000000E+00 2.402803132E-02
 2.500000000E+00 -1.000000000E+00 1.672105483E-02
 3.000000000E+00 -1.000000000E+00 1.321637778E-02
 3.500000000E+00 -5.000000000E-01 1.340565216E-02
 3.500000000E+00 -2.752797990E-12 1.074837403E-02
 3.500000000E+00 5.000000000E-01 3.874698733E-03
 3.000000000E+00 1.000000000E+00 -3.786377410E-03
 2.500000000E+00 1.000000000E+00 -1.032621523E-02
 2.000000000E+00 1.000000000E+00 -2.353759340E-02
 1.500000000E+00 1.000000000E+00 -5.143355019E-02
 1.000000000E+00 1.000000000E+00 -8.915959764E-02
 5.000000000E-01 1.000000000E+00 -8.536194332E-02
 1.733724275E-12 1.000000000E+00 -2.903628058E-02
 6.918594632E-01 -2.602175502E-02 9.051463315E-02
 8.010818130E-01 -1.460064256E-02 1.955179258E-01
 9.105901619E-01 -6.871068294E-03 2.490600445E-01
 5.992250208E-01 -3.459888530E-02 -2.499496383E-02
 5.089432606E-01 -4.729624352E-02 -1.701789732E-01
 7.105390483E-01 5.465839071E-02 -2.914443804E-01
 7.985656222E-01 4.367708346E-02 -2.159621048E-01
 8.862084580E-01 3.295701009E-02 -1.356676137E-01
 2.815473171E-01 -5.348787713E-02 -2.838515519E-01
 2.729643471E-01 6.155806230E-02 -3.671481693E-01
 6.146727584E-01 6.275956059E-02 -3.699137049E-01
 3.782722139E-01 -5.453777031E-02 -3.102047111E-01
 4.359378289E-01 6.852952853E-02 -4.183143739E-01
 1.838451889E+00 -5.948506291E-01 2.508863725E-02
 1.735955735E+00 6.397614238E-01 -1.884357286E-02
 3.031180083E+00 2.156817875E-01 5.724533680E-03
 7.500000000E-01 -5.669872981E-01 2.150009683E-02
 7.817750548E-01 6.351590613E-01 -1.159642953E-01
 5.149689760E-01 7.076083422E-02 -4.145810130E-01
 2.734837747E+00 -5.327020694E-01 1.213595428E-02
 1.180677232E+00 6.298217282E-01 -5.962083202E-02
 9.582602397E-01 3.240709265E-01 -7.499114645E-02
 9.455766255E-01 2.322886645E-02 -3.817940108E-03
 1.270043595E+00 -6.224164838E-01 3.926828649E-02
 1.504722294E+00 -2.679125895E-01 3.235384022E-02
 3.676356200E-01 6.151127864E-01 -1.263141953E-01
 1.071846332E-01 4.386785537E-02 -2.712337432E-01
 1.721599784E-01 5.307965378E-02 -3.117287175E-01
 3.492131214E-01 6.460276007E-02 -3.980421453E-01
 2.500000000E-01 -5.669872981E-01 -1.591711693E-02
 6.749539379E-02 -3.604754288E-02 -1.178421185E-01
 1.261149587E-01 -4.334471966E-02 -1.781560821E-01
 1.841545353E-01 -4.813290629E-02 -2.192746238E-01
 2.249277530E+00 -5.878812856E-01 1.543814384E-02
 1.990504493E+00 -2.092675421E-01 1.360621746E-02
 2.414531911E+00 -1.860282280E-01 8.487044677E-03
 2.184587833E+00 1.581428424E-01 2.712360686E-03
 1.810009880E+00 1.326746310E-01 4.785219272E-03
 -2.137105156E-01 -2.666778154E-01 8.128019974E-02
 -1.552415226E-01 -6.175274507E-01 2.506126439E-02
 -2.524218018E-01 2.500000000E-01 5.526622651E-02
 -1.530759460E-01 6.950239332E-01 -1.915734786E-02
 5.049740701E-02 3.183744191E-01 -6.376061889E-02
 4.222710824E-02 3.122298038E-02 -1.915601421E-01
 2.206587864E+00 5.835737672E-01 -6.457613069E-03
 2.740598286E+00 6.009132266E-01 -2.918278246E-04
 -2.508338545E-01 -8.350089307E-04 1.300240387E-01
 -1.269433694E-01 -1.259809598E-01 1.478559554E-01
 2.368790514E-02 -3.872317303E-01 1.805822768E-02
 2.788158144E-01 -2.968640757E-01 -8.196554724E-02
 4.367647282E-01 -5.221976559E-02 -2.760907846E-01
 -1.366104088E-01 1.017129947E-01 1.404824115E-01
 -1.262443944E-01 -1.392214420E-03 1.888217061E-01
 -5.465264230E-02 -6.553804139E-02 2.241424494E-01
 3.024034038E-02 -2.239347400E-02 -6.598730763E-02
 4.094333470E-02 -2.901377213E-02 -7.068795919E-02
 -2.665204486E-02 -1.428163108E-01 1.121302936E-01
 7.026017432E-03 -9.280926605E-02 8.902744687E-02
 4.976220514E-02 -1.662735925E-01 1.936205123E-03
 7.763604970E-02 -1.089031115E-01 -6.595507970E-02
 1.265669517E-01 -1.582995502E-01 -8.721650264E-02
 2.318540394E-01 -5.594689082E-02 -2.445013673E-01
 -1.028366287E-02 -5.073003835E-02 1.499545457E-01
 1.340336352E-02 -1.520009924E-02 -2.036581839E-03
 -3.224214094E-02 -5.108459719E-04 5.230358039E-01
 1.302301654E-01 -9.976930644E-02 -1.287972020E-01
 1.894721157E-01 -1.304246648E-01 -1.536269349E-01
 1.873560431E-01 -2.274968457E-01 -8.874796462E-02
 2.536550429E-01 -1.812174154E-01 -1.541124236E-01
 3.321600332E-01 -5.698652488E-02 -3.024706236E-01
 3.096391942E-01 -5.654221194E-02 -2.935360896E-01
 3.659885553E-01 -2.484425413E-01 -1.158979100E-01
 4.056113854E-01 -3.536475792E-01 -5.754478135E-02
 5.099878818E-01 -2.608451334E-01 -6.622854953E-02
 3.574178101E-01 -1.353266541E-01 -2.091224218E-01
 4.536633662E-01 -1.571317134E-01 -1.501639440E-01
 4.719187577E-01 -5.029297258E-02 -2.308736904E-01
 5.644622400E-01 -1.752711683E-01 -5.141312064E-02
 5.487910435E-01 -4.938453080E-02 -9.733279646E-02
 6.071015541E-01 -2.611418406E-01 -1.493403138E-02
 6.595494392E-01 -1.750682122E-01 2.009503899E-02
 7.559540321E-01 -2.057823434E-02 1.543528290E-01
 7.790347315E-01 -1.762375120E-02 1.748743121E-01
 7.317025664E-01 -2.515832337E-02 1.266404370E-01
 6.393029152E-01 -3.231642745E-02 2.625184731E-02
 7.136672275E-01 -2.595525711E-01 3.806806033E-02
 7.471361091E-01 -1.721839690E-01 8.491978262E-02
 8.645397808E-01 -1.143572519E-02 2.360706216E-01
 8.381151724E-01 -1.461608648E-02 2.213757764E-01
 8.293215123E-01 -2.703738602E-01 7.618121296E-02
 9.138557067E-01 -1.834081574E-01 1.232124024E-01
 9.851507005E-01 -9.828966201E-03 2.126150284E-01
 9.527688839E-01 -8.200632531E-03 2.359324901E-01
 9.490058614E-01 -2.770068175E-01 8.676710803E-02
 1.011955871E+00 -1.713818846E-01 1.178492614E-01
 8.339298536E-01 -1.014351042E-01 1.550144413E-01
 7.284067032E-01 -1.059380951E-01 9.606398459E-02
 9.562084789E-01 -1.042046057E-01 1.513794712E-01
 1.048397952E+00 -8.597796384E-02 1.280540797E-01
 1.105003233E+00 -1.653640943E-01 8.919591731E-02
 1.137907083E+00 -6.351522453E-02 7.325611930E-02
 1.194890776E+00 -1.498791449E-01 6.487643837E-02
 1.241844668E+00 -2.745957660E-02 4.381036889E-02
 1.153229659E+00 3.924536019E-02 5.400396903E-02
 1.271275603E+00 1.080063956E-01 2.126486884E-02
 1.076613607E+00 -8.310876947E-03 7.757590986E-02
 1.057995305E+00 7.830669921E-02 6.841247676E-02
 1.141351656E+00 1.615058780E-01 1.649560455E-02
 1.401923490E+00 -4.696970098E-02 2.117220317E-02
 6.054372292E-01 -1.187387671E-01 -2.048055358E-02
 1.259530196E+00 2.681751831E-01 -1.904875507E-04
 1.166915989E+00 -2.754525765E-01 6.620787714E-02
 5.540050971E-01 -1.105730956E-01 -7.454752371E-02
 2.469210399E-01 -1.168298305E-01 -1.982041545E-01
 9.963680041E-01 -6.164492203E-02 1.668977991E-01
 5.837361136E-01 -7.670055004E-02 -4.567326134E-02
 5.738357883E-01 -4.092765554E-02 -6.080786895E-02
 6.271186181E-01 -7.329776193E-02 5.923530588E-03
 5.349435146E-01 -3.614350050E-01 -3.358189361E-02
 6.554270015E-01 -1.096109642E-01 2.960885075E-02
 6.684789609E-01 -6.509939500E-02 5.184907312E-02
 6.664190122E-01 -3.498166353E-02 6.152906008E-02
 7.081772570E-01 -6.430253579E-02 9.410006763E-02
 7.518067431E-01 -6.378079818E-02 1.284120185E-01
 1.469695433E+00 1.871265943E-01 5.716894811E-03
 1.405202086E+00 4.642299817E-01 -1.848234304E-02
 9.685618226E-01 -1.126710402E-02 2.315246024E-01
 9.585554694E-01 -2.371258329E-02 2.238635443E-01
 9.394787048E-01 -5.645345844E-03 2.456494753E-01
 9.464934587E-02 -2.566174598E-01 -2.882948517E-02
 2.084848703E-01 -9.264067049E-02 -1.962976721E-01
 2.051371286E-01 -5.283595559E-02 -2.295539495E-01
 9.297388765E-01 -6.482535516E-03 2.484405439E-01
 9.376087734E-01 -1.999244149E-02 2.287246677E-01
 9.436519339E-01 -4.062613504E-02 2.011272758E-01
 9.183735913E-01 -4.017756291E-02 2.197376838E-01
 8.887226147E-01 -8.573043848E-03 2.460148591E-01
 3.109354853E+00 -2.612842334E-01 1.089716584E-02
 2.043886252E-02 -5.886601211E-02 8.092599346E-02
 5.505966511E-02 -6.797070942E-02 -2.579782671E-02
 9.362657459E-02 -7.209861382E-02 -1.202680135E-01
 9.531815098E-02 -3.881893632E-02 -1.559032452E-01
 5.334798657E-01 -5.028394038E-01 -2.232789682E-02
 1.022592341E+00 1.906623392E-01 -2.321535868E-02
 9.657697226E-01 1.167266495E-01 -1.825311595E-02
 9.197139005E-01 1.939496073E-01 -7.958267226E-02
 8.922383635E-01 1.106775259E-01 -1.030210998E-01
 8.385128530E-01 1.707817422E-01 -1.428701678E-01
 8.386952089E-01 4.008511382E-02 -1.829198611E-01
 8.612615319E-01 3.635908223E-02 -1.626704858E-01
 8.451845958E-01 2.519419262E-01 -1.389315605E-01
 7.604069632E-01 2.142825688E-01 -1.883380510E-01
 6.589484474E-01 5.921517204E-02 -3.355954169E-01
 7.334223305E-01 1.405652761E-01 -2.325395570E-01
 6.698114254E-01 1.832049308E-01 -2.536164819E-01
 5.617970324E-01 6.914599417E-02 -3.975598495E-01
 5.892944079E-01 6.415043357E-02 -3.862416275E-01
 5.386718486E-01 6.855908853E-02 -4.099568590E-01
 7.598585721E-01 4.884906448E-02 -2.471824380E-01
 6.667351658E-01 2.620871671E-01 -2.244995115E-01
 5.725155148E-01 2.267691006E-01 -2.677051714E-01
 5.710651553E-01 3.424223842E-01 -2.093403048E-01
 4.607103212E-01 2.804096263E-01 -2.499769974E-01
 4.751982401E-01 1.799891117E-01 -3.195781736E-01
 3.756587311E-01 2.072827713E-01 -2.844059607E-01
 4.741356803E-01 7.410648956E-02 -4.150917854E-01
 3.507923731E-01 2.998733346E-01 -2.224396089E-01
 2.588607935E-01 2.313787617E-01 -2.284272632E-01
 2.227295455E-01 5.873994540E-02 -3.415550405E-01
 5.479018482E-01 1.522148130E-01 -3.304907915E-01
 3.045857731E-01 1.524193489E-01 -2.988314806E-01
 3.153706223E-01 6.684923092E-02 -3.822140606E-01
 2.100482268E-01 1.613868643E-01 -2.425293126E-01
 6.848018465E-01 1.222286390E-01 -2.745880075E-01
 3.644379163E-01 1.389266412E-01 -3.390444643E-01
 3.996212352E-01 7.014400261E-02 -4.101271591E-01
 3.771093491E-01 6.712081417E-02 -4.062643901E-01
 8.353981225E-01 1.039379587E-01 -1.586880093E-01
 2.309330999E-01 3.657487686E-01 -1.548161052E-01
 5.033258781E-01 1.217213259E-01 -3.653337791E-01
 4.471001057E-01 1.236706279E-01 -3.645756133E-01
 2.538164717E-01 1.174225488E-01 -3.070076143E-01
 9.323375373E-01 6.734530110E-02 -4.392534442E-02
 9.126016026E-01 2.842537108E-02 -8.314488873E-02
 9.846493613E-01 5.821135344E-02 4.350305628E-02
 9.878424622E-01 1.372794400E-02 2.100149105E-01
 7.222651668E-01 9.678922613E-02 -2.623027857E-01
 7.318411352E-01 5.232560651E-02 -2.724295986E-01
 7.624212723E-01 9.501753363E-02 -2.277124966E-01
 3.283737461E-01 1.049311812E-01 -3.546511628E-01
 2.910013222E-01 9.958234068E-02 -3.416850505E-01
 6.884009439E-01 8.207489853E-02 -2.960338658E-01
 6.526793190E-01 9.412128570E-02 -3.157767759E-01
 6.357537390E-01 6.128949785E-02 -3.528336119E-01
 6.818737939E-01 5.916646917E-02 -3.145418581E-01
 5.478990515E-01 1.087394867E-01 -3.660198700E-01
 5.889727798E-01 1.195842910E-01 -3.370491493E-01
 1.532159843E-01 2.244523704E-01 -1.586303235E-01
 1.126627673E-01 1.527905497E-01 -1.539758047E-01
 1.444344731E-01 4.875202957E-02 -2.964289159E-01
 1.617601795E-01 1.143538236E-01 -2.386431921E-01
 4.337429981E-01 4.101929883E-01 -1.960777368E-01
 8.632374885E-01 7.282979333E-02 -1.444574549E-01
 8.935609978E-01 6.786196247E-02 -1.047686341E-01
 7.638346830E-01 3.547841845E-01 -1.538488019E-01
 6.035223977E-01 1.644545066E-01 -2.996004841E-01
 1.022651892E+00 4.124565371E-02 1.282905000E-01
 7.466456802E-01 5.243253098E-02 -2.600284164E-01
 7.401221383E-01 6.485454276E-02 -2.604449019E-01
 -2.199682720E-02 -2.009979127E-02 3.714183598E-01
 1.037653243E+00 8.112875078E-03 1.058411330E-01
 1.025278160E+00 -2.647211960E-02 1.220251502E-01
 6.964374449E-01 5.689870902E-02 -3.033516721E-01
 7.057067641E-01 6.834218201E-02 -2.858910882E-01
 -3.320107895E-02 -2.242663114E-01 6.311958275E-02
 8.998202509E-01 -6.077665659E-03 2.508137007E-01
 9.017528943E-01 -2.051276057E-02 2.382727918E-01
 8.780173884E-01 -2.324660632E-02 2.291785077E-01
 8.579545573E-01 -2.980776879E-02 2.168226060E-01
 8.325822485E-01 -3.321123112E-02 2.008721909E-01
 8.702449856E-01 -5.208290736E-02 1.997057258E-01
 8.219428212E-01 -2.251877367E-02 2.014988336E-01
 8.131140938E-01 -4.030151725E-02 1.845091796E-01
 7.937554359E-01 -2.920095621E-02 1.790886228E-01
 7.699846694E-01 -3.506313037E-02 1.548974334E-01
 7.463056501E-01 -3.451343198E-02 1.400302161E-01
 7.935699033E-01 -5.890865857E-02 1.628144392E-01
 7.814103366E-01 -1.105244822E-01 1.228430700E-01
 7.256766270E-01 -4.249640566E-02 1.162947506E-01
 7.152615248E-01 -2.724811642E-02 1.170843767E-01
 3.623163024E-01 1.001657011E-01 -3.699451748E-01
 4.029046030E-01 1.122503467E-01 -3.693469996E-01
 4.130599192E-01 1.524238998E-01 -3.346837313E-01
 6.115934820E-01 -3.539081622E-02 -4.124507243E-03
 6.023494608E-01 -5.118149511E-02 -1.795190743E-02
 6.254715581E-01 -4.886115377E-02 9.214064313E-03
 6.246859250E-01 -3.221116991E-02 1.062235995E-02
 3.369719714E-01 6.725096061E-02 -3.923603775E-01
 3.442699705E-01 8.094492637E-02 -3.804257520E-01
 8.820745674E-01 -4.426388877E-01 5.400999586E-02
 1.067725877E+00 -4.205773766E-01 5.558061249E-02
 9.613830914E-01 2.113501533E-02 5.122387529E-02
 9.557156454E-01 4.048065465E-02 9.589800338E-03
 9.305344310E-01 3.671597222E-02 -4.247463112E-02
 9.777796424E-01 3.179003410E-02 6.350022568E-02
 1.116276913E-01 -4.198997829E-02 -1.668378898E-01
 1.191194354E-01 -5.914605852E-02 -1.519415637E-01
 1.488481273E-01 -4.606128164E-02 -1.929099459E-01
 1.419213253E-01 -7.290485753E-02 -1.736577495E-01
 1.584079713E-01 -6.100655103E-02 -1.837691272E-01
 1.720557065E-01 -4.972741825E-02 -2.084694091E-01
 1.883562522E-01 -6.395511012E-02 -2.061698452E-01
 1.694787833E-01 -8.678352673E-02 -1.698472101E-01
 9.239098782E-01 2.367756459E-02 -5.644814419E-02
 9.738344905E-01 1.600288671E-02 7.930053991E-02
 1.001752912E+00 2.560333932E-02 1.297136034E-01
 9.330651883E-01 2.188163731E-02 -3.346312805E-02
 2.881114127E-01 6.991548908E-02 -3.657855395E-01
 -3.907880483E-03 -3.113463104E-02 2.265025590E-01
 6.817375426E-03 -1.142113407E-02 8.014997277E-02
 6.677838100E-01 7.113840943E-02 -3.202479475E-01
 3.032207039E-01 6.477674669E-02 -3.782828692E-01
 3.086519269E-01 8.146941696E-02 -3.653722740E-01
 3.636194146E-01 7.354339106E-02 -3.953128650E-01
 3.263302835E-01 6.517451675E-02 -3.893781687E-01
 9.999743700E-01 -2.174377249E-02 2.026805372E-01
 9.795777993E-01 -3.162658516E-02 1.967955209E-01
 6.466703251E-01 5.843456982E-02 -3.459943753E-01
 5.881314254E-01 -3.885182573E-02 -3.903902412E-02
 8.136107473E-01 -1.179009732E-02 2.036924383E-01
 5.498906133E-01 -7.449719500E-02 -9.322127693E-02
 5.152173070E-01 -9.041538532E-02 -1.365314989E-01
 5.099201696E-01 -1.355429418E-01 -1.159392305E-01
 4.677700757E-01 -1.067790899E-01 -1.827294257E-01
 4.101777995E-01 -1.203608057E-01 -2.075135683E-01
 4.319086895E-01 -8.880977147E-02 -2.355088493E-01
 4.132838155E-01 -5.321643659E-02 -2.958347581E-01
 4.029440826E-01 -8.425462944E-02 -2.568048226E-01
 4.820489918E-01 -7.913882654E-02 -1.863753117E-01
 4.573881120E-01 -7.689941406E-02 -2.190535560E-01
 4.890358370E-01 -6.183702955E-02 -1.883537665E-01
 4.006903333E-01 -6.061891705E-02 -2.938674758E-01
 6.521733583E-01 -3.039297951E-02 4.736516542E-02
 4.771786279E-01 9.893967165E-02 -3.899821535E-01
 2.614246016E-01 6.160866568E-02 -3.605730292E-01
 2.686966109E-01 8.091168665E-02 -3.467112143E-01
 2.430555467E-01 7.925859067E-02 -3.318810202E-01
 2.104822331E-01 1.065982395E-01 -2.875984739E-01
 1.852106758E-01 8.783189336E-02 -2.844403193E-01
 2.022560432E-01 5.674554258E-02 -3.302850524E-01
 1.559633861E-01 8.120742899E-02 -2.699861909E-01
 1.566948539E-01 5.990312641E-02 -2.930973921E-01
 1.886511170E-01 6.277538361E-02 -3.137384984E-01
 8.728253525E-01 3.278638838E-02 -1.512757885E-01
 8.742434115E-01 4.856448218E-02 -1.389286746E-01
 8.532842139E-01 4.875202619E-02 -1.639826357E-01
 8.329692065E-01 6.046405689E-02 -1.778452555E-01
 8.042551018E-01 7.749578136E-02 -1.980214782E-01
 8.265368205E-01 4.298582796E-02 -1.912305445E-01
 5.356925137E-01 -4.479536735E-02 -1.254214421E-01
 5.658218547E-01 -5.702991705E-02 -7.288985303E-02
 5.827370391E-01 -5.243152168E-02 -5.080079542E-02
 4.256629457E-01 -5.542930109E-02 -2.812313001E-01
 1.600434921E-01 -4.565723067E-02 -2.042393112E-01
 4.185952065E-01 -6.892428502E-02 -2.682653220E-01
 7.672023316E-01 -1.706084985E-02 1.656937506E-01
 8.520865780E-01 -1.083258835E-02 2.339051589E-01
 8.762910663E-01 -8.160212769E-03 2.433702018E-01
 1.307324299E+00 -2.164486031E-01 5.302959534E-02
 1.294599147E-01 4.859228181E-02 -2.842302345E-01
 1.377762213E-01 6.440886554E-02 -2.723586661E-01
 1.222750256E-01 9.060368890E-02 -2.136214181E-01
 7.230944254E-02 3.981027479E-02 -2.282659410E-01
 7.128281444E-02 1.156733893E-01 -1.247450392E-01
 6.143943139E-02 1.864816791E-01 -6.610742530E-02
 8.786750863E-02 7.521987135E-02 -2.108878492E-01
 4.248163372E-02 7.383999023E-02 -5.885220981E-02
 1.584143140E-02 1.996792697E-02 -1.287492461E-01
 1.148466552E-01 6.057622706E-02 -2.504389814E-01
 8.577143220E-02 4.227074813E-02 -2.475163151E-01
 2.433037724E-02 1.273574511E-01 -5.088314028E-02
 -2.778018612E-02 6.149055230E-02 2.426840119E-01
 -4.526030737E-02 1.953108257E-01 3.939166180E-02
 1.199037703E-02 2.754718962E-02 1.229458597E-01
 2.900163720E-02 2.483445798E-02 -1.985465101E-01
 7.444361515E-02 5.600406068E-02 -2.163554663E-01
 5.681697690E-02 4.874178262E-02 -1.664679083E-01
 3.936235020E-02 4.052654789E-02 -2.499463311E-01
 6.799995451E-01 -2.665272841E-02 7.762485714E-02
 6.860903487E-01 -4.245912778E-02 7.851429189E-02
 8.135731143E-01 5.557240793E-02 -2.020452088E-01
 7.820804959E-01 6.144616128E-02 -2.257641722E-01
 7.565836640E-01 6.828587770E-02 -2.426356555E-01
 7.846033585E-01 4.407711321E-02 -2.294257123E-01
 1.364777287E-01 -5.522192644E-02 -1.720728639E-01
 4.583960187E-01 -5.737815789E-02 -2.411479082E-01
 8.499759078E-01 3.551010974E-02 -1.763597478E-01
 7.740705350E-01 4.517899320E-02 -2.390167138E-01
 7.432802222E-01 -1.945201593E-02 1.409658494E-01
 5.620003738E-01 -4.147410483E-02 -7.899933412E-02
 7.210548606E-01 5.159992075E-02 -2.821414865E-01
 2.555603778E+00 2.092621456E-01 1.949607380E-03
 1.943783864E-01 -4.852395746E-02 -2.285197653E-01
 5.030051407E-01 8.850776110E-02 -3.970502611E-01
 4.554587265E-01 8.708352911E-02 -3.989435960E-01
 4.913978707E-01 7.413503292E-02 -4.140289003E-01
 9.201997264E-01 -1.602990033E-02 2.391418315E-01
 9.867964289E-01 -6.869559399E-01 3.355194937E-02
 1.637767126E+00 -6.856372233E-02 1.594539342E-02
 5.697617609E-01 8.875708835E-02 -3.739852868E-01
 1.574849628E-02 -3.743241605E-02 8.538287212E-02
 8.346488575E-01 -5.872117352E-02 1.868266634E-01
 1.373495599E-01 -4.232041220E-02 -1.879475002E-01
 2.167280449E-01 -6.935987890E-02 -2.278072708E-01
 2.456534930E-01 -7.565448657E-02 -2.368459179E-01
 2.824373748E-01 -9.411958709E-02 -2.431771796E-01
 2.589259038E-01 -5.644995898E-02 -2.646574441E-01
 6.471033141E-01 -4.758473345E-02 3.100578190E-02
 9.206323309E-01 -4.653048902E-03 2.512386562E-01
 9.040552046E-01 4.432556547E-02 -9.733157689E-02
 6.413372837E-01 1.342774470E-01 -2.991010684E-01
 6.187274999E-01 9.798458163E-02 -3.393820581E-01
 5.933419557E-01 8.196682850E-02 -3.676244599E-01
 6.262213027E-01 7.619356358E-02 -3.483526124E-01
 6.480094905E-01 7.006541640E-02 -3.376180254E-01
 8.085368262E-01 -2.493162923E-02 1.940439811E-01
 5.265347600E-01 8.646773147E-02 -3.947916526E-01
 9.316450428E-01 -7.400547929E-02 1.870313202E-01
 6.013668855E-01 6.479387553E-02 -3.794261015E-01
 6.108660804E-01 7.673968197E-02 -3.614893606E-01
 2.955314177E-01 -5.580595787E-02 -2.869922415E-01
 2.997609721E-01 -7.265234848E-02 -2.713918605E-01
 3.193787013E-01 -6.750798966E-02 -2.827589623E-01
 3.394696451E-01 -7.118104164E-02 -2.863273070E-01
 3.539731246E-01 -5.768358843E-02 -3.062459401E-01
 3.609052367E-01 -7.541302502E-02 -2.829632190E-01
 3.140620289E-01 -9.024483665E-02 -2.555292094E-01