TITLE     = "Visualization of the solution"
VARIABLES = "x"
"y"
"Pressure_Coefficient"
ZONE T="Zone"
 STRANDID=0, SOLUTIONTIME=0
 Nodes=705, Elements=1195, ZONETYPE=FEQuadrilateral
 DATAPACKING=POINT
 DT=(DOUBLE DOUBLE DOUBLE )
 1.000171185E+00 5.093037034E-04 2.036372068E-01
 9.858445525E-01 3.167431569E-03 1.974409808E-01
 9.731783271E-01 5.646876525E-03 1.052213752E-01
 9.571833014E-01 8.591004647E-03 6.900955299E-02
 9.428691864E-01 1.129249763E-02 1.872486898E-02
 9.296717644E-01 1.379628666E-02 -7.692946780E-03
 9.179115891E-01 1.594204828E-02 -3.833421002E-02
 9.056967497E-01 1.820003614E-02 -7.114105743E-02
 8.938524723E-01 2.031364664E-02 -8.758159557E-02
 8.814693093E-01 2.246369980E-02 -1.132043796E-01
 8.692192435E-01 2.458593436E-02 -1.362852611E-01
 8.570488691E-01 2.660405822E-02 -1.535480293E-01
 8.447130919E-01 2.862317674E-02 -1.760044728E-01
 8.333525062E-01 3.043545596E-02 -1.875635242E-01
 8.216556907E-01 3.222543746E-02 -2.021182977E-01
 8.092529178E-01 3.412196785E-02 -2.209813602E-01
 7.964422703E-01 3.600587323E-02 -2.285348271E-01
 7.844716311E-01 3.770292923E-02 -2.362687060E-01
 7.723417282E-01 3.941757232E-02 -2.563491541E-01
 7.610745430E-01 4.102563113E-02 -2.742620651E-01
 7.484472394E-01 4.272833094E-02 -2.878633207E-01
 7.349276543E-01 4.451446235E-02 -3.032125314E-01
 7.242971659E-01 4.587184638E-02 -3.142571394E-01
 7.133232355E-01 4.724649712E-02 -3.280744881E-01
 7.017945647E-01 4.865263402E-02 -3.383694800E-01
 6.884019375E-01 5.022898316E-02 -3.554289844E-01
 6.756563187E-01 5.170535669E-02 -3.726080834E-01
 6.653914452E-01 5.282075703E-02 -3.822710520E-01
 6.539787650E-01 5.403246358E-02 -3.957026566E-01
 6.429126859E-01 5.515821651E-02 -4.082213359E-01
 6.311205626E-01 5.630460382E-02 -4.210694792E-01
 6.199172139E-01 5.733840913E-02 -4.309253459E-01
 6.092308760E-01 5.827002600E-02 -4.404550188E-01
 5.968825221E-01 5.929430947E-02 -4.506202194E-01
 5.850934982E-01 6.019876897E-02 -4.619851119E-01
 5.716915727E-01 6.116916612E-02 -4.747279151E-01
 5.590252876E-01 6.198585778E-02 -4.821651381E-01
 5.464140177E-01 6.272627413E-02 -4.891148547E-01
 5.352652669E-01 6.330746412E-02 -4.943672297E-01
 5.234413147E-01 6.386680901E-02 -4.986544388E-01
 5.105823874E-01 6.438512355E-02 -5.052911834E-01
 4.995709956E-01 6.477078050E-02 -5.038446156E-01
 4.861280322E-01 6.513240933E-02 -5.048129855E-01
 4.729898274E-01 6.543909758E-02 -5.074690671E-01
 4.586135447E-01 6.565278023E-02 -5.048607601E-01
 4.446382225E-01 6.577324122E-02 -5.060352667E-01
 4.315288663E-01 6.580963731E-02 -5.031226419E-01
 4.182557166E-01 6.575089693E-02 -4.994497272E-01
 4.058383107E-01 6.563610584E-02 -4.983428921E-01
 3.929920495E-01 6.544752419E-02 -4.927828418E-01
 3.806434274E-01 6.518375129E-02 -4.925177839E-01
 3.692981601E-01 6.490657479E-02 -4.878230811E-01
 3.558129966E-01 6.447051466E-02 -4.823818100E-01
 3.434865177E-01 6.402416527E-02 -4.799907319E-01
 3.307361007E-01 6.348519772E-02 -4.749120724E-01
 3.200987875E-01 6.296814978E-02 -4.691969565E-01
 3.076601326E-01 6.231857091E-02 -4.620581068E-01
 2.945442498E-01 6.155029312E-02 -4.568757970E-01
 2.807064354E-01 6.066578627E-02 -4.537355852E-01
 2.683432400E-01 5.979831517E-02 -4.446188888E-01
 2.563591003E-01 5.887859687E-02 -4.396452527E-01
 2.439492047E-01 5.787097663E-02 -4.330355454E-01
 2.313504666E-01 5.675332248E-02 -4.246943518E-01
 2.192144990E-01 5.560702458E-02 -4.207510660E-01
 2.074650675E-01 5.442631990E-02 -4.143402063E-01
 1.961280704E-01 5.320758373E-02 -4.048892946E-01
 1.838119775E-01 5.180485547E-02 -3.967806802E-01
 1.719530970E-01 5.036947876E-02 -3.894550327E-01
 1.604697406E-01 4.889182001E-02 -3.790950894E-01
 1.487084776E-01 4.728998989E-02 -3.721417829E-01
 1.380340904E-01 4.575482011E-02 -3.620636923E-01
 1.266978532E-01 4.402715340E-02 -3.514967554E-01
 1.154310256E-01 4.220128432E-02 -3.436988906E-01
 1.049165353E-01 4.039835557E-02 -3.369155744E-01
 9.522850066E-02 3.862079233E-02 -3.259702996E-01
 8.428387344E-02 3.648690507E-02 -3.076875564E-01
 7.249566913E-02 3.401067108E-02 -2.986876917E-01
 6.268534809E-02 3.178172931E-02 -2.797553209E-01
 5.296311900E-02 2.938169613E-02 -2.544489832E-01
 4.404366389E-02 2.697610296E-02 -2.338548198E-01
 3.639425710E-02 2.471716516E-02 -2.029464386E-01
 2.970234491E-02 2.255194262E-02 -1.866962272E-01
 2.402043529E-02 2.052483521E-02 -1.755839849E-01
 1.990961470E-02 1.890998706E-02 -1.759816181E-01
 1.603563316E-02 1.724892668E-02 -1.318996260E-01
 1.321470458E-02 1.591740921E-02 -9.424907340E-02
 1.069014613E-02 1.461874973E-02 -8.626210179E-02
 8.820912801E-03 1.357060857E-02 -3.172213287E-02
 7.147764787E-03 1.255072746E-02 -1.223271319E-02
 5.587396212E-03 1.150395814E-02 1.282448445E-01
 3.559971927E-03 9.963471442E-03 -1.213277349E-02
 1.836258569E-03 8.391710930E-03 4.275999551E-01
 3.852107038E-04 6.737991236E-03 4.485334582E-01
 -9.937784635E-04 4.495227244E-03 4.851490127E-01
 -1.615161076E-03 2.740325872E-03 1.016784855E+00
 -1.842393307E-03 1.324831857E-03 7.288415660E-01
 -1.804336207E-03 -3.553306160E-04 9.112944261E-01
 -1.387512428E-03 -2.237198874E-03 6.720894101E-01
 -4.337206483E-04 -4.421174992E-03 6.902926016E-01
 1.107937074E-03 -6.752102170E-03 6.574165265E-01
 3.275970928E-03 -9.183717892E-03 4.616256068E-01
 5.201606080E-03 -1.094407216E-02 3.875111980E-01
 7.444508374E-03 -1.271766331E-02 3.310449216E-01
 9.121320210E-03 -1.390880160E-02 3.052268149E-01
 1.122549828E-02 -1.527830213E-02 2.184255103E-01
 1.367336046E-02 -1.673259400E-02 1.857931451E-01
 1.698888279E-02 -1.851943508E-02 1.087785856E-01
 2.012272924E-02 -2.004919946E-02 5.028900557E-02
 2.415986359E-02 -2.186281793E-02 2.082003488E-02
 2.963746339E-02 -2.407479472E-02 -4.186148162E-02
 3.540654853E-02 -2.616362460E-02 -9.161151002E-02
 4.264527932E-02 -2.853098139E-02 -1.306419959E-01
 5.019227415E-02 -3.076330014E-02 -1.665961641E-01
 5.901053548E-02 -3.311957791E-02 -1.914704697E-01
 6.771621108E-02 -3.524474800E-02 -2.178349273E-01
 7.802013308E-02 -3.755472600E-02 -2.351271753E-01
 8.787609637E-02 -3.957761452E-02 -2.538977959E-01
 9.827321023E-02 -4.155334830E-02 -2.657481461E-01
 1.092138290E-01 -4.348901659E-02 -2.762461077E-01
 1.205723882E-01 -4.536309466E-02 -2.910495973E-01
 1.320539713E-01 -4.712484032E-02 -3.041389830E-01
 1.424019039E-01 -4.861475900E-02 -3.120537036E-01
 1.534303278E-01 -5.010674149E-02 -3.204277832E-01
 1.652236581E-01 -5.159940198E-02 -3.288744016E-01
 1.767857373E-01 -5.297143385E-02 -3.421332134E-01
 1.884848773E-01 -5.426209792E-02 -3.526387592E-01
 1.989443898E-01 -5.534657463E-02 -3.633009759E-01
 2.101030648E-01 -5.642540008E-02 -3.733434517E-01
 2.223232538E-01 -5.751278996E-02 -3.830247448E-01
 2.345744371E-01 -5.850466713E-02 -3.930117159E-01
 2.466261685E-01 -5.938453600E-02 -4.011165793E-01
 2.590227723E-01 -6.019948050E-02 -4.108407652E-01
 2.699789703E-01 -6.084120646E-02 -4.208996479E-01
 2.827443182E-01 -6.148994341E-02 -4.303068374E-01
 2.951373458E-01 -6.200350076E-02 -4.392102415E-01
 3.078880012E-01 -6.243387982E-02 -4.448194715E-01
 3.193528652E-01 -6.270754337E-02 -4.517675826E-01
 3.319724798E-01 -6.292673200E-02 -4.567200321E-01
 3.425082862E-01 -6.298767030E-02 -4.642188558E-01
 3.539029658E-01 -6.295988709E-02 -4.609873503E-01
 3.649222851E-01 -6.284438074E-02 -4.626645495E-01
 3.756458461E-01 -6.262695044E-02 -4.623519349E-01
 3.870564699E-01 -6.227163225E-02 -4.518000387E-01
 3.999697268E-01 -6.176700071E-02 -4.446501917E-01
 4.121192098E-01 -6.113557518E-02 -4.335208878E-01
 4.254573584E-01 -6.033943221E-02 -4.189214363E-01
 4.381442070E-01 -5.941505358E-02 -4.057661112E-01
 4.509595931E-01 -5.836736411E-02 -3.848225321E-01
 4.631611407E-01 -5.723148584E-02 -3.623778160E-01
 4.756872356E-01 -5.597794428E-02 -3.385543391E-01
 4.874212444E-01 -5.468074977E-02 -3.119899499E-01
 5.000050068E-01 -5.323487520E-02 -2.837977401E-01
 5.138380527E-01 -5.153763667E-02 -2.559602002E-01
 5.276936889E-01 -4.977960885E-02 -2.283934647E-01
 5.407341719E-01 -4.802974686E-02 -2.022708302E-01
 5.543310046E-01 -4.615143314E-02 -1.726994630E-01
 5.673294067E-01 -4.428953677E-02 -1.446687913E-01
 5.807619095E-01 -4.235796630E-02 -1.171077772E-01
 5.932931900E-01 -4.053266346E-02 -9.524083256E-02
 6.059054136E-01 -3.868773207E-02 -7.532308296E-02
 6.194680333E-01 -3.665491939E-02 -5.044774608E-02
 6.338160038E-01 -3.452501446E-02 -2.740810943E-02
 6.477888823E-01 -3.243003413E-02 -5.317270903E-03
 6.610542536E-01 -3.043833375E-02 1.508679234E-02
 6.747103333E-01 -2.839643694E-02 3.745765464E-02
 6.874138713E-01 -2.654495090E-02 5.220768045E-02
 6.996677518E-01 -2.472081780E-02 6.913331772E-02
 7.144364119E-01 -2.257168293E-02 9.106133587E-02
 7.274147272E-01 -2.069732174E-02 1.095910265E-01
 7.390973568E-01 -1.905092038E-02 1.259709838E-01
 7.520290017E-01 -1.727598347E-02 1.393621709E-01
 7.647641301E-01 -1.555128954E-02 1.518847914E-01
 7.773880959E-01 -1.382360607E-02 1.729052661E-01
 7.895981669E-01 -1.225296129E-02 1.911107081E-01
 8.025020361E-01 -1.065333374E-02 1.996630050E-01
 8.134272695E-01 -9.311480448E-03 2.145503137E-01
 8.246434331E-01 -7.977114059E-03 2.306768468E-01
 8.371052146E-01 -6.584157236E-03 2.439185598E-01
 8.491885662E-01 -5.281027406E-03 2.596558347E-01
 8.612151146E-01 -4.087893292E-03 2.744917809E-01
 8.726917505E-01 -3.047052538E-03 2.866318910E-01
 8.845541477E-01 -2.096819691E-03 2.957505550E-01
 8.975235820E-01 -1.179216080E-03 3.036352621E-01
 9.073206782E-01 -5.727132084E-04 3.143305677E-01
 9.179589152E-01 -5.248927846E-05 3.157555866E-01
 9.271522164E-01 3.320685937E-04 3.179428033E-01
 9.362413883E-01 6.196524482E-04 3.259354978E-01
 9.486171007E-01 8.799780626E-04 3.158268734E-01
 9.620486498E-01 1.008457853E-03 3.269907750E-01
 9.767709970E-01 9.683975950E-04 3.181592466E-01
 9.893811941E-01 7.772435201E-04 3.115465596E-01
 -5.000000000E-01 -1.000000000E+00 2.396625016E-02
 3.500000000E+00 -1.000000000E+00 1.581189647E-02
 3.500000000E+00 1.000000000E+00 1.410470974E-03
 -5.000000000E-01 1.000000000E+00 -1.772753188E-03
 -5.000000000E-01 5.000000000E-01 3.244308137E-02
 -5.000000000E-01 2.752797990E-12 9.585815339E-02
 -5.000000000E-01 -5.000000000E-01 5.703808064E-02
 -9.421907698E-13 -1.000000000E+00 1.397872801E-02
 5.000000000E-01 -1.000000000E+00 -8.231030409E-03
 1.000000000E+00 -1.000000000E+00 6.555396000E-03
 1.500000000E+00 -1.000000000E+00 2.795478303E-02
 2.000000000E+00 -1.000000000E+00 2.604579762E-02
 2.500000000E+00 -1.000000000E+00 1.933763574E-02
 3.000000000E+00 -1.000000000E+00 1.608848776E-02
 3.500000000E+00 -5.000000000E-01 1.849969847E-02
 3.500000000E+00 -2.752797990E-12 1.786102651E-02
 3.500000000E+00 5.000000000E-01 8.298574117E-03
 3.000000000E+00 1.000000000E+00 -1.342476397E-03
 2.500000000E+00 1.000000000E+00 -7.400952766E-03
 2.000000000E+00 1.000000000E+00 -2.159713619E-02
 1.500000000E+00 1.000000000E+00 -5.593733036E-02
 1.000000000E+00 1.000000000E+00 -9.917867073E-02
 5.000000000E-01 1.000000000E+00 -9.237545759E-02
 1.733724275E-12 1.000000000E+00 -2.950843961E-02
 6.835528705E-01 -3.719138653E-02 4.177558041E-02
 7.857103726E-01 -2.394698970E-02 1.768790989E-01
 9.124981666E-01 -1.055278527E-02 2.998332908E-01
 5.903410924E-01 -5.614161642E-02 -1.026674797E-01
 7.087475850E-01 5.769538528E-02 -3.260999695E-01
 2.746575577E-01 -7.046231623E-02 -4.073158499E-01
 2.739963455E-01 7.089463538E-02 -4.366320463E-01
 9.147808347E-01 2.909533322E-02 -4.603077482E-02
 8.019572980E-01 4.830172970E-02 -2.196680603E-01
 5.950850611E-01 7.126711327E-02 -4.396694487E-01
 4.114319375E-01 7.938047118E-02 -4.808278974E-01
 4.212270962E-01 -7.565981038E-02 -3.967151326E-01
 1.830676032E+00 -5.874336971E-01 2.604952770E-02
 1.779935311E+00 6.322945861E-01 -1.743933240E-02
 3.031178354E+00 2.156827418E-01 1.032444592E-02
 7.467797322E-01 -5.340485224E-01 3.571931229E-03
 4.950483480E-01 -6.699777608E-02 -2.826376201E-01
 3.110390339E-01 -6.415952856E-01 -3.545437790E-02
 1.150815708E-01 -5.471825035E-02 -2.669480935E-01
 1.815831542E-01 -6.315393932E-02 -3.312661496E-01
 3.493101901E-01 -7.645672194E-02 -4.314035071E-01
 7.495423253E-01 5.504870172E-01 -1.408977819E-01
 4.949647427E-01 7.789200177E-02 -4.865761019E-01
 2.907399166E-01 6.536341170E-01 -1.103564123E-01
 1.197642032E-01 5.300527402E-02 -3.263078554E-01
 1.896591109E-01 6.478689059E-02 -3.827430589E-01
 2.734840884E+00 -5.326986626E-01 1.570258924E-02
 1.206253844E+00 7.269965661E-01 -6.123803679E-02
 9.813357402E-01 3.363847825E-01 -7.337792721E-02
 1.214672468E+00 -6.681452824E-01 3.866956068E-02
 1.504827380E+00 -2.683133992E-01 3.721493931E-02
 2.247984292E+00 -5.866411941E-01 1.854238294E-02
 2.036093137E+00 -2.228830033E-01 1.547425511E-02
 2.421917027E+00 -1.880832112E-01 1.183682447E-02
 2.184596078E+00 1.581685681E-01 6.058782274E-03
 1.816733647E+00 8.483207106E-02 9.859147859E-03
 -2.709686381E-01 -2.367283477E-01 1.116717065E-01
 -6.888933268E-02 -6.056052143E-01 1.631645516E-02
 1.024463870E-01 -3.640697658E-01 -3.675499271E-02
 -2.744063656E-01 2.323194129E-01 8.623934984E-02
 -1.073421864E-01 6.262525632E-01 -2.220866516E-02
 2.741718227E-02 3.291871177E-01 -5.206091792E-02
 4.463584993E-02 3.741762768E-02 -2.000836902E-01
 2.225627830E+00 5.662738361E-01 -4.240620530E-03
 2.743770522E+00 5.980303464E-01 3.085882657E-03
 -2.352674320E-01 -4.443530560E-03 1.490900889E-01
 -1.281421965E-01 1.265947591E-01 1.421425091E-01
 -1.093453189E-01 -1.270162188E-01 1.780459524E-01
 6.227572102E-02 -4.371895433E-02 -1.725124418E-01
 -7.070645102E-02 -3.206521729E-01 4.526757759E-02
 2.215426270E-03 -1.826429397E-01 6.010103246E-02
 1.587359677E-01 -2.330742768E-01 -1.191728989E-01
 2.284158968E-01 -7.045024994E-02 -3.686401641E-01
 -2.580801873E-02 -1.040210726E-01 1.924314155E-01
 3.022169907E-02 -3.208234972E-02 -1.479704993E-02
 -1.094360402E-01 -2.337021584E-02 2.853206084E-01
 -7.081869585E-02 5.551497178E-02 2.791651229E-01
 2.019108513E-02 2.492772811E-02 -1.392240403E-01
 3.619990673E-02 -1.118432247E-01 2.222390660E-02
 3.109356543E+00 -2.612810660E-01 1.586890462E-02
 -5.062869544E-02 -3.866656143E-02 3.396988991E-01
 -5.120275193E-02 1.172517548E-02 4.740774960E-01
 -2.884064374E-02 5.026689913E-02 3.404068370E-01
 -3.678580864E-02 1.023128965E-01 1.379030422E-01
 3.390638985E-02 1.139338268E-01 -2.033042699E-02
 9.001763027E-02 4.875757416E-02 -2.903054028E-01
 -2.109015187E-02 1.845826014E-01 3.933921619E-02
 6.835989281E-02 1.809825910E-01 -1.119460971E-01
 1.951378103E-01 3.153600430E-01 -1.799822468E-01
 3.478366949E-01 7.516396273E-02 -4.672541189E-01
 3.152069111E-01 7.548269676E-02 -4.513965529E-01
 1.962040261E-01 1.659217061E-01 -2.792572311E-01
 2.381009044E-01 7.488951814E-02 -4.094891841E-01
 8.452020631E-02 1.055007945E-01 -1.828666042E-01
 1.496250877E-01 6.237589336E-02 -3.451126438E-01
 1.448821495E-01 4.647689259E-01 -9.036314782E-02
 -5.735889744E-03 -6.092054781E-02 2.740940060E-01
 1.111821767E-02 -1.855909624E-02 2.037750472E-01
 3.489124127E-02 -7.303829820E-02 1.317187492E-02
 4.529141307E-02 -3.993922752E-02 -1.063842152E-01
 1.606235992E-02 6.293066367E-02 4.666747848E-02
 5.380344959E-02 8.050003335E-02 -1.429881702E-01
 6.434883296E-02 4.083984645E-02 -2.566361064E-01
 3.148971724E-01 4.064964705E-01 -1.986837456E-01
 3.171210294E-01 2.744733660E-01 -2.704929230E-01
 4.307812856E-01 3.241444184E-01 -2.663803313E-01
 3.113371356E-01 1.823893443E-01 -3.363941891E-01
 4.073846404E-01 2.070156740E-01 -3.457846870E-01
 4.517269721E-01 7.744083152E-02 -4.891820873E-01
 5.192429562E-01 2.272856522E-01 -3.287744505E-01
 6.494782287E-01 6.571268704E-02 -3.903125468E-01
 6.257779059E-01 6.756135880E-02 -4.151409166E-01
 5.423506803E-01 7.689235026E-02 -4.721621572E-01
 5.660640453E-01 7.252108229E-02 -4.616432589E-01
 3.708590871E-01 1.503570182E-01 -3.934392021E-01
 4.713419094E-01 1.589241840E-01 -3.997928198E-01
 5.640867684E-01 1.622483107E-01 -3.664133236E-01
 6.056741435E-01 2.220883598E-01 -2.981809085E-01
 6.408216901E-01 1.475951185E-01 -3.332655867E-01
 6.872609608E-01 2.087831620E-01 -2.570552685E-01
 7.542350597E-01 5.713891842E-02 -2.730893333E-01
 7.839153567E-01 4.853011086E-02 -2.380974295E-01
 7.221620460E-01 1.460608900E-01 -2.641341096E-01
 7.696020909E-01 2.023632364E-01 -1.989154376E-01
 8.528356544E-01 3.875597572E-02 -1.563454605E-01
 8.771978404E-01 3.688671946E-02 -1.170140048E-01
 8.295068241E-01 4.699824266E-02 -1.859849297E-01
 8.069765748E-01 1.398009249E-01 -1.822009727E-01
 8.576094194E-01 1.950881887E-01 -1.288730174E-01
 8.893676776E-01 1.257090958E-01 -9.814172351E-02
 9.713015904E-01 2.086484248E-02 9.474764591E-02
 8.474468060E-01 2.966957105E-01 -1.332463632E-01
 6.590996263E-01 3.141201466E-01 -2.286616259E-01
 6.793113884E-01 1.150677367E-01 -3.203871172E-01
 6.709477127E-01 6.533774225E-02 -3.660782849E-01
 8.466090986E-01 9.826183928E-02 -1.477256297E-01
 5.129347068E-01 1.253503035E-01 -4.224898827E-01
 5.183928779E-01 7.759943492E-02 -4.821408360E-01
 7.630715850E-01 1.107963357E-01 -2.385105811E-01
 9.680831700E-01 2.205288677E-01 -5.337435506E-02
 1.116574354E+00 2.743116254E-01 -9.372238750E-03
 9.839248744E-01 1.291756166E-01 -1.676070904E-03
 5.969453180E-01 1.245236692E-01 -3.799979435E-01
 1.424108852E-01 1.374344660E-01 -2.360546228E-01
 1.283923388E-01 9.142203208E-02 -2.747064162E-01
 1.674984549E-01 9.756906512E-02 -3.155251022E-01
 2.273240772E-01 1.281413262E-01 -3.343855992E-01
 -1.210650932E-01 2.651550403E-01 4.176517169E-02
 2.560539205E+00 2.055627337E-01 5.760735700E-03
 -1.992586124E-02 -3.078233123E-02 5.027878123E-01
 5.293181012E-03 -1.328530931E-02 3.908280621E-01
 -2.329872274E-02 -5.953195115E-03 7.100816830E-01
 -1.087623577E-02 1.569435668E-02 5.924748729E-01
 1.020511199E-01 7.810089279E-02 -2.481605487E-01
 1.338215234E-01 7.212924435E-02 -3.139271031E-01
 4.623751362E-01 4.825328138E-01 -1.947500789E-01
 6.058583050E-01 7.080532937E-01 -1.496550003E-01
 1.852547663E-03 -3.876705042E-02 3.472992570E-01
 2.142204885E-02 -2.521935318E-02 8.156914689E-02
 2.395160052E-02 -4.922755781E-02 1.082445424E-01
 9.977866205E-02 6.010944895E-02 -2.882636739E-01
 8.078062623E-02 6.693407618E-02 -2.336098922E-01
 5.309059611E-02 5.226441520E-02 -1.787205031E-01
 -1.206390902E-03 3.790772614E-02 1.936287151E-01
 6.246588345E-03 2.123965649E-02 1.459664417E-01
 7.119245163E-03 1.447988216E-02 4.920146663E-02
 1.745872817E-02 3.714486857E-02 -1.730800135E-02
 3.208258357E-02 3.151160942E-02 -1.548261285E-01
 3.266602354E-02 4.425383691E-02 -7.834319467E-02
 1.352386587E-02 1.891636835E-02 -7.052439636E-02
 8.371053249E-02 -1.766268788E-01 -7.192939167E-02
 9.980480994E-02 -1.113713075E-01 -1.478029666E-01
 1.437203559E-01 -5.906526875E-02 -2.973219815E-01
 6.553125777E-02 -8.147212460E-02 -8.868689185E-02
 8.956070492E-02 -5.032049925E-02 -2.270190269E-01
 5.778945614E-02 -2.636616377E-01 -2.067845657E-02
 2.549481718E-01 -3.005414790E-01 -1.417144751E-01
 2.992034940E-01 -2.015726780E-01 -2.262466987E-01
 3.827393191E-01 -2.567537697E-01 -1.918754139E-01
 3.138845947E-01 -7.373157484E-02 -4.279634839E-01
 3.690245095E-01 -1.732133860E-01 -2.728226256E-01
 4.579605484E-01 -1.956586210E-01 -2.018229850E-01
 4.592058360E-01 -6.712266147E-02 -3.549108393E-01
 3.829937496E-01 -7.502943670E-02 -4.309533200E-01
 4.782440765E-01 -3.029890045E-01 -1.192158763E-01
 5.585693029E-01 -2.310439460E-01 -9.966144058E-02
 5.359474536E-01 -1.488589860E-01 -1.575177187E-01
 5.482041369E-01 -6.005036134E-02 -1.803392494E-01
 5.218803613E-01 -6.439587014E-02 -2.331282080E-01
 6.209902685E-01 -1.584272564E-01 -5.163233072E-02
 6.415714469E-01 -4.572376940E-02 -2.033668765E-02
 6.519933043E-01 -2.295685424E-01 -1.969823652E-02
 7.147574595E-01 -1.630723440E-01 3.677293373E-02
 8.573677224E-01 -1.672627702E-02 2.569687976E-01
 8.346924874E-01 -2.034728984E-02 2.300720978E-01
 8.087476336E-01 -1.985981938E-02 2.024073392E-01
 8.790186819E-01 -1.363618507E-02 2.769165456E-01
 7.367757908E-01 -2.940176161E-02 1.174820206E-01
 7.482981412E-01 -2.421428812E-01 4.201599790E-02
 8.396856155E-01 -1.623685297E-01 1.198690749E-01
 9.713223592E-01 -9.625715445E-03 2.845511705E-01
 9.423620871E-01 -8.610720279E-03 3.067709043E-01
 8.636412983E-01 -2.509034372E-01 9.265486751E-02
 9.451157861E-01 -1.690423028E-01 1.493592699E-01
 9.908123779E-01 -2.897788912E-01 9.337336292E-02
 1.067234180E+00 -1.983178524E-01 1.150000521E-01
 8.852537230E-01 -1.124022987E-01 1.830891662E-01
 9.710662743E-01 -9.886792227E-02 2.026935171E-01
 8.058391637E-01 -1.082110451E-01 1.380519576E-01
 9.293095680E-01 -6.442581638E-02 2.401483227E-01
 2.063954825E-01 -1.521879504E-01 -2.324094786E-01
 6.689572994E-01 -1.091796219E-01 7.437912920E-03
 8.540498398E-01 -6.625214256E-02 2.058746491E-01
 6.206134068E-01 -9.607115335E-02 -5.093818602E-02
 6.156812558E-01 -5.190880623E-02 -5.862290434E-02
 4.698969908E-01 -1.324652793E-01 -2.561353297E-01
 3.145807679E-01 -1.414876899E-01 -3.143283164E-01
 1.124324384E+00 -2.972669987E-01 8.002099802E-02
 1.022395040E+00 -4.639219090E-01 5.614903157E-02
 1.202809383E+00 -1.801839679E-01 7.773587523E-02
 1.170838906E+00 -3.539718770E-02 7.867788656E-02
 1.337161655E+00 -4.761769720E-02 4.885440288E-02
 1.218074008E+00 1.104151678E-01 3.954344465E-02
 1.412482826E+00 1.153899505E-01 2.052137008E-02
 7.406816520E-01 -9.935981684E-02 8.423789207E-02
 6.407255545E-01 -3.385942785E-01 -2.673745579E-02
 1.103750780E+00 5.749918892E-02 7.600554219E-02
 6.988435631E-01 -8.319129079E-02 4.674994686E-02
 7.124784151E-01 -3.656336203E-02 8.181635945E-02
 3.572206287E-01 -1.194737670E-01 -3.513083755E-01
 4.080371526E-01 -1.263253628E-01 -3.168921084E-01
 5.141547161E-01 -1.083745896E-01 -2.129862336E-01
 5.523822822E-01 -9.852447194E-02 -1.536668006E-01
 8.924163869E-01 -1.212814145E-02 2.854316516E-01
 8.896860284E-01 -2.703582487E-02 2.717330622E-01
 8.712348507E-01 -2.495158609E-02 2.566028779E-01
 8.516752649E-01 -3.367109219E-02 2.334592594E-01
 8.305876405E-01 -3.986521378E-02 2.077411765E-01
 8.806118002E-01 -4.410673823E-02 2.432644345E-01
 9.047678697E-01 -2.060148110E-02 2.863665987E-01
 9.202400664E-01 -1.921039319E-02 2.862256643E-01
 1.282460992E+00 -3.607237718E-01 5.555364923E-02
 4.424142123E-01 -1.047457478E-01 -3.213396513E-01
 9.311893853E-01 -1.005800115E-02 3.055400931E-01
 9.382517195E-01 -2.565123794E-02 2.840628517E-01
 9.639318641E-01 -5.157986856E-02 2.423282086E-01
 1.002866735E+00 -6.473161149E-02 1.974356916E-01
 5.180654267E-01 -4.774157627E-01 -5.412287565E-02
 1.316253127E+00 2.968895053E-01 -3.407220751E-04
 9.554382717E-01 -1.007414752E-02 3.166147991E-01
 1.081398308E+00 -1.834096662E-02 1.286272090E-01
 1.051629846E+00 3.781645402E-02 1.124773697E-01
 6.493351958E-01 -8.002970699E-02 -1.548432969E-02
 6.738308907E-01 -7.141572914E-02 1.769277377E-02
 6.580477008E-01 -5.242251866E-02 4.529296981E-03
 8.683056240E-01 -1.248979880E-02 2.710472904E-01
 3.211594605E-01 -1.056682125E-01 -3.698596300E-01
 2.857038976E-01 -1.083295066E-01 -3.520118460E-01
 9.621837074E-01 -2.479210605E-02 2.843139878E-01
 9.867361127E-01 -2.572444604E-02 3.148123250E-01
 1.017295745E+00 -3.062836796E-02 2.675213879E-01
 1.024761308E+00 1.010759908E-02 1.527322474E-01
 1.006606286E+00 4.650834877E-02 1.207786556E-01
 1.028873588E+00 8.454037258E-02 6.515846395E-02
 9.724099067E-01 7.291136646E-02 3.266860835E-02
 9.376848546E-01 2.489881370E-02 4.407385537E-03
 1.052221970E+00 1.549792955E-01 2.593511972E-02
 9.522487951E-01 2.171814775E-02 4.945543075E-02
 9.481751167E-01 4.289850378E-02 2.148023532E-02
 9.279929702E-01 3.922347797E-02 -1.890823611E-02
 9.085994966E-01 4.767681948E-02 -5.866749589E-02
 9.313881401E-01 6.494128492E-02 -2.452341364E-02
 9.369639181E-01 1.049255033E-01 -2.981687286E-02
 8.947053041E-01 8.105671328E-02 -8.855889172E-02
 9.734101898E-01 4.194113814E-02 7.247456112E-02
 6.316438995E-01 -6.367457769E-02 -3.517765086E-02
 6.071573959E-01 -6.593283523E-02 -7.245740262E-02
 5.831327575E-01 -7.687484956E-02 -1.118420302E-01
 3.853538704E-01 -1.021349624E-01 -3.742664473E-01
 6.284123556E-01 -4.751573081E-02 -3.872175012E-02
 1.453914896E+00 5.375859665E-01 -2.164520975E-02
 3.025670237E-01 -7.167624977E-02 -4.250646073E-01
 2.881776604E-01 -7.677369608E-02 -4.045891685E-01
 1.597193543E+00 2.889854272E-01 1.696458716E-03
 3.067614067E-01 -8.725627986E-02 -4.001786778E-01
 5.606861126E-01 -5.568171087E-02 -1.552757820E-01
 5.596228756E-01 -7.008223722E-02 -1.542644631E-01
 5.365253609E-01 -7.630586788E-02 -1.962826824E-01
 5.350075439E-01 -5.971229101E-02 -2.065339527E-01
 8.460058511E-01 -1.652196874E-02 2.463009126E-01
 7.244368884E-01 -3.101123811E-02 1.014151498E-01
 7.311772202E-01 -4.384273023E-02 1.006047288E-01
 7.608427588E-01 -2.860848743E-02 1.437607892E-01
 7.504155786E-01 -3.876632563E-02 1.253563061E-01
 7.683869955E-01 -4.576811362E-02 1.419173373E-01
 7.898907280E-01 -4.178423624E-02 1.678083914E-01
 7.833127237E-01 -7.180298852E-02 1.434196510E-01
 4.714180411E-01 -6.775807492E-02 -3.299539627E-01
 4.604170554E-01 -8.273783664E-02 -3.272611063E-01
 4.837475493E-01 -7.921762764E-02 -2.922384669E-01
 8.622298089E-01 6.777216961E-02 -1.348306588E-01
 8.846914158E-01 5.467899721E-02 -1.008209888E-01
 8.944020184E-01 3.796097742E-02 -8.866073457E-02
 7.515754519E-01 -6.595816676E-02 1.167461749E-01
 4.460104193E-01 -7.020232784E-02 -3.703216331E-01
 3.822480483E-01 -3.796240330E-01 -1.062308261E-01
 4.343003365E-01 -7.049791043E-02 -3.896089819E-01
 9.029053367E-01 -9.006867420E-03 2.973528695E-01
 8.252416421E-01 -3.614595476E-01 5.095553413E-02
 8.204436049E-01 -2.274934092E-02 2.135347351E-01
 2.405667899E-01 -4.649440446E-01 -4.512615491E-02
 4.796847187E-01 -1.000877803E-01 -2.743092358E-01
 1.455936358E-01 -1.480787338E-01 -1.796245862E-01
 1.816252434E-01 -1.077821015E-01 -2.654266144E-01
 2.220950157E-01 -1.081094851E-01 -3.093878495E-01
 2.553750948E-01 -1.428207816E-01 -2.865117354E-01
 2.537687408E-01 -1.000434252E-01 -3.425241761E-01
 2.529269510E-01 -7.579304839E-02 -3.832364948E-01
 2.639451203E-01 -7.000868926E-02 -4.003482919E-01
 2.033299746E-01 -8.602032351E-02 -3.222715957E-01
 2.010186236E-01 -6.778589039E-02 -3.441394625E-01
 2.140805034E-01 -7.068140301E-02 -3.546544546E-01
 2.208054762E-01 -8.444551629E-02 -3.403321205E-01
 1.911445894E-01 -6.361693024E-02 -3.424623351E-01
 2.391325285E-01 -8.406962404E-02 -3.539102294E-01
 1.092508068E+00 -1.010504068E-01 1.250375646E-01
 5.056703701E-01 -7.994724604E-02 -2.483610000E-01
 7.708043252E-01 -1.467378505E-01 9.335932980E-02
 5.493561151E-01 -6.676434524E-01 -2.802854998E-02
 9.218077500E-01 -7.908320058E-03 3.059096873E-01
 1.542715986E+00 -4.067133396E-02 2.301266919E-02
 8.153438485E-01 -6.605507518E-02 1.751124918E-01
 9.110327823E-01 -4.149025907E-02 2.574699051E-01
 8.339263426E-01 6.997256239E-02 -1.702594735E-01
 8.071962061E-01 9.114288052E-02 -1.979633271E-01
 7.771796626E-01 8.186621836E-02 -2.347034085E-01
 7.520431032E-01 7.930143282E-02 -2.639587984E-01
 7.294310707E-01 5.669829639E-02 -3.035155918E-01
 7.409628833E-01 5.412504438E-02 -2.910861668E-01
 7.184774482E-01 5.563296668E-02 -3.159859130E-01
 7.170105717E-01 6.760320733E-02 -3.108078050E-01
 6.976461667E-01 7.326381034E-02 -3.284712366E-01
 7.181627050E-01 9.334239270E-02 -2.960048115E-01
 6.789621368E-01 8.429922959E-02 -3.422347772E-01
 6.508474667E-01 1.001580151E-01 -3.609539236E-01
 6.172499707E-01 9.762592420E-02 -3.887298386E-01
 6.108661151E-01 7.713348757E-02 -4.181048159E-01
 5.947818682E-01 9.093558157E-02 -4.200030476E-01
 5.660155947E-01 1.117521732E-01 -4.161495280E-01
 5.301190882E-01 9.674443038E-02 -4.530374755E-01
 6.378493571E-01 8.005595982E-02 -3.934473652E-01
 6.854574101E-01 6.449275909E-02 -3.495856292E-01
 6.592607080E-01 7.606487521E-02 -3.694680744E-01
 4.139168500E-01 -9.416583324E-02 -3.657702258E-01
 7.144403997E-01 -5.846287889E-02 7.711102829E-02
 5.072884278E-01 -6.322268083E-02 -2.602867398E-01
 6.962393551E-01 5.913560242E-02 -3.385381143E-01
 8.103488088E-01 -3.539370491E-02 1.923253019E-01
 1.870541873E-01 -7.733030970E-02 -3.172833584E-01
 1.671030500E-01 -7.711326320E-02 -2.922028596E-01
 1.429897871E-01 -1.011282115E-01 -2.235336336E-01
 1.185359548E-01 -8.643251051E-02 -2.188182063E-01
 1.282777940E-01 -6.889696690E-02 -2.568300667E-01
 9.901074820E-02 -7.052328107E-02 -2.012936770E-01
 7.321493042E-02 -5.916373904E-02 -1.599308053E-01
 5.789789305E-01 7.185259051E-02 -4.514418971E-01
 5.719272243E-01 8.695197486E-02 -4.416901668E-01
 5.537956829E-01 8.769844670E-02 -4.527846124E-01
 3.624529681E-01 -9.309356397E-02 -4.005966680E-01
 3.669915968E-01 -7.428065753E-02 -4.369418632E-01
 6.957630439E-01 -3.729105750E-02 5.921142161E-02
 6.848522755E-01 -5.430392847E-02 4.248212454E-02
 5.514309843E-01 3.345831838E-01 -2.463282040E-01
 6.286188913E-01 4.636459976E-01 -1.810203981E-01
 2.690174894E-01 -8.533536530E-02 -3.804460327E-01
 7.977996243E-01 -2.398184088E-02 1.873126595E-01
 8.388672258E-01 -7.222931944E-01 6.636243895E-03
 8.638492513E-01 4.507078014E-01 -1.152640049E-01
 8.659040920E-01 4.903827539E-02 -1.332892380E-01
 5.535299428E-01 7.236480223E-02 -4.710235041E-01
 9.256084026E-01 2.459119197E-02 -2.048997577E-02
 4.174771762E-01 1.500197673E-01 -4.009065547E-01
 3.982212463E-01 1.146761088E-01 -4.366612963E-01
 3.757372240E-01 7.409819376E-02 -4.785475629E-01
 4.418503229E-01 1.176803385E-01 -4.396384768E-01
 3.600751775E-01 1.135375449E-01 -4.249568417E-01
 3.640544898E-01 7.681819795E-02 -4.712354532E-01
 3.872537808E-01 7.616998955E-02 -4.791711718E-01
 3.771145382E-01 9.106079682E-02 -4.587287005E-01
 3.987141870E-01 8.954967730E-02 -4.671269021E-01
 4.201762791E-01 9.614042417E-02 -4.641011167E-01
 4.277404301E-01 8.217700912E-02 -4.826912723E-01
 3.244555349E-01 1.296634640E-01 -3.973270369E-01
 2.745641901E-01 1.235186335E-01 -3.743493923E-01
 3.304654385E-01 1.017071722E-01 -4.290196440E-01
 3.018063716E-01 1.032240101E-01 -4.164398786E-01
 2.952952410E-01 8.178375348E-02 -4.367889421E-01