TITLE     = "Visualization of the solution"
VARIABLES = "x"
"y"
"Pressure_Coefficient"
ZONE T="Zone"
 STRANDID=0, SOLUTIONTIME=0
 Nodes=691, Elements=1167, ZONETYPE=FEQuadrilateral
 DATAPACKING=POINT
 DT=(DOUBLE DOUBLE DOUBLE )
 9.997333288E-01 5.252361880E-04 2.554278778E-01
 9.875336289E-01 2.955878619E-03 1.953888527E-01
 9.759528637E-01 5.241173320E-03 1.256005906E-01
 9.617837667E-01 8.007524535E-03 5.911471230E-02
 9.484767914E-01 1.064916980E-02 1.653598207E-02
 9.355865717E-01 1.308044232E-02 -1.721568011E-02
 9.246358871E-01 1.518470608E-02 -4.964811658E-02
 9.126718640E-01 1.739950106E-02 -7.946291635E-02
 9.015578628E-01 1.944726333E-02 -1.112538817E-01
 8.896621466E-01 2.154636942E-02 -1.347031910E-01
 8.774371147E-01 2.360672504E-02 -1.546681209E-01
 8.653427958E-01 2.557680011E-02 -1.674960112E-01
 8.525139093E-01 2.757541835E-02 -1.817811929E-01
 8.409068584E-01 2.936673723E-02 -1.941001507E-01
 8.288956285E-01 3.114330582E-02 -2.039315559E-01
 8.158226013E-01 3.306532651E-02 -2.207280049E-01
 8.025896549E-01 3.496300429E-02 -2.374605983E-01
 7.902713418E-01 3.668390960E-02 -2.466441984E-01
 7.773863673E-01 3.841052949E-02 -2.589023025E-01
 7.654545903E-01 4.001811892E-02 -2.707754606E-01
 7.521735430E-01 4.172806814E-02 -2.844872628E-01
 7.381097078E-01 4.353634268E-02 -3.027379190E-01
 7.270721793E-01 4.489008710E-02 -3.109191591E-01
 7.158433795E-01 4.623923078E-02 -3.257597683E-01
 7.040572166E-01 4.763669521E-02 -3.370627304E-01
 6.901176572E-01 4.920631647E-02 -3.521636109E-01
 6.770455241E-01 5.065986887E-02 -3.675118074E-01
 6.666275263E-01 5.174713209E-02 -3.766887630E-01
 6.550148129E-01 5.293558910E-02 -3.927866337E-01
 6.435681581E-01 5.405976251E-02 -4.018298298E-01
 6.313920617E-01 5.517705902E-02 -4.129393561E-01
 6.200824976E-01 5.619068816E-02 -4.260398832E-01
 6.091473699E-01 5.710516125E-02 -4.337870482E-01
 5.963869691E-01 5.810847878E-02 -4.458403501E-01
 5.844731927E-01 5.899425969E-02 -4.560007086E-01
 5.706068277E-01 5.992700905E-02 -4.668883727E-01
 5.577634573E-01 6.072288752E-02 -4.763526929E-01
 5.449902415E-01 6.141550094E-02 -4.825130886E-01
 5.338449478E-01 6.196044758E-02 -4.847046085E-01
 5.218484998E-01 6.247488409E-02 -4.897077418E-01
 5.090197921E-01 6.296645105E-02 -4.951446217E-01
 4.978420138E-01 6.330834329E-02 -4.967777524E-01
 4.845251441E-01 6.364952773E-02 -4.976753183E-01
 4.711735845E-01 6.389541924E-02 -4.957471711E-01
 4.567560554E-01 6.407003850E-02 -4.971200368E-01
 4.428502619E-01 6.415602565E-02 -4.946424346E-01
 4.295472503E-01 6.412509084E-02 -4.911405041E-01
 4.165793061E-01 6.404346228E-02 -4.883829106E-01
 4.040586352E-01 6.388075650E-02 -4.864582604E-01
 3.916309178E-01 6.366814673E-02 -4.848725205E-01
 3.794081509E-01 6.337388605E-02 -4.784534201E-01
 3.682686985E-01 6.305509061E-02 -4.748803074E-01
 3.551348150E-01 6.262562424E-02 -4.710869055E-01
 3.429015279E-01 6.214099750E-02 -4.648863164E-01
 3.302206993E-01 6.157547981E-02 -4.634976165E-01
 3.197148144E-01 6.106275693E-02 -4.558558872E-01
 3.071748912E-01 6.036140770E-02 -4.473184781E-01
 2.941247523E-01 5.957564339E-02 -4.424033936E-01
 2.801800370E-01 5.866876617E-02 -4.379771321E-01
 2.675727010E-01 5.776048079E-02 -4.295028472E-01
 2.555777133E-01 5.683216825E-02 -4.231306613E-01
 2.430527061E-01 5.579482019E-02 -4.144893362E-01
 2.302306145E-01 5.464629456E-02 -4.076011481E-01
 2.180615515E-01 5.349831283E-02 -4.022938997E-01
 2.062596083E-01 5.230848491E-02 -3.946175972E-01
 1.949715912E-01 5.110241845E-02 -3.852210138E-01
 1.826315969E-01 4.970266670E-02 -3.762441309E-01
 1.708071828E-01 4.828478023E-02 -3.672113523E-01
 1.593915373E-01 4.683129489E-02 -3.571580799E-01
 1.475159079E-01 4.524837434E-02 -3.520187258E-01
 1.369742006E-01 4.376091808E-02 -3.420709492E-01
 1.256293803E-01 4.206574336E-02 -3.327389032E-01
 1.142149717E-01 4.025441408E-02 -3.225185906E-01
 1.037986800E-01 3.850317001E-02 -3.165011042E-01
 9.412315488E-02 3.678272665E-02 -3.081648622E-01
 8.316417038E-02 3.471345082E-02 -2.932960331E-01
 7.135117054E-02 3.230694309E-02 -2.824998058E-01
 6.148784980E-02 3.013638780E-02 -2.642352704E-01
 5.172149464E-02 2.780224383E-02 -2.398411255E-01
 4.280251637E-02 2.547973208E-02 -2.344362447E-01
 3.528730199E-02 2.333354764E-02 -2.114019153E-01
 2.869411372E-02 2.125649713E-02 -1.840431586E-01
 2.313172817E-02 1.933310553E-02 -1.783461688E-01
 1.913364232E-02 1.780838706E-02 -1.623474625E-01
 1.539428812E-02 1.624516211E-02 -1.547723164E-01
 1.267777011E-02 1.499560941E-02 -8.890772540E-02
 1.026108861E-02 1.378645003E-02 -4.747255326E-02
 8.462963626E-03 1.280073449E-02 -4.371395963E-02
 6.857560016E-03 1.184157748E-02 -7.072806873E-02
 5.382381845E-03 1.087985560E-02 3.849159585E-02
 3.459639847E-03 9.462477639E-03 3.077327137E-01
 1.794716809E-03 7.993862964E-03 2.256354467E-01
 3.370530030E-04 6.386887748E-03 5.474415251E-01
 -1.035125228E-03 4.222650547E-03 4.144542949E-01
 -1.655398053E-03 2.526577329E-03 1.058274435E+00
 -1.873013098E-03 1.186617767E-03 7.091078367E-01
 -1.844048267E-03 -4.031913704E-04 9.576866391E-01
 -1.449708594E-03 -2.169670304E-03 6.506680138E-01
 -5.417049979E-04 -4.234578926E-03 7.331975240E-01
 9.311398608E-04 -6.432154682E-03 6.309949100E-01
 3.023747820E-03 -8.737627417E-03 4.881312827E-01
 4.884148482E-03 -1.040638890E-02 4.597113752E-01
 7.058888208E-03 -1.209727954E-02 3.461142229E-01
 8.665107191E-03 -1.321275812E-02 2.904099682E-01
 1.070084143E-02 -1.450896636E-02 2.413574930E-01
 1.311382651E-02 -1.591308415E-02 1.986953739E-01
 1.637991704E-02 -1.763164438E-02 1.335843303E-01
 1.945408247E-02 -1.910523698E-02 7.259993422E-02
 2.352045476E-02 -2.087682299E-02 4.698571424E-02
 2.900816314E-02 -2.303798497E-02 -7.868595423E-03
 3.484457731E-02 -2.510703728E-02 -6.576017070E-02
 4.224567860E-02 -2.745735087E-02 -1.101641411E-01
 4.984887689E-02 -2.964556031E-02 -1.445294709E-01
 5.879499391E-02 -3.198131919E-02 -1.780128963E-01
 6.747531146E-02 -3.404487669E-02 -1.990331451E-01
 7.792334259E-02 -3.633057326E-02 -2.170593087E-01
 8.783948421E-02 -3.832102939E-02 -2.288132494E-01
 9.820989519E-02 -4.026903585E-02 -2.436924288E-01
 1.090951934E-01 -4.216125235E-02 -2.571460018E-01
 1.203848198E-01 -4.399987310E-02 -2.701911368E-01
 1.318392754E-01 -4.574191198E-02 -2.858604575E-01
 1.421439946E-01 -4.721555114E-02 -2.964462308E-01
 1.530703902E-01 -4.869637266E-02 -3.061073597E-01
 1.649096161E-01 -5.019369721E-02 -3.189897875E-01
 1.764326841E-01 -5.155490711E-02 -3.288985559E-01
 1.880453080E-01 -5.285336450E-02 -3.379700224E-01
 1.984479874E-01 -5.393086746E-02 -3.496044922E-01
 2.094124854E-01 -5.499747023E-02 -3.577022787E-01
 2.215649039E-01 -5.609565228E-02 -3.671946980E-01
 2.339983284E-01 -5.712806433E-02 -3.787982081E-01
 2.463019490E-01 -5.806059018E-02 -3.894884328E-01
 2.589353919E-01 -5.891797692E-02 -3.996812286E-01
 2.699587941E-01 -5.958275497E-02 -4.119080036E-01
 2.827093601E-01 -6.025630981E-02 -4.204572389E-01
 2.951942086E-01 -6.080082431E-02 -4.294792819E-01
 3.082546294E-01 -6.127022207E-02 -4.381522071E-01
 3.199618161E-01 -6.156824902E-02 -4.461850616E-01
 3.325867653E-01 -6.179322675E-02 -4.487520973E-01
 3.433689475E-01 -6.188870221E-02 -4.566582394E-01
 3.547140360E-01 -6.187454611E-02 -4.552824149E-01
 3.657842278E-01 -6.178471446E-02 -4.562919342E-01
 3.763643503E-01 -6.159271300E-02 -4.588712846E-01
 3.877703846E-01 -6.126710027E-02 -4.518124896E-01
 4.007258415E-01 -6.076775119E-02 -4.402742802E-01
 4.130578041E-01 -6.016866863E-02 -4.327848566E-01
 4.260340631E-01 -5.938035622E-02 -4.166868091E-01
 4.389415383E-01 -5.847328156E-02 -3.984373436E-01
 4.516400993E-01 -5.742967129E-02 -3.772671551E-01
 4.640403390E-01 -5.631580204E-02 -3.555544740E-01
 4.766761959E-01 -5.505646765E-02 -3.349666296E-01
 4.883227050E-01 -5.381253734E-02 -3.088828212E-01
 5.009903908E-01 -5.235058442E-02 -2.805146365E-01
 5.148097277E-01 -5.065356195E-02 -2.473415840E-01
 5.287778378E-01 -4.889847711E-02 -2.203308459E-01
 5.421749949E-01 -4.710285366E-02 -1.946284008E-01
 5.557928681E-01 -4.523375630E-02 -1.640080177E-01
 5.687742233E-01 -4.339644685E-02 -1.375882928E-01
 5.820021629E-01 -4.148728028E-02 -1.115847446E-01
 5.943639278E-01 -3.968527168E-02 -8.607089908E-02
 6.069563627E-01 -3.787064552E-02 -6.766036869E-02
 6.207416058E-01 -3.582167253E-02 -4.566433423E-02
 6.351066828E-01 -3.369698673E-02 -1.986626878E-02
 6.491840482E-01 -3.159616515E-02 2.725899684E-03
 6.624541283E-01 -2.963171341E-02 2.502535616E-02
 6.760838032E-01 -2.764031664E-02 4.073220721E-02
 6.885281205E-01 -2.579524741E-02 6.179617977E-02
 7.010056973E-01 -2.400617115E-02 7.890782925E-02
 7.155618072E-01 -2.188907377E-02 9.569115754E-02
 7.285262942E-01 -2.004567161E-02 1.186194457E-01
 7.403945327E-01 -1.841831207E-02 1.296375667E-01
 7.526942492E-01 -1.668023504E-02 1.475010883E-01
 7.654344440E-01 -1.498009078E-02 1.670827072E-01
 7.785188556E-01 -1.327402145E-02 1.790091059E-01
 7.905270457E-01 -1.175045315E-02 1.922915972E-01
 8.028959632E-01 -1.017265394E-02 2.117575677E-01
 8.141107559E-01 -8.833548985E-03 2.278083117E-01
 8.254381418E-01 -7.515201811E-03 2.411405054E-01
 8.383944035E-01 -6.146434695E-03 2.505963091E-01
 8.502768874E-01 -4.884713329E-03 2.657841042E-01
 8.625164628E-01 -3.723672125E-03 2.826807454E-01
 8.740857244E-01 -2.702397294E-03 2.926772541E-01
 8.859337568E-01 -1.770828152E-03 3.040491249E-01
 8.989059925E-01 -8.924650610E-04 3.137719270E-01
 9.086651802E-01 -3.218588536E-04 3.233224043E-01
 9.187032580E-01 1.498269703E-04 3.257378943E-01
 9.279540777E-01 4.990213201E-04 3.260351666E-01
 9.367031455E-01 7.529783761E-04 3.327289982E-01
 9.484461546E-01 9.836028330E-04 3.281796247E-01
 9.618167281E-01 1.088300603E-03 3.417026457E-01
 9.770538211E-01 1.021346310E-03 3.229303645E-01
 9.897837639E-01 8.027966833E-04 3.450634039E-01
 -5.000000000E-01 -1.000000000E+00 2.647170194E-02
 3.500000000E+00 -1.000000000E+00 1.534995068E-02
 3.500000000E+00 1.000000000E+00 1.352112144E-03
 -5.000000000E-01 1.000000000E+00 -2.372089482E-03
 -5.000000000E-01 5.000000000E-01 3.000287364E-02
 -5.000000000E-01 2.752797990E-12 9.348297551E-02
 -5.000000000E-01 -5.000000000E-01 5.899652047E-02
 -9.421907698E-13 -1.000000000E+00 1.594183590E-02
 5.000000000E-01 -1.000000000E+00 -8.268424981E-03
 1.000000000E+00 -1.000000000E+00 1.040657010E-02
 1.500000000E+00 -1.000000000E+00 3.013011994E-02
 2.000000000E+00 -1.000000000E+00 2.634095025E-02
 2.500000000E+00 -1.000000000E+00 1.967058951E-02
 3.000000000E+00 -1.000000000E+00 1.600483033E-02
 3.500000000E+00 -5.000000000E-01 1.804443088E-02
 3.500000000E+00 -2.752797990E-12 1.723209625E-02
 3.500000000E+00 5.000000000E-01 7.830444520E-03
 3.000000000E+00 1.000000000E+00 -1.561058007E-03
 2.500000000E+00 1.000000000E+00 -8.213338962E-03
 2.000000000E+00 1.000000000E+00 -2.374049918E-02
 1.500000000E+00 1.000000000E+00 -5.683985819E-02
 1.000000000E+00 1.000000000E+00 -1.009015796E-01
 5.000000000E-01 1.000000000E+00 -9.112583762E-02
 1.733724275E-12 1.000000000E+00 -3.067116354E-02
 6.833552589E-01 -4.218834036E-02 4.906801428E-02
 7.871597602E-01 -2.854615852E-02 1.796678808E-01
 9.045813016E-01 -1.022622243E-02 3.021696237E-01
 5.887666232E-01 -5.284495668E-02 -9.866106487E-02
 6.994863123E-01 6.061526040E-02 -3.336724685E-01
 2.769670802E-01 -7.156643068E-02 -3.956457357E-01
 2.855021535E-01 7.035084962E-02 -4.254408754E-01
 9.100212955E-01 3.119128263E-02 -8.271275477E-02
 7.972257889E-01 4.975188141E-02 -2.338921082E-01
 5.926044574E-01 7.041322233E-02 -4.367834745E-01
 4.071313371E-01 7.669155110E-02 -4.715285280E-01
 4.473250339E-01 -6.754596458E-02 -3.686704364E-01
 1.708450297E+00 -5.282589570E-01 2.892760958E-02
 1.766648906E+00 5.421210641E-01 -1.337739439E-02
 3.031188180E+00 2.156781516E-01 9.848799336E-03
 7.500000000E-01 -5.669872981E-01 9.997059573E-03
 3.620310326E-01 -7.222655114E-02 -4.341842910E-01
 3.156277060E-01 -6.883798823E-01 -2.403230544E-02
 1.122397937E-01 -5.175172227E-02 -2.399153829E-01
 1.806144564E-01 -6.692443068E-02 -3.090952698E-01
 7.332065818E-01 5.861767197E-01 -1.375762867E-01
 4.924504980E-01 7.559037615E-02 -4.798327404E-01
 3.331737017E-01 6.150076572E-01 -1.229042082E-01
 1.065012104E-01 5.197896157E-02 -2.937843403E-01
 1.623316269E-01 6.035423257E-02 -3.442120122E-01
 2.220923509E-01 6.538592856E-02 -3.892514154E-01
 2.734816926E+00 -5.327227048E-01 1.541673646E-02
 1.160965116E+00 6.836168728E-01 -6.367793467E-02
 9.917712916E-01 3.223028882E-01 -6.402840751E-02
 1.295060999E+00 -6.389420650E-01 3.960259611E-02
 1.510836040E+00 -2.374312228E-01 3.611894746E-02
 2.227592337E+00 -5.768114686E-01 1.778448016E-02
 2.002226810E+00 -2.154859857E-01 1.690345485E-02
 2.412848416E+00 -1.852654971E-01 1.210266877E-02
 2.184515772E+00 1.579772799E-01 5.059727470E-03
 1.793464072E+00 1.284331182E-01 5.210753161E-03
 -2.709557928E-01 -2.366465346E-01 1.074506800E-01
 -1.459619423E-01 -6.010912154E-01 2.427199922E-02
 1.053568527E-01 -3.757849196E-01 -2.956256025E-02
 -2.743508084E-01 2.320089432E-01 8.120448726E-02
 -1.010080911E-01 6.208304459E-01 -2.323338672E-02
 2.807668965E-02 3.290729851E-01 -4.618360284E-02
 4.558772613E-02 3.554690026E-02 -2.019615969E-01
 2.191533060E+00 6.007432018E-01 -5.917421446E-03
 2.738092555E+00 6.037732845E-01 2.476359992E-03
 -2.351936603E-01 -4.576391252E-03 1.490823957E-01
 -1.279754620E-01 1.265098838E-01 1.311430916E-01
 -1.190127837E-01 -1.416472877E-01 1.548612713E-01
 6.334375767E-02 -4.266555344E-02 -1.489810006E-01
 3.170990781E-02 -3.041339972E-02 -4.663686112E-03
 -7.988131354E-02 -3.236307130E-01 5.298584972E-02
 5.956578947E-03 -1.811348437E-01 5.467440004E-02
 1.605230849E-01 -2.289758861E-01 -1.147386092E-01
 2.274801682E-01 -6.955827726E-02 -3.525531355E-01
 -3.690126447E-02 -9.765322833E-02 2.432898403E-01
 -1.092839901E-01 -2.391014502E-02 2.808232172E-01
 -7.077458142E-02 5.546188155E-02 2.598243984E-01
 2.601535741E-02 -1.061707496E-01 6.292180523E-02
 3.109343144E+00 -2.613021684E-01 1.548089293E-02
 -4.625353689E-02 -3.633777749E-02 4.053844213E-01
 -5.105869753E-02 1.165157548E-02 4.498096876E-01
 -2.873219214E-02 5.044428311E-02 3.480517306E-01
 2.611670486E-02 2.662774586E-02 -1.382552227E-01
 -3.717646646E-02 1.026587308E-01 1.230534122E-01
 3.388333648E-02 1.150955694E-01 -1.637504877E-02
 7.480270321E-02 4.288548125E-02 -2.599305632E-01
 -2.143246717E-02 1.849393060E-01 3.783180789E-02
 8.776660362E-02 1.754632167E-01 -1.314582666E-01
 1.701397201E-01 2.994876470E-01 -1.726910758E-01
 3.485984724E-01 7.297764827E-02 -4.548507426E-01
 1.999517789E-01 1.771779668E-01 -2.593497168E-01
 2.799593903E-01 2.650773023E-01 -2.524097072E-01
 2.935219355E-01 1.644044547E-01 -3.345153155E-01
 3.643037150E-01 2.232208439E-01 -3.132218335E-01
 3.662616197E-01 1.459208929E-01 -3.848885607E-01
 4.334088938E-01 1.846393018E-01 -3.600031699E-01
 5.389096456E-01 7.091278935E-02 -4.736747206E-01
 5.648723574E-01 7.141477605E-02 -4.561500788E-01
 4.428954340E-01 2.757899511E-01 -2.874474481E-01
 5.267635520E-01 2.107841057E-01 -3.338875558E-01
 4.508476219E-01 7.838609953E-02 -4.784779070E-01
 5.395029619E-01 3.466030780E-01 -2.421566089E-01
 6.290028663E-01 2.631318603E-01 -2.606265055E-01
 6.514641527E-01 6.535611718E-02 -3.837203599E-01
 6.113399180E-01 1.680036630E-01 -3.338745370E-01
 7.063320908E-01 1.867326819E-01 -2.583005104E-01
 7.459775862E-01 5.581767204E-02 -2.858101480E-01
 7.230870357E-01 5.794620390E-02 -3.100739645E-01
 7.334261901E-01 2.715564400E-01 -2.081522847E-01
 8.159647119E-01 2.022771451E-01 -1.732533320E-01
 8.628274150E-01 4.068863397E-02 -1.625245992E-01
 8.384219840E-01 4.482610674E-02 -1.893420214E-01
 7.662347909E-01 1.347361565E-01 -2.336664524E-01
 8.530587839E-01 1.343905840E-01 -1.468023690E-01
 9.565913079E-01 2.208870246E-02 3.278641265E-02
 5.443662973E-01 1.435797208E-01 -3.891615238E-01
 6.669485182E-01 1.313016453E-01 -3.212813655E-01
 1.464558260E-01 1.279997860E-01 -2.394785399E-01
 2.318304230E-01 1.276333061E-01 -3.253471993E-01
 8.995433623E-01 1.971518861E-01 -9.483291805E-02
 9.445982934E-01 1.226848380E-01 -4.675886590E-02
 8.915296719E-01 8.547341196E-02 -1.055654555E-01
 8.869565228E-01 3.598241122E-02 -1.285941809E-01
 9.944723721E-01 2.044918288E-01 -3.172185893E-02
 1.112454489E+00 2.437820239E-01 -1.099285275E-02
 1.036192826E+00 1.190978598E-01 3.631553617E-02
 1.185604499E+00 1.286303402E-01 3.842575203E-02
 1.289143381E+00 2.604365273E-01 1.735370969E-03
 1.340094023E+00 7.317040938E-02 2.816823869E-02
 1.243901868E+00 -8.656127279E-02 6.414778906E-02
 1.106515913E+00 3.720561905E-02 9.002656975E-02
 6.214376846E-01 1.151356924E-01 -3.677732804E-01
 6.301752469E-01 6.836287393E-02 -4.032500720E-01
 9.767857935E-01 7.700692736E-02 2.344170990E-02
 1.033995606E+00 5.248870600E-02 9.404681800E-02
 8.090986282E-01 9.798132475E-02 -2.013003568E-01
 3.173030746E-01 1.184795498E-01 -3.934597841E-01
 3.179199993E-01 7.140556248E-02 -4.440831315E-01
 9.237484812E-02 1.038799646E-01 -1.881365894E-01
 4.173924946E-01 1.283482713E-01 -4.142366162E-01
 4.775771424E-01 1.328192013E-01 -4.140050087E-01
 3.836758911E-01 1.082325818E-01 -4.293171149E-01
 3.723829848E-01 7.214215166E-02 -4.669162559E-01
 1.292282781E-01 8.851215860E-02 -2.672476713E-01
 1.399799205E-01 5.547583310E-02 -3.277034195E-01
 6.898814649E-01 3.985308210E-01 -1.849401380E-01
 5.146806094E-01 1.105802703E-01 -4.336767116E-01
 5.171086805E-01 7.425051714E-02 -4.760479907E-01
 1.426300323E-01 4.543987225E-01 -8.795778483E-02
 9.956134993E-01 4.193409783E-02 9.326922565E-02
 9.834586051E-01 2.003966153E-02 1.108232638E-01
 -6.054852488E-03 -6.015017686E-02 2.643859089E-01
 1.038569491E-02 -1.812595698E-02 2.673355177E-01
 5.517909276E-01 1.105133202E-01 -4.198775462E-01
 1.663735607E-01 9.598802112E-02 -3.044041849E-01
 1.913283565E-01 6.129393995E-02 -3.704288835E-01
 3.497231250E-01 1.055887458E-01 -4.190856632E-01
 4.243457719E-01 4.071385933E-01 -2.137231739E-01
 1.531103245E+00 2.501346162E-01 4.181940228E-03
 1.422366603E+00 4.716361604E-01 -2.059676867E-02
 8.508500826E-01 3.143845116E-01 -1.429098370E-01
 3.896115174E-02 -6.970325724E-02 1.924872741E-02
 4.654180352E-02 -3.714022835E-02 -8.879343914E-02
 6.853574363E-02 -8.830091501E-02 -7.310922907E-02
 7.869804603E-02 -4.860831215E-02 -1.775329382E-01
 8.311559374E-02 -1.419811889E-01 -8.753622691E-02
 1.366701687E-01 -1.073773654E-01 -1.887724066E-01
 1.438376054E-01 -6.087311674E-02 -2.731864822E-01
 3.919344828E-01 8.617985872E-02 -4.574294912E-01
 5.589210338E-01 5.236348894E-01 -1.863569261E-01
 1.649251540E-02 6.385538972E-02 3.587219434E-02
 1.388767083E+00 -9.209501751E-02 4.288680214E-02
 1.274101001E+00 -2.346634190E-01 5.843430323E-02
 1.112823030E+00 -1.993527274E-01 1.033973486E-01
 9.673614932E-01 -1.736943783E-02 3.060156767E-01
 1.176749009E+00 -3.903502642E-01 6.170973648E-02
 9.947675707E-01 -3.305331667E-01 8.112737142E-02
 9.673207369E-01 -1.788030325E-01 1.454034995E-01
 8.463780221E-01 -1.736586384E-02 2.510498727E-01
 8.210448962E-01 -1.748994510E-02 2.263231056E-01
 8.579980711E-01 -2.533760341E-01 9.346377063E-02
 8.691855435E-01 -1.323230912E-02 2.749405987E-01
 8.138455448E-01 -1.524270860E-01 1.263289246E-01
 7.371274237E-01 -3.133780211E-02 1.204592061E-01
 7.597568356E-01 -2.800085751E-02 1.513058849E-01
 7.349114449E-01 -2.102933760E-01 5.000132233E-02
 5.093079011E-01 -6.296653043E-02 -2.517576488E-01
 5.382445720E-01 -6.452434249E-02 -1.932298799E-01
 4.846438079E-01 -6.368072881E-02 -3.038604665E-01
 9.177936377E-01 -1.019983536E-01 2.087803712E-01
 1.048737310E+00 -1.040622855E-01 1.573640746E-01
 7.431971259E-01 -1.201773270E-01 8.473859152E-02
 6.596831849E-01 -1.550813580E-01 -4.866050186E-03
 6.286318976E-01 -4.848599724E-02 -3.262285075E-02
 6.493797887E-01 -2.346559946E-01 -2.410382984E-02
 5.668226809E-01 -1.846622006E-01 -1.008348223E-01
 5.514619825E-01 -2.913209027E-01 -7.917816796E-02
 4.614094131E-01 -2.244320915E-01 -1.655501432E-01
 4.961563726E-01 -1.453274896E-01 -2.005281891E-01
 4.108485005E-01 -1.665866156E-01 -2.568908734E-01
 3.774921550E-01 -2.348328490E-01 -1.979549415E-01
 3.922567883E-01 -7.230402056E-02 -4.237941592E-01
 3.181742431E-01 -1.725972674E-01 -2.591357787E-01
 3.144455195E-01 -7.470604940E-02 -4.160476542E-01
 2.629853966E-01 -2.757818424E-01 -1.480756801E-01
 8.000370917E-01 -8.889112225E-02 1.511999597E-01
 6.010059881E-01 -1.276117450E-01 -7.573874059E-02
 9.956525027E-01 -5.756603348E-01 3.932278379E-02
 6.852555572E-01 -9.912697529E-02 3.138580924E-02
 4.516411617E-01 -3.335208551E-01 -1.084478674E-01
 3.623151983E-01 -1.332136148E-01 -3.224315258E-01
 7.240451394E-01 -7.574555426E-02 8.563064497E-02
 7.097662929E-01 -3.368669788E-02 8.501806835E-02
 4.474806426E-01 -1.235785144E-01 -2.800918688E-01
 2.723395057E-01 -4.424648656E-01 -7.150509387E-02
 5.653840814E-01 -4.407759931E-01 -3.760657768E-02
 5.707532779E-02 8.192753497E-02 -1.425711959E-01
 5.797634243E-01 6.907309282E-02 -4.492022404E-01
 5.820384137E-01 8.379804894E-02 -4.311782343E-01
 6.066434799E-01 8.235905061E-02 -4.098487985E-01
 6.038241910E-01 6.750605505E-02 -4.293373502E-01
 6.530889277E-01 9.845952801E-02 -3.555978446E-01
 6.744004464E-01 6.310109424E-02 -3.611414797E-01
 6.902821645E-01 9.627955201E-02 -3.213306101E-01
 7.130205338E-01 1.312298196E-01 -2.783134794E-01
 7.357968338E-01 9.542701836E-02 -2.768329250E-01
 6.287779441E-01 8.485164609E-02 -3.902198383E-01
 6.661817879E-01 7.779036494E-02 -3.585116578E-01
 7.160506928E-01 -3.407756184E-01 1.329296187E-02
 3.623947631E-01 7.171697904E-02 -4.625346033E-01
 3.345670305E-01 7.492945000E-02 -4.489548287E-01
 1.022334039E+00 2.029194543E-02 1.395738652E-01
 1.066182881E+00 -2.900361555E-02 1.274911085E-01
 1.002738952E+00 1.795411104E-02 1.939726950E-01
 6.866437764E-01 5.964167590E-02 -3.506356269E-01
 9.691451602E-01 1.802462904E-02 7.586966388E-02
 9.688474000E-01 3.311466071E-02 5.641775952E-02
 9.469562114E-01 3.822257522E-02 4.136658251E-03
 9.327265354E-01 2.646421353E-02 -2.936980783E-02
 9.256904533E-01 3.945052740E-02 -4.941524696E-02
 9.032710339E-01 4.942936368E-02 -9.422553390E-02
 8.790794825E-01 5.132127944E-02 -1.328034514E-01
 8.572128121E-01 5.945600712E-02 -1.611571043E-01
 8.278889254E-01 6.417910443E-02 -1.905990025E-01
 9.382253503E-01 6.628804858E-02 -3.021440794E-02
 1.033806253E+00 -5.863674992E-03 1.673878082E-01
 1.010855061E+00 -3.280046614E-02 2.629886046E-01
 9.788227925E-01 -8.937090522E-02 2.054131390E-01
 9.385780815E-01 -5.968789879E-02 2.564229331E-01
 9.328667053E-01 -7.039195155E-03 3.189174830E-01
 8.959548920E-01 -5.386725295E-02 2.448240105E-01
 8.581038859E-01 -8.493576516E-02 1.940238745E-01
 8.272787779E-01 -5.497801781E-02 1.985872849E-01
 9.211236968E-01 -3.456444051E-02 2.752947638E-01
 7.952668273E-01 -5.427120440E-02 1.717252737E-01
 9.469075073E-01 -2.888893818E-02 2.944177582E-01
 9.721778333E-01 -4.101517723E-02 2.437012179E-01
 9.163021702E-01 -1.773373996E-02 3.012720665E-01
 9.883067680E-01 -1.635736270E-02 3.469639111E-01
 9.422433374E-01 -1.093131227E-02 3.120031727E-01
 9.552158195E-01 -9.739678511E-03 3.168605650E-01
 7.720009441E-01 -2.509626850E-02 1.649884256E-01
 7.698191935E-01 -4.057773818E-02 1.536271743E-01
 8.067049463E-01 -3.556186105E-02 1.979371075E-01
 7.515198611E-01 -3.978528402E-02 1.335260215E-01
 7.594682183E-01 -6.666311120E-02 1.291076479E-01
 6.405030108E-01 6.432610423E-02 -3.962066184E-01
 9.211492071E-01 2.593804614E-02 -5.823834060E-02
 8.550834621E-01 -4.229346426E-01 5.280373030E-02
 8.124336424E-01 4.906741667E-02 -2.159808408E-01
 8.071386530E-01 6.961378092E-02 -2.172961421E-01
 7.740936882E-01 5.122983604E-02 -2.569156622E-01
 7.752188136E-01 8.596009042E-02 -2.408400062E-01
 7.854106024E-01 6.233193019E-02 -2.422789341E-01
 6.910606840E-01 -6.279947466E-02 5.124629163E-02
 6.574302879E-01 -4.846252766E-02 1.074968998E-02
 6.636334357E-01 -7.182291945E-02 1.443446844E-02
 1.551697938E+00 -8.132182569E-03 2.062460200E-02
 8.982937723E-01 3.151933806E-02 -1.082497753E-01
 4.771406052E-01 7.709261962E-02 -4.790098902E-01
 4.884264276E-01 9.598557927E-02 -4.549974761E-01
 4.664976918E-01 9.305962571E-02 -4.605772567E-01
 4.402503579E-01 9.708286990E-02 -4.518779239E-01
 4.644831117E-01 7.530076052E-02 -4.823142449E-01
 6.452842992E-01 7.713880176E-02 -3.808704130E-01
 4.105630373E-01 9.527988408E-02 -4.496637962E-01
 7.851138185E-01 4.797757334E-02 -2.473695515E-01
 7.603843907E-01 5.460760499E-02 -2.698498212E-01
 7.542676317E-01 7.193534555E-02 -2.698890362E-01
 7.346132535E-01 6.843542674E-02 -2.917034507E-01
 7.130527222E-01 7.365237862E-02 -3.131108739E-01
 8.807954827E-01 -1.222996393E-02 2.864298648E-01
 8.779648132E-01 -3.054083737E-02 2.648981709E-01
 8.958109598E-01 -2.434713847E-02 2.839874708E-01
 8.600299505E-01 -2.714183860E-02 2.528276329E-01
 8.599673765E-01 -4.773706322E-02 2.323783437E-01
 9.440674835E-01 2.210102066E-02 -4.627728893E-04
 4.372978304E-01 7.577885151E-02 -4.790675263E-01
 8.246925563E-01 4.445625203E-02 -2.048211825E-01
 5.519291510E-01 7.125477080E-02 -4.656938465E-01
 6.420269047E-01 -4.498755309E-02 -1.003370659E-02
 6.410049434E-01 -6.228490118E-02 -1.678159673E-02
 6.167387335E-01 -6.618975557E-02 -5.354096428E-02
 6.375684013E-01 -9.376065409E-02 -2.305621374E-02
 5.917795811E-01 -8.904277743E-02 -9.238296914E-02
 5.645061948E-01 -5.875037549E-02 -1.434834301E-01
 5.502187194E-01 -1.178559461E-01 -1.451599442E-01
 5.098426901E-01 -1.041905508E-01 -2.182037138E-01
 4.770680439E-01 -9.942609653E-02 -2.712085328E-01
 6.627377452E-01 6.218605951E-02 -3.741634264E-01
 4.235615199E-01 7.883361828E-02 -4.723398796E-01
 4.576827158E-01 -6.628299781E-02 -3.529495404E-01
 4.540069393E-01 -8.397320625E-02 -3.255446116E-01
 4.201016431E-01 -6.899153179E-02 -4.047865490E-01
 4.283858860E-01 -9.955390931E-02 -3.403165838E-01
 7.226318960E-01 -3.492718265E-02 1.028693196E-01
 7.345349679E-01 -5.064487274E-02 1.084669771E-01
 6.733426738E-01 -5.396584195E-02 3.041731329E-02
 8.743286662E-01 3.543516995E-02 -1.504405429E-01
 1.039290354E-01 -8.862883955E-02 -1.471263446E-01
 7.482985804E-01 -2.684449815E-02 1.366314644E-01
 8.932054987E-01 -9.893323610E-03 2.963398121E-01
 3.852784345E-01 7.353563044E-02 -4.692395051E-01
 3.960067615E-01 7.279118870E-02 -4.743007448E-01
 5.575669980E-01 -7.728235485E-02 -1.502919439E-01
 6.976888871E-01 -4.064770561E-02 6.716590642E-02
 8.503765958E-01 4.038258068E-02 -1.776350283E-01
 6.164417882E-01 6.939591251E-02 -4.159096376E-01
 6.034235321E-01 -5.179987864E-02 -7.362032732E-02
 6.152984263E-01 -4.803358990E-02 -5.433761351E-02
 -1.894790283E-02 -3.034804076E-02 4.846734343E-01
 -2.161877914E-04 -1.373582365E-02 5.252273462E-01
 -2.250517470E-02 -5.608303550E-03 6.738408327E-01
 -9.235679409E-03 1.495745531E-02 5.597854756E-01
 4.719381886E-01 -7.038560384E-02 -3.195965497E-01
 2.552376190E+00 2.126854266E-01 4.922320073E-03
 1.131101553E+00 -6.597085294E-02 1.021094843E-01
 8.416105280E-01 -3.317986483E-02 2.308310153E-01
 8.101124817E-02 7.314857766E-02 -2.120669997E-01
 5.591007374E-02 5.359841094E-02 -1.796989360E-01
 8.806625730E-02 5.488550680E-02 -2.628561283E-01
 4.973563081E-01 -6.578130155E-02 -2.750187973E-01
 5.043969537E-01 8.733104169E-02 -4.623733811E-01
 -1.206735363E-01 2.649779144E-01 4.413656910E-02
 4.917948576E-01 -8.091984283E-02 -2.706240241E-01
 5.315042717E-01 -8.461846570E-02 -1.909156839E-01
 2.340097209E-01 -1.815508527E-01 -2.199521865E-01
 2.701766929E-01 -1.237710538E-01 -3.052729125E-01
 2.156101103E-01 -1.208265587E-01 -2.684832681E-01
 2.440512462E-01 -9.982650664E-02 -3.249190340E-01
 2.525452624E-01 -7.031136996E-02 -3.764914585E-01
 2.653249047E-01 -6.892609507E-02 -3.921018262E-01
 2.639964904E-01 -8.567724949E-02 -3.592730156E-01
 2.886983355E-01 -9.058373056E-02 -3.756032528E-01
 3.160993516E-01 -1.151796644E-01 -3.489961637E-01
 3.466197223E-01 -1.045556311E-01 -3.720722123E-01
 3.386546315E-01 -7.387549558E-02 -4.274075810E-01
 3.723653511E-01 -1.033087258E-01 -3.690649676E-01
 4.024702238E-01 -1.197057767E-01 -3.284517741E-01
 3.761202749E-01 -8.046184842E-02 -4.139698597E-01
 3.507316561E-01 -7.147274158E-02 -4.366748156E-01
 3.261456536E-01 -8.867277825E-02 -3.949464836E-01
 3.999690197E-01 -9.007155862E-02 -3.815429817E-01
 8.109357221E-01 -2.139820424E-02 2.123518457E-01
 7.996446875E-01 -2.148586618E-02 1.981024386E-01
 9.238691316E-01 -9.005278472E-03 3.149439740E-01
 9.144242083E-01 -7.427454549E-03 3.132198073E-01
 1.684319687E-01 -1.530103493E-01 -1.949251762E-01
 5.959573338E-01 -6.541264528E-02 -8.584422468E-02
 5.790781990E-01 -6.718585807E-02 -1.157989520E-01
 7.111053333E-01 5.721795378E-02 -3.223845974E-01
 3.364835729E-03 -3.852104049E-02 3.310459895E-01
 2.017491240E-02 -2.477083592E-02 9.822110007E-02
 2.223196515E-02 -5.039918702E-02 1.362885717E-01
 4.508412894E-02 -5.035640117E-02 -4.301314883E-02
 6.326681390E-02 -6.100245452E-02 -1.102431476E-01
 9.268370001E-02 -5.155746476E-02 -2.032346372E-01
 1.050298975E-01 -6.450435122E-02 -2.103109817E-01
 1.030514045E-01 -5.015773697E-02 -2.262505664E-01
 3.670665357E-01 8.555358877E-02 -4.484589772E-01
 7.337799873E-01 5.390788378E-02 -3.003876854E-01
 -6.464742613E-04 3.790461700E-02 1.623911225E-01
 6.180785124E-03 2.160689278E-02 7.980024400E-02
 6.853842795E-03 1.367091207E-02 -1.084053940E-01
 1.667194807E-02 2.243336274E-02 -9.578497505E-02
 1.597799772E-02 3.504474826E-02 -1.626740079E-02
 3.284144645E-02 4.106127747E-02 -9.445722834E-02
 1.133995380E-02 1.712306486E-02 -3.533521080E-02
 5.835179941E-01 1.239930439E-01 -3.874471558E-01
 5.543462494E-01 -6.631419574E-01 -2.127887091E-02
 1.737440206E+00 -1.713095717E-01 2.132187000E-02
 2.407062953E-01 -8.011784150E-02 -3.494180008E-01
 2.167821660E-01 -8.680198881E-02 -3.241765864E-01
 2.040223154E-01 -6.825939126E-02 -3.298897389E-01
 1.926270499E-01 -8.555510695E-02 -2.956436613E-01
 1.669197477E-01 -8.557845326E-02 -2.708823271E-01
 2.158524078E-01 -6.714255597E-02 -3.429386091E-01