TITLE     = "Visualization of the solution"
VARIABLES = "x"
"y"
"Pressure_Coefficient"
ZONE T="Zone"
 STRANDID=0, SOLUTIONTIME=0
 Nodes=700, Elements=1185, ZONETYPE=FEQuadrilateral
 DATAPACKING=POINT
 DT=(DOUBLE DOUBLE DOUBLE )
 9.998569489E-01 5.047495943E-04 2.147393053E-01
 9.843363762E-01 3.530642483E-03 1.828728566E-01
 9.702661037E-01 6.194767542E-03 1.201544387E-01
 9.541876316E-01 9.352630004E-03 5.966354521E-02
 9.393669367E-01 1.220200956E-02 2.683572895E-02
 9.261368513E-01 1.471402030E-02 -5.061201542E-04
 9.144327044E-01 1.694844104E-02 -2.818294883E-02
 9.024903178E-01 1.922815107E-02 -6.034081629E-02
 8.906949759E-01 2.147325873E-02 -8.734544240E-02
 8.784671426E-01 2.371027134E-02 -1.128699969E-01
 8.664548993E-01 2.588619851E-02 -1.337274298E-01
 8.541628122E-01 2.802016400E-02 -1.476592151E-01
 8.422522545E-01 3.007850982E-02 -1.727826443E-01
 8.312637210E-01 3.198061138E-02 -1.935878367E-01
 8.197131753E-01 3.387381136E-02 -2.062874017E-01
 8.075361848E-01 3.584289923E-02 -2.238015700E-01
 7.952495217E-01 3.778957203E-02 -2.342149588E-01
 7.833783031E-01 3.961987048E-02 -2.550381435E-01
 7.713579535E-01 4.148175195E-02 -2.725106518E-01
 7.598571181E-01 4.316535220E-02 -2.857783213E-01
 7.473235726E-01 4.499734566E-02 -3.036157732E-01
 7.341791987E-01 4.684510455E-02 -3.184453806E-01
 7.234530449E-01 4.832465202E-02 -3.309175205E-01
 7.122167945E-01 4.982041195E-02 -3.450889143E-01
 7.007133961E-01 5.133633688E-02 -3.632379269E-01
 6.880161762E-01 5.294167250E-02 -3.750572543E-01
 6.752591729E-01 5.448133498E-02 -3.932679346E-01
 6.643720269E-01 5.578131229E-02 -4.100671150E-01
 6.525993347E-01 5.709708109E-02 -4.168212844E-01
 6.414032578E-01 5.829371139E-02 -4.322986383E-01
 6.297057867E-01 5.953266844E-02 -4.529295082E-01
 6.182042956E-01 6.066353619E-02 -4.595134649E-01
 6.075707674E-01 6.163097173E-02 -4.690044369E-01
 5.959033966E-01 6.266558170E-02 -4.853722409E-01
 5.842576623E-01 6.362601370E-02 -4.948798403E-01
 5.707771778E-01 6.463574618E-02 -5.052314360E-01
 5.579438210E-01 6.551053375E-02 -5.106016512E-01
 5.451167226E-01 6.629557908E-02 -5.186720805E-01
 5.336482525E-01 6.694031507E-02 -5.261356306E-01
 5.215845704E-01 6.754676998E-02 -5.290160997E-01
 5.091052055E-01 6.807392091E-02 -5.364616400E-01
 4.983633459E-01 6.848347932E-02 -5.360969337E-01
 4.852518141E-01 6.886620820E-02 -5.345645957E-01
 4.725512266E-01 6.918687373E-02 -5.402062477E-01
 4.591421187E-01 6.944024563E-02 -5.376231041E-01
 4.454912543E-01 6.957697123E-02 -5.355001467E-01
 4.327886105E-01 6.965370476E-02 -5.374967887E-01
 4.197286367E-01 6.964451820E-02 -5.341599991E-01
 4.069927335E-01 6.954487413E-02 -5.314975637E-01
 3.939136267E-01 6.937450171E-02 -5.297818952E-01
 3.816548288E-01 6.913247705E-02 -5.234225344E-01
 3.698285222E-01 6.883946806E-02 -5.196600152E-01
 3.565734327E-01 6.844609976E-02 -5.197287097E-01
 3.440479934E-01 6.800121814E-02 -5.147718992E-01
 3.313176930E-01 6.745284051E-02 -5.095376423E-01
 3.207498789E-01 6.694898009E-02 -5.051435386E-01
 3.085580766E-01 6.630937755E-02 -5.013676704E-01
 2.960368991E-01 6.557536125E-02 -4.953669080E-01
 2.822881937E-01 6.468351185E-02 -4.917602766E-01
 2.702744901E-01 6.382479519E-02 -4.835984661E-01
 2.583727837E-01 6.288632751E-02 -4.770912345E-01
 2.459610850E-01 6.185814366E-02 -4.720124298E-01
 2.333874851E-01 6.071387976E-02 -4.653909395E-01
 2.213401198E-01 5.954203755E-02 -4.580013431E-01
 2.094978094E-01 5.829684809E-02 -4.492259424E-01
 1.976770312E-01 5.698271096E-02 -4.418130666E-01
 1.853901148E-01 5.552792177E-02 -4.338375867E-01
 1.735458970E-01 5.402978510E-02 -4.243256062E-01
 1.617709249E-01 5.244087055E-02 -4.166686681E-01
 1.500903964E-01 5.076682940E-02 -4.071536628E-01
 1.390369684E-01 4.907818884E-02 -3.948463242E-01
 1.277155131E-01 4.724418372E-02 -3.842971058E-01
 1.165523082E-01 4.532223195E-02 -3.718749389E-01
 1.058366150E-01 4.335657507E-02 -3.592380418E-01
 9.584516287E-02 4.140415415E-02 -3.482183445E-01
 8.502060920E-02 3.914869204E-02 -3.360941185E-01
 7.400095463E-02 3.668031469E-02 -3.156284027E-01
 6.415694952E-02 3.429241478E-02 -2.944187367E-01
 5.473387614E-02 3.182446212E-02 -2.730280642E-01
 4.591214284E-02 2.931734733E-02 -2.535788501E-01
 3.815462068E-02 2.690351382E-02 -2.257574371E-01
 3.127768636E-02 2.456698008E-02 -2.032633398E-01
 2.546504885E-02 2.239492536E-02 -1.592485278E-01
 2.118305489E-02 2.064603940E-02 -1.295351412E-01
 1.713627391E-02 1.884457283E-02 -7.394998478E-02
 1.401135605E-02 1.732169464E-02 -6.871972392E-02
 1.123643760E-02 1.584279165E-02 -4.434099584E-02
 9.227846749E-03 1.466717944E-02 -5.212511709E-03
 7.350598462E-03 1.347697992E-02 1.891545192E-03
 5.605637562E-03 1.226178557E-02 1.081036069E-01
 3.364686621E-03 1.046006754E-02 2.352567450E-01
 1.555098104E-03 8.712147363E-03 2.748924058E-01
 1.006517050E-04 6.924205925E-03 6.099103018E-01
 -1.285244711E-03 4.477747716E-03 6.724679674E-01
 -1.888090861E-03 2.560189227E-03 6.754370325E-01
 -2.091089264E-03 9.996547597E-04 9.001977649E-01
 -2.001282526E-03 -8.388708229E-04 7.604140111E-01
 -1.510947826E-03 -2.916347003E-03 1.070262641E+00
 -4.494792665E-04 -5.344975274E-03 9.374720837E-01
 1.189563540E-03 -7.883947343E-03 6.845761633E-01
 3.373670625E-03 -1.045814436E-02 7.142973607E-01
 5.360804964E-03 -1.239289436E-02 4.688235007E-01
 7.715485524E-03 -1.438859012E-02 4.386582058E-01
 9.522280656E-03 -1.577371918E-02 3.634757513E-01
 1.169675589E-02 -1.729417220E-02 2.994958148E-01
 1.420333888E-02 -1.890814863E-02 2.348573514E-01
 1.748757809E-02 -2.083542012E-02 1.579449628E-01
 2.070332505E-02 -2.256351896E-02 3.380172103E-02
 2.478937432E-02 -2.457696572E-02 1.484544693E-03
 3.012347035E-02 -2.695298381E-02 -5.230938236E-02
 3.571985662E-02 -2.921514772E-02 -8.628451686E-02
 4.247459769E-02 -3.168493509E-02 -1.406390289E-01
 4.995457456E-02 -3.417216986E-02 -1.736039458E-01
 5.874637514E-02 -3.682256117E-02 -2.017099532E-01
 6.745922565E-02 -3.922021016E-02 -2.326150283E-01
 7.771018893E-02 -4.179074243E-02 -2.471559675E-01
 8.753557503E-02 -4.405996203E-02 -2.755115137E-01
 9.818045050E-02 -4.632476717E-02 -2.918906251E-01
 1.094039232E-01 -4.854265228E-02 -3.107623790E-01
 1.209805235E-01 -5.064875260E-02 -3.262938636E-01
 1.326991320E-01 -5.263765901E-02 -3.379628396E-01
 1.433214247E-01 -5.433111265E-02 -3.544309600E-01
 1.547279805E-01 -5.601321161E-02 -3.649965004E-01
 1.667319834E-01 -5.766974017E-02 -3.744454637E-01
 1.783588827E-01 -5.916773528E-02 -3.858705902E-01
 1.901678145E-01 -6.058861315E-02 -3.985821486E-01
 2.007798553E-01 -6.176510453E-02 -4.091247526E-01
 2.122841179E-01 -6.296586990E-02 -4.186753630E-01
 2.244412750E-01 -6.412444264E-02 -4.318666352E-01
 2.362828553E-01 -6.515385211E-02 -4.437808329E-01
 2.479940355E-01 -6.607018411E-02 -4.524957125E-01
 2.601229250E-01 -6.691937149E-02 -4.620681839E-01
 2.712359726E-01 -6.760916114E-02 -4.724070881E-01
 2.836837173E-01 -6.827757508E-02 -4.823371102E-01
 2.955546975E-01 -6.879308820E-02 -4.884200301E-01
 3.083195686E-01 -6.924824417E-02 -4.937542466E-01
 3.201242685E-01 -6.955443323E-02 -5.027321892E-01
 3.326194286E-01 -6.974963844E-02 -5.059408115E-01
 3.430168629E-01 -6.982534379E-02 -5.094880390E-01
 3.544617891E-01 -6.979517639E-02 -5.088769581E-01
 3.656433821E-01 -6.966666877E-02 -5.098051166E-01
 3.766577244E-01 -6.942230463E-02 -5.060760934E-01
 3.886563480E-01 -6.904867291E-02 -4.987216369E-01
 4.013269842E-01 -6.849659979E-02 -4.867321007E-01
 4.135772288E-01 -6.785934418E-02 -4.759396467E-01
 4.261990488E-01 -6.704221666E-02 -4.598201155E-01
 4.385642111E-01 -6.612598151E-02 -4.388608927E-01
 4.511888325E-01 -6.507286429E-02 -4.192256115E-01
 4.633311331E-01 -6.394806504E-02 -3.983126050E-01
 4.757842124E-01 -6.269061565E-02 -3.775234178E-01
 4.879275858E-01 -6.134542078E-02 -3.526089463E-01
 5.001251101E-01 -5.990511551E-02 -3.242076986E-01
 5.133302212E-01 -5.824317411E-02 -2.936491069E-01
 5.263271928E-01 -5.656289682E-02 -2.676192326E-01
 5.386225581E-01 -5.488556251E-02 -2.430489419E-01
 5.517616868E-01 -5.303372070E-02 -2.149576896E-01
 5.648308396E-01 -5.110060796E-02 -1.829249342E-01
 5.779235959E-01 -4.918834940E-02 -1.585930264E-01
 5.909888148E-01 -4.718703777E-02 -1.359275507E-01
 6.041295528E-01 -4.518722743E-02 -1.089493842E-01
 6.172849536E-01 -4.314591363E-02 -8.957706877E-02
 6.307144165E-01 -4.101740196E-02 -6.446744397E-02
 6.442428231E-01 -3.887939081E-02 -3.969545319E-02
 6.572712064E-01 -3.682610020E-02 -2.102339775E-02
 6.704864502E-01 -3.471864760E-02 -2.414794925E-03
 6.826719642E-01 -3.275049850E-02 2.156570912E-02
 6.950408220E-01 -3.078270145E-02 4.106815420E-02
 7.096514702E-01 -2.846591733E-02 6.091137729E-02
 7.226157784E-01 -2.642365545E-02 7.907790161E-02
 7.339491844E-01 -2.462045848E-02 1.019496702E-01
 7.477433085E-01 -2.253361233E-02 1.130757840E-01
 7.602580786E-01 -2.054072358E-02 1.353642467E-01
 7.743058801E-01 -1.847571693E-02 1.558595331E-01
 7.865430713E-01 -1.663829386E-02 1.657862908E-01
 7.989915013E-01 -1.476042531E-02 1.942075651E-01
 8.103701472E-01 -1.316826232E-02 2.106706752E-01
 8.213974237E-01 -1.160058472E-02 2.229435960E-01
 8.338149190E-01 -9.935665876E-03 2.455192579E-01
 8.464950919E-01 -8.315701969E-03 2.599044896E-01
 8.588150740E-01 -6.809365004E-03 2.781649723E-01
 8.697764277E-01 -5.572592840E-03 2.931794711E-01
 8.808124661E-01 -4.381606355E-03 3.070351055E-01
 8.934972882E-01 -3.163720947E-03 3.214134774E-01
 9.038873315E-01 -2.287100768E-03 3.341577140E-01
 9.150689840E-01 -1.472511678E-03 3.371970445E-01
 9.256355762E-01 -8.160988218E-04 3.438151364E-01
 9.361072779E-01 -3.014816029E-04 3.491425554E-01
 9.486741424E-01 1.800827013E-04 3.486778813E-01
 9.626600742E-01 5.171594094E-04 3.592463312E-01
 9.766217470E-01 6.591024576E-04 3.493226179E-01
 9.890435934E-01 6.291753380E-04 3.374849074E-01
 -5.000000000E-01 -1.000000000E+00 2.493289625E-02
 3.500000000E+00 -1.000000000E+00 1.713148853E-02
 3.500000000E+00 1.000000000E+00 1.877257438E-03
 -5.000000000E-01 1.000000000E+00 -1.158838739E-03
 -5.000000000E-01 5.000000000E-01 3.649281512E-02
 -5.000000000E-01 2.752797990E-12 1.049646022E-01
 -5.000000000E-01 -5.000000000E-01 6.111669673E-02
 -9.421907698E-13 -1.000000000E+00 1.347059515E-02
 5.000000000E-01 -1.000000000E+00 -1.497334400E-02
 1.000000000E+00 -1.000000000E+00 -3.478035389E-04
 1.500000000E+00 -1.000000000E+00 2.833034275E-02
 2.000000000E+00 -1.000000000E+00 2.700493636E-02
 2.500000000E+00 -1.000000000E+00 2.044116156E-02
 3.000000000E+00 -1.000000000E+00 1.735726616E-02
 3.500000000E+00 -5.000000000E-01 2.045491301E-02
 3.500000000E+00 -2.752797990E-12 2.051042515E-02
 3.500000000E+00 5.000000000E-01 9.854109365E-03
 3.000000000E+00 1.000000000E+00 -7.551804335E-04
 2.500000000E+00 1.000000000E+00 -6.843705575E-03
 2.000000000E+00 1.000000000E+00 -2.135116262E-02
 1.500000000E+00 1.000000000E+00 -5.800714830E-02
 1.000000000E+00 1.000000000E+00 -1.108328754E-01
 5.000000000E-01 1.000000000E+00 -1.008043558E-01
 1.733724275E-12 1.000000000E+00 -2.866632088E-02
 6.730785407E-01 -4.370840252E-02 2.567991471E-03
 7.830049731E-01 -2.652543306E-02 1.600078452E-01
 9.099528385E-01 -9.769977133E-03 3.218872332E-01
 5.846180153E-01 -6.366534706E-02 -1.419154852E-01
 6.952859793E-01 6.735171064E-02 -3.571264292E-01
 2.752526187E-01 7.773848536E-02 -4.678864038E-01
 9.076569615E-01 3.148551398E-02 -4.844223088E-02
 7.921472179E-01 5.014504976E-02 -2.372077801E-01
 2.299896901E-01 -7.764276234E-02 -4.130892319E-01
 5.942818933E-01 7.727287694E-02 -4.653104241E-01
 4.160619252E-01 8.114418570E-02 -5.177035955E-01
 4.118246141E-01 -8.304194347E-02 -4.445261793E-01
 1.841759435E+00 -5.674009440E-01 2.708095823E-02
 1.775267761E+00 6.553449536E-01 -1.813367960E-02
 3.031175253E+00 2.156842731E-01 1.198214048E-02
 7.804069409E-01 -6.340374607E-01 -8.464599469E-04
 4.836099986E-01 -7.593742204E-02 -3.398479462E-01
 3.116707844E-01 -6.362955334E-01 -4.797549057E-02
 1.240052276E-01 -6.282740101E-02 -3.010724089E-01
 3.392576753E-01 -8.287280006E-02 -4.796595855E-01
 7.348903158E-01 5.444716819E-01 -1.492281682E-01
 4.921039102E-01 7.882652929E-02 -5.206732218E-01
 2.889933336E-01 6.448068145E-01 -1.189221333E-01
 1.190130011E-01 5.730336963E-02 -3.505439334E-01
 1.787968154E-01 6.769695748E-02 -4.111482850E-01
 2.734847866E+00 -5.326915162E-01 1.720184967E-02
 1.175084684E+00 6.577988676E-01 -6.512404268E-02
 9.825918601E-01 3.188822652E-01 -6.340372499E-02
 8.487329270E-01 4.145165883E-02 -1.551912769E-01
 1.258802527E+00 -6.638262437E-01 3.643965200E-02
 1.488292147E+00 -2.316064515E-01 3.878284729E-02
 2.249837639E+00 -5.832930527E-01 1.928964381E-02
 2.036094316E+00 -1.988027872E-01 1.561571208E-02
 2.420194981E+00 -1.843126837E-01 1.283627639E-02
 2.184618257E+00 1.582246704E-01 7.574789082E-03
 1.828629338E+00 8.169607401E-02 1.142211890E-02
 -2.743201938E-01 2.323314905E-01 9.536449947E-02
 -1.077733526E-01 6.247237758E-01 -2.228260203E-02
 2.542819092E-02 3.298760730E-01 -5.075972365E-02
 4.537968770E-02 3.912464582E-02 -2.059941346E-01
 -2.713425319E-01 -2.368482969E-01 1.217359759E-01
 -6.849067179E-02 -6.053333655E-01 1.455791306E-02
 1.057702200E-01 -3.635994689E-01 -4.589400098E-02
 2.225140133E+00 5.686386760E-01 -3.393828805E-03
 2.743687659E+00 5.984251577E-01 4.202473476E-03
 -2.355827859E-01 -4.458743495E-03 1.644157994E-01
 -1.284390298E-01 1.267432398E-01 1.491654252E-01
 -1.101265557E-01 -1.273469510E-01 1.929551025E-01
 7.057088188E-02 -4.853636182E-02 -2.034836058E-01
 4.441256557E-02 -4.155080661E-02 -1.047346923E-01
 -6.819507465E-02 -3.208413461E-01 4.744052603E-02
 1.366052811E-03 -1.829124903E-01 6.510370893E-02
 1.648075678E-01 -2.268604468E-01 -1.510267652E-01
 2.889579887E-01 -8.284379107E-02 -4.570123785E-01
 3.135155086E-01 -8.326086720E-02 -4.693160600E-01
 2.630068156E-01 -7.765065484E-02 -4.448243956E-01
 1.827135488E-01 -7.426186471E-02 -3.653348370E-01
 1.560466710E-01 -7.009495826E-02 -3.368857751E-01
 -3.242856420E-02 -9.775799334E-02 2.304117907E-01
 2.133285583E-02 -2.696253074E-02 6.597472959E-02
 -1.100857626E-01 -2.335564742E-02 3.168258087E-01
 -7.133143772E-02 5.540693749E-02 3.163368201E-01
 2.205701435E-02 2.559263611E-02 -1.013148890E-01
 3.594706160E-02 -1.118518079E-01 3.759609482E-02
 3.109360413E+00 -2.612746967E-01 1.775421284E-02
 -5.121903171E-02 -3.899527023E-02 3.728539403E-01
 -5.162817783E-02 1.154881130E-02 4.843785675E-01
 -2.613266263E-02 5.175511880E-02 2.965479841E-01
 -3.476133076E-02 9.915908062E-02 1.672616383E-01
 3.199056019E-02 1.125183952E-01 -2.943882631E-02
 8.716722710E-02 5.171942766E-02 -2.973549359E-01
 6.055196533E-04 1.885460751E-01 1.406182360E-02
 8.506305157E-02 1.613137229E-01 -1.471388803E-01
 1.937323784E-01 2.925422387E-01 -2.067047506E-01
 3.510126525E-01 7.854062946E-02 -5.049610487E-01
 3.165491285E-01 8.058442740E-02 -4.859748092E-01
 2.254648195E-01 7.320645044E-02 -4.419739450E-01
 1.927042672E-01 1.810174024E-01 -2.797195335E-01
 -1.170454859E-01 2.660467908E-01 4.633862091E-02
 1.432868165E-01 4.572463995E-01 -1.015768042E-01
 8.048267403E-02 1.047343612E-01 -1.982136323E-01
 3.038273014E-01 4.066401590E-01 -2.117948695E-01
 3.196715563E-01 2.712474899E-01 -2.948417996E-01
 4.369936791E-01 3.094787095E-01 -2.913865774E-01
 2.885517619E-01 1.634748735E-01 -3.765836941E-01
 3.875711900E-01 2.126926950E-01 -3.673657735E-01
 5.230143499E-01 2.260432876E-01 -3.487262999E-01
 5.452740301E-01 7.787887656E-02 -5.022719593E-01
 5.609280515E-01 7.836900837E-02 -4.919148404E-01
 4.709155219E-01 1.583510920E-01 -4.253448430E-01
 4.492954867E-01 8.123832831E-02 -5.210993490E-01
 3.624604842E-01 1.521968655E-01 -4.148618210E-01
 5.559141666E-01 3.455539752E-01 -2.540262414E-01
 6.334802610E-01 2.375873150E-01 -2.950522347E-01
 6.473083874E-01 7.118343015E-02 -4.139044720E-01
 5.745369449E-01 1.758567867E-01 -3.792561289E-01
 6.710471469E-01 1.565595901E-01 -3.132194102E-01
 7.437104894E-01 5.733709966E-02 -3.000382034E-01
 7.192860696E-01 6.037852896E-02 -3.289134967E-01
 7.240192877E-01 2.268371922E-01 -2.383228499E-01
 7.578316255E-01 1.462481243E-01 -2.431680012E-01
 8.155253383E-01 1.974368489E-01 -1.708013069E-01
 8.441757367E-01 1.355048846E-01 -1.486471774E-01
 9.661390038E-01 2.179494448E-02 8.687948806E-02
 6.845449813E-01 3.596980947E-01 -2.089910124E-01
 6.230868965E-01 1.224857852E-01 -3.910293672E-01
 6.253240711E-01 6.985960008E-02 -4.449391034E-01
 7.944898559E-01 1.109464995E-01 -2.107015555E-01
 7.084853046E-01 1.250939917E-01 -3.066501209E-01
 4.557208984E-01 4.755625854E-01 -2.086273650E-01
 8.970867574E-01 2.048068758E-01 -9.013211301E-02
 9.393420202E-01 1.262612015E-01 -3.790413205E-02
 8.822100497E-01 8.932761273E-02 -9.354362169E-02
 8.743091323E-01 3.518542750E-02 -1.168171408E-01
 9.920240393E-01 1.960837006E-01 -1.963146505E-02
 1.117889543E+00 2.846506654E-01 -1.056819306E-02
 1.012958316E+00 1.183763890E-01 3.385963118E-02
 9.754693706E-01 7.408409891E-02 4.478756357E-02
 1.021702270E+00 5.418800954E-02 1.109745104E-01
 1.072148044E+00 8.222365960E-02 8.445325286E-02
 9.484788121E-01 2.493840573E-02 4.151536586E-02
 9.575904691E-01 4.507055461E-02 4.071094354E-02
 9.353714974E-01 4.078568762E-02 6.679496424E-03
 9.836588389E-01 3.925877240E-02 1.114356992E-01
 1.086387428E-02 -7.215746001E-02 1.866432336E-01
 -1.515395412E-02 -4.958322429E-02 3.728172713E-01
 9.348020851E-01 2.425582025E-02 1.026818249E-02
 9.152896736E-01 4.590269798E-02 -3.727698320E-02
 8.970849287E-01 4.329375324E-02 -7.030533851E-02
 1.435032108E-01 1.318939495E-01 -2.695958183E-01
 8.795990285E-01 5.107714956E-02 -1.025210074E-01
 8.477991257E-01 7.665293515E-02 -1.506979514E-01
 8.149551722E-01 4.556143273E-02 -2.072082870E-01
 8.162047770E-01 8.284142356E-02 -1.918679967E-01
 1.191427559E-01 9.699962219E-02 -2.738478748E-01
 1.458200481E-01 6.311110979E-02 -3.774827274E-01
 9.832741848E-01 1.747939289E-02 1.396425886E-01
 1.002766344E+00 2.086415792E-02 1.727786469E-01
 8.833662585E-03 7.088293712E-02 8.626341287E-02
 8.436317263E-01 3.051881775E-01 -1.496593311E-01
 8.636088150E-01 3.971455382E-02 -1.332770592E-01
 8.598351257E-01 5.903722013E-02 -1.342934295E-01
 8.405472259E-01 5.341201882E-02 -1.689637135E-01
 8.384052560E-01 4.054590976E-02 -1.751891361E-01
 7.801892094E-01 4.963577514E-02 -2.554596412E-01
 7.864451673E-01 6.627678003E-02 -2.385783269E-01
 7.609224825E-01 9.218895567E-02 -2.587554408E-01
 7.282767588E-01 9.999471885E-02 -2.947947261E-01
 7.600980109E-01 6.695910259E-02 -2.773795418E-01
 8.055814131E-01 5.932158186E-02 -2.151261735E-01
 4.829863596E-02 7.394460551E-02 -1.233104321E-01
 7.080759510E-02 4.528344824E-02 -2.754175623E-01
 2.928794510E-02 4.824456145E-02 -7.447150650E-02
 4.866016840E-03 4.144922206E-02 1.620274138E-01
 6.743199641E-03 1.690634288E-02 1.113906170E-01
 -1.643762147E-02 2.751810576E-02 5.424212998E-01
 9.133057081E-04 1.142911681E-02 4.141928976E-01
 1.117394943E-02 2.610075631E-02 4.967287166E-02
 1.206024333E-02 1.900323166E-02 -1.852534967E-02
 8.030807989E-01 4.616955006E-02 -2.235040888E-01
 7.688396043E-01 5.364351789E-02 -2.684868270E-01
 -2.089108367E-02 -1.617077112E-02 7.579073547E-01
 -2.532111921E-03 -1.228766728E-02 6.362017179E-01
 -1.698224091E-02 4.477339958E-03 7.687976995E-01
 -9.424332110E-03 7.723111639E-03 7.258312515E-01
 -1.248750804E-03 2.241350312E-02 2.600446255E-01
 9.222816289E-01 2.901536353E-02 -1.707955844E-02
 8.864405480E-01 3.426522950E-02 -9.443785232E-02
 8.277176961E-01 4.424401363E-02 -1.903716233E-01
 7.559657591E-01 5.322048360E-02 -2.842303123E-01
 9.288352370E-01 6.914617296E-02 -2.347135245E-02
 2.560163507E+00 2.066656254E-01 6.991999646E-03
 3.306329275E-02 3.302541231E-02 -1.539855101E-01
 4.063214412E-02 -7.522751824E-02 8.845766962E-03
 9.721549324E-02 -1.113022194E-01 -1.637811405E-01
 9.069589211E-02 -5.958399288E-02 -2.443671183E-01
 5.520101083E-01 6.794379435E-01 -1.599297453E-01
 6.995540935E-01 9.200997556E-02 -3.344775310E-01
 6.719896016E-01 6.376777182E-02 -3.904015117E-01
 6.825447013E-01 6.362272296E-02 -3.773001191E-01
 6.774635269E-01 7.884370327E-02 -3.697916038E-01
 6.774377261E-01 1.110042290E-01 -3.449742084E-01
 6.586731697E-01 8.879705733E-02 -3.825535756E-01
 6.267640774E-02 -2.583534839E-01 -3.084751420E-02
 2.689529910E-01 -3.137908807E-01 -1.619618706E-01
 2.768188583E-01 -1.959674214E-01 -2.711648119E-01
 3.681390689E-01 -2.565910912E-01 -2.243229584E-01
 3.644057883E-01 -1.670057759E-01 -3.233844653E-01
 4.523358926E-01 -1.933060917E-01 -2.410662833E-01
 5.353000772E-01 -6.784785511E-02 -2.411975888E-01
 4.470009087E-01 -7.571930019E-02 -4.086434094E-01
 3.698026406E-01 -8.137435604E-02 -4.785006955E-01
 4.719264290E-01 -2.943041825E-01 -1.494862968E-01
 5.450772021E-01 -2.222516397E-01 -1.408790926E-01
 5.244603425E-01 -1.524084491E-01 -2.026041915E-01
 5.989264345E-01 -1.524382473E-01 -1.005007253E-01
 6.411043866E-01 -5.376171318E-02 -4.754649913E-02
 6.306535202E-01 -2.155832320E-01 -5.857803853E-02
 6.883987512E-01 -1.534024520E-01 6.809510492E-04
 7.308658754E-01 -3.457811656E-02 8.950385908E-02
 7.307673601E-01 -2.330373760E-01 1.952148735E-02
 8.524785281E-01 -1.665902425E-02 2.580211312E-01
 8.282808222E-01 -2.236837970E-02 2.268070901E-01
 7.807186247E-01 -1.539587577E-01 9.340810088E-02
 8.197346952E-01 -2.258059725E-01 8.538633671E-02
 9.689766314E-01 -1.047420440E-02 3.435805395E-01
 9.411975583E-01 -1.123698730E-02 3.346655314E-01
 8.839763641E-01 -1.473366327E-01 1.591958381E-01
 9.318692063E-01 -2.470455029E-01 1.052011379E-01
 9.928466044E-01 -1.554634507E-01 1.691149972E-01
 1.059550359E+00 -2.808389892E-01 9.701868859E-02
 1.120252102E+00 -1.655609147E-01 1.133021019E-01
 1.192309546E+00 -2.913284784E-01 7.402065805E-02
 8.287226485E-01 -9.605958491E-02 1.616733938E-01
 9.069270767E-01 -8.960585076E-02 2.135074357E-01
 7.761342562E-01 -9.272555451E-02 1.183148582E-01
 7.544840554E-01 -3.213039250E-02 1.225284870E-01
 9.486133282E-01 -4.344081393E-01 5.297101253E-02
 2.048146321E-01 -1.570827238E-01 -2.611413763E-01
 1.292694937E+00 -1.512661788E-01 6.024464565E-02
 1.053769633E+00 -6.922037714E-02 1.778853738E-01
 8.616283842E-01 -6.300624384E-02 2.181879082E-01
 1.082656760E+00 1.289681082E-02 1.261198194E-01
 1.150703966E+00 6.685530958E-02 7.178627270E-02
 9.884785817E-01 -8.319763817E-02 2.202498314E-01
 6.176490791E-01 -3.111896771E-01 -6.254603913E-02
 3.064357094E-01 -1.328649439E-01 -3.701270069E-01
 6.446584203E-01 -1.118493196E-01 -4.592599976E-02
 6.967755636E-01 -9.137412195E-02 2.449318633E-02
 7.035628293E-01 -4.225329952E-02 4.774190655E-02
 4.190544343E-01 -1.403178795E-01 -3.381972510E-01
 5.561545284E-01 -1.092096457E-01 -1.796917130E-01
 5.592113018E-01 -6.539702729E-02 -1.925799298E-01
 8.033296060E-01 -6.347144573E-02 1.621858473E-01
 8.052203338E-01 -2.588511781E-02 1.933656651E-01
 8.326080612E-01 -5.282218307E-02 2.033052466E-01
 4.994997839E-01 -4.503634597E-01 -7.697783986E-02
 3.493516884E-01 -1.189494230E-01 -4.068785450E-01
 3.857612356E-01 -1.174654122E-01 -3.927693533E-01
 1.012631168E+00 -3.666469931E-02 2.426473243E-01
 5.163950404E-01 -1.125548508E-01 -2.438846746E-01
 5.096757578E-01 -7.224796753E-02 -2.903178445E-01
 4.723089105E-01 -1.239358590E-01 -2.942686640E-01
 6.675231501E-01 -7.645821718E-02 -1.285746437E-02
 7.851091942E-01 -3.614226840E-01 3.402998788E-02
 1.019181960E+00 -6.387403720E-01 3.058965033E-02
 1.169718701E+00 -4.875622729E-02 9.685062210E-02
 1.401236683E-01 -1.492930862E-01 -2.027016509E-01
 1.758860095E-01 -1.186292980E-01 -2.800532345E-01
 1.417091067E-01 -1.066310564E-01 -2.492490482E-01
 2.157117545E-01 -1.127188485E-01 -3.401988623E-01
 2.057540307E-01 -7.489008460E-02 -3.925405928E-01
 2.555377640E-01 -1.370100243E-01 -3.418674575E-01
 7.720740342E-01 -5.950271059E-02 1.300060769E-01
 7.405439806E-01 -7.286010453E-02 8.478716934E-02
 7.696925335E-01 -3.591692444E-02 1.394225998E-01
 8.412609285E-01 -2.044138619E-02 2.422569449E-01
 8.515137824E-01 -3.395165623E-02 2.425679604E-01
 8.787731737E-01 -1.749492261E-02 2.854365211E-01
 8.733700561E-01 -3.632547443E-02 2.596395411E-01
 9.136870831E-01 -4.755359681E-02 2.667320255E-01
 8.892464549E-01 -1.281642633E-02 3.037051966E-01
 1.040622662E+00 8.853127019E-03 1.634170259E-01
 8.194023208E-01 -3.817303808E-02 1.988525898E-01
 3.725565951E-01 -3.895231651E-01 -1.237377638E-01
 9.796082384E-01 -4.634127611E-02 2.595857231E-01
 2.489918837E-01 -1.066465634E-01 -3.811289051E-01
 2.477757540E-01 -8.578877942E-02 -4.178708431E-01
 2.735547094E-01 -1.001924707E-01 -4.108010946E-01
 3.014544993E-01 -9.667795157E-02 -4.357619192E-01
 3.262699402E-01 -9.897460430E-02 -4.398719213E-01
 9.454950291E-01 -6.820421518E-02 2.582000052E-01
 9.431146259E-01 -1.104794382E-01 2.088179824E-01
 9.439831956E-01 -3.903647034E-02 3.007144243E-01
 7.196542212E-01 -3.927083849E-02 7.229929085E-02
 7.151985406E-01 -5.899715937E-02 5.737981394E-02
 6.918552899E-01 -6.141732715E-02 2.605774431E-02
 7.360559503E-01 -1.119934019E-01 6.241353669E-02
 4.394102269E-01 -1.118848226E-01 -3.549614755E-01
 7.929592390E-01 -2.507097465E-02 1.764869663E-01
 7.922404343E-01 -3.922080634E-02 1.658742047E-01
 4.095372437E-01 -1.033861333E-01 -4.069909934E-01
 6.327804295E-01 -8.085340019E-02 -6.417342650E-02
 6.109699616E-01 -5.426882856E-02 -9.837093690E-02
 6.599699680E-01 -5.853400395E-02 -2.025360317E-02
 6.034167031E-01 -1.088324697E-01 -1.058818869E-01
 8.169342095E-01 -2.223907652E-02 2.126838323E-01
 2.364241846E-01 -4.646113193E-01 -5.431614456E-02
 4.600044887E-01 -7.792825799E-02 -3.821833463E-01
 4.331955429E-01 -7.756836016E-02 -4.221003810E-01
 6.235209105E-01 -5.748060968E-02 -7.557131622E-02
 8.641211737E-01 -1.946883923E-02 2.700969704E-01
 5.229448913E-01 -6.766571311E-02 -2.665487976E-01
 5.266650262E-01 -8.571780440E-02 -2.450660713E-01
 4.976605690E-01 -9.188414509E-02 -2.957515223E-01
 4.735311354E-01 -9.203914607E-02 -3.351392994E-01
 4.514424630E-01 -9.387534680E-02 -3.702896109E-01
 5.490756308E-01 -7.939299421E-02 -2.053191170E-01
 5.732825143E-01 -8.202236269E-02 -1.583610038E-01
 5.719732534E-01 -6.227473888E-02 -1.686962968E-01
 9.984503603E-01 -2.502251521E-02 4.005140173E-01
 1.013423909E+00 -4.460681981E-03 2.387388666E-01
 9.857384417E-01 -1.576529116E-02 3.641156318E-01
 9.555384655E-01 -1.202094631E-02 3.399527977E-01
 9.636260551E-01 -2.638914024E-02 3.086567107E-01
 9.299852674E-01 -2.341631043E-02 3.047717514E-01
 7.428098087E-01 -3.600239926E-02 1.046118665E-01
 7.527117326E-01 -5.138242839E-02 1.111283455E-01
 8.368937524E-02 -1.734289224E-01 -8.359246406E-02
 5.466201817E-01 -6.404061006E-01 -4.101981360E-02
 3.469555285E-01 -9.738245144E-02 -4.485580371E-01
 3.546625106E-01 -8.503428407E-02 -4.737427163E-01
 3.657988691E-01 -9.902535964E-02 -4.427767284E-01
 3.847328637E-01 -9.368617582E-02 -4.462178019E-01
 9.000834575E-01 -1.249400768E-02 3.112105903E-01
 8.937053860E-01 -2.810615163E-02 2.863193685E-01
 9.110667994E-01 -2.173364785E-02 3.093953122E-01
 5.962956737E-01 -8.364622340E-02 -1.146338246E-01
 7.117638615E-01 7.487286920E-02 -3.297986747E-01
 3.262057728E-01 -8.017650104E-02 -4.792964383E-01
 6.871622644E-01 -4.450571796E-02 2.407223073E-02
 1.719357554E+00 -2.060916139E-01 2.584862332E-02
 1.505571465E+00 -2.298943054E-03 2.799115244E-02
 1.550356535E+00 3.156037216E-01 -1.061593403E-03
 1.378878189E+00 1.818472633E-01 1.483141734E-02
 1.300290481E+00 3.959417367E-01 -1.675228739E-02
 1.460199892E+00 6.049378559E-01 -2.423760240E-02
 9.098817896E-01 4.818758371E-01 -1.061988716E-01
 8.119778163E-01 7.272640550E-01 -1.273277901E-01
 7.204447061E-02 -7.835476250E-02 -1.212993596E-01
 5.243043611E-02 -5.771182593E-02 -9.685229828E-02
 3.210533228E-02 -5.545628613E-02 3.126417365E-02
 3.160003982E-02 -3.558056707E-02 -6.849372122E-03
 1.254521964E-02 -4.115330822E-02 2.031853609E-01
 1.144429681E-02 -2.089918050E-02 2.969983358E-01
 -1.577225366E-03 -2.585884717E-02 5.629797755E-01
 4.990859252E-03 -1.540496046E-02 5.274291277E-01
 3.015505975E-01 -7.965415211E-02 -4.683687273E-01
 3.133974596E+00 6.339745962E-01 3.690529863E-03
 7.333223167E-01 7.191409763E-02 -3.052430669E-01
 1.941791683E-01 -8.945480901E-02 -3.516974693E-01
 1.667760876E-01 -8.750566800E-02 -3.202849053E-01
 9.472176007E-01 -2.307786152E-02 3.159487039E-01
 1.000618138E-01 -8.067467146E-02 -2.218568786E-01
 1.085724911E-01 -6.636565405E-02 -2.667145539E-01
 6.620676746E-01 6.924505933E-02 -3.990385820E-01
 6.361964639E-01 8.613806801E-02 -4.123602920E-01
 6.107975366E-01 9.563041229E-02 -4.297873653E-01
 6.120193759E-01 7.645868380E-02 -4.534310283E-01
 5.809262859E-01 1.012249777E-01 -4.474318919E-01
 3.133974596E+00 -6.339745962E-01 1.669934413E-02
 7.882787179E-02 7.471101254E-02 -2.328486709E-01
 1.042735000E-01 7.679410341E-02 -2.715708669E-01
 1.285319443E-01 7.206511009E-02 -3.377189791E-01
 1.455309231E-01 8.696546050E-02 -3.377485258E-01
 1.903942890E-01 1.131533391E-01 -3.594959413E-01
 2.014153105E-01 6.969383463E-02 -4.256704557E-01
 2.393733664E-01 1.388323762E-01 -3.677786260E-01
 2.244747483E-01 1.069663573E-01 -3.914235595E-01
 2.509971824E-01 7.483846131E-02 -4.560929380E-01
 2.576832124E-01 1.068662056E-01 -4.146478888E-01
 2.952652452E-01 1.223720454E-01 -4.200411724E-01
 3.365794800E-01 1.174297196E-01 -4.523969010E-01
 1.014952628E-01 5.994587770E-02 -3.115207759E-01
 5.360475334E-02 5.336896973E-02 -1.962322023E-01
 1.724684851E-01 8.950843749E-02 -3.628987317E-01
 1.623110264E-01 7.001277039E-02 -3.888167784E-01
 4.957998043E-01 -7.226401419E-02 -3.188415398E-01
 6.365103537E-01 6.897025190E-02 -4.323789524E-01
 8.968735464E-01 2.994918131E-02 -7.170910118E-02
 1.898021043E-01 8.148231429E-02 -3.986652800E-01
 1.138462698E+00 -4.515586316E-01 5.576891681E-02
 4.712521936E-01 -7.450870136E-02 -3.658773600E-01
 1.701254347E-01 -6.973999328E-02 -3.561658597E-01
 5.244386423E-01 1.661743964E-01 -4.084395567E-01
 5.048823922E-01 1.294892539E-01 -4.539288051E-01
 5.148041000E-01 7.719188575E-02 -5.197802709E-01