TITLE     = "Visualization of the solution"
VARIABLES = "x"
"y"
"Pressure_Coefficient"
ZONE T="Zone"
 STRANDID=0, SOLUTIONTIME=0
 Nodes=718, Elements=1221, ZONETYPE=FEQuadrilateral
 DATAPACKING=POINT
 DT=(DOUBLE DOUBLE DOUBLE )
 1.000322700E+00 5.134797539E-04 2.217315126E-01
 9.880658984E-01 2.825506497E-03 2.244323948E-01
 9.753223658E-01 5.157809705E-03 1.277100602E-01
 9.597402811E-01 8.101943880E-03 8.775686787E-02
 9.451940060E-01 1.087557711E-02 3.129835673E-02
 9.303540587E-01 1.354167331E-02 8.179426486E-03
 9.183673859E-01 1.576941088E-02 -3.602818027E-02
 9.060625434E-01 1.802179404E-02 -5.855039484E-02
 8.937674761E-01 2.017811872E-02 -8.583459432E-02
 8.818510175E-01 2.230555378E-02 -1.168571663E-01
 8.696663976E-01 2.437300794E-02 -1.323972382E-01
 8.573169708E-01 2.637794986E-02 -1.549562788E-01
 8.450295925E-01 2.838652208E-02 -1.705279028E-01
 8.335531354E-01 3.013654426E-02 -1.811842558E-01
 8.221213818E-01 3.189770505E-02 -1.986000526E-01
 8.095567226E-01 3.376673907E-02 -2.092216325E-01
 7.966924906E-01 3.563760966E-02 -2.222969512E-01
 7.843419909E-01 3.741092235E-02 -2.389665942E-01
 7.718850374E-01 3.916671872E-02 -2.551947255E-01
 7.600784898E-01 4.078134522E-02 -2.658204651E-01
 7.467617989E-01 4.254266247E-02 -2.781318063E-01
 7.331588268E-01 4.433218017E-02 -2.967736793E-01
 7.224465013E-01 4.570661858E-02 -3.120986634E-01
 7.114197612E-01 4.707770050E-02 -3.265937764E-01
 6.998668313E-01 4.846790433E-02 -3.330691082E-01
 6.866226792E-01 4.999485239E-02 -3.500180509E-01
 6.738306880E-01 5.147494376E-02 -3.706208036E-01
 6.634805202E-01 5.259151012E-02 -3.767368311E-01
 6.520119309E-01 5.377779528E-02 -3.885470974E-01
 6.405994296E-01 5.494406447E-02 -4.028667274E-01
 6.287482381E-01 5.608544499E-02 -4.184884433E-01
 6.175530553E-01 5.712113902E-02 -4.294145319E-01
 6.069039702E-01 5.802306160E-02 -4.370374484E-01
 5.945545435E-01 5.903795734E-02 -4.485426709E-01
 5.828790665E-01 5.992269889E-02 -4.565237375E-01
 5.695910454E-01 6.086211652E-02 -4.655845754E-01
 5.570604205E-01 6.165840104E-02 -4.758996110E-01
 5.446770787E-01 6.239017472E-02 -4.822584501E-01
 5.334573388E-01 6.295082718E-02 -4.858270340E-01
 5.216919780E-01 6.350715458E-02 -4.888208021E-01
 5.091603398E-01 6.400135905E-02 -4.936326565E-01
 4.980843067E-01 6.439594179E-02 -4.974308051E-01
 4.847854078E-01 6.477032602E-02 -4.970133433E-01
 4.715824723E-01 6.505255401E-02 -4.932134914E-01
 4.576676190E-01 6.526775658E-02 -4.961193994E-01
 4.443621039E-01 6.541550905E-02 -4.980468261E-01
 4.316118658E-01 6.545638293E-02 -4.937336708E-01
 4.187457860E-01 6.542745233E-02 -4.933143473E-01
 4.064506888E-01 6.534153223E-02 -4.900759789E-01
 3.940796852E-01 6.516817212E-02 -4.872505459E-01
 3.821127117E-01 6.495527178E-02 -4.842077578E-01
 3.704626262E-01 6.467256695E-02 -4.792442952E-01
 3.574353158E-01 6.430631876E-02 -4.775319771E-01
 3.450065255E-01 6.388143450E-02 -4.727876944E-01
 3.323424459E-01 6.337994337E-02 -4.706088948E-01
 3.213660419E-01 6.288676709E-02 -4.656645740E-01
 3.087001145E-01 6.224933267E-02 -4.600687155E-01
 2.957951725E-01 6.152796000E-02 -4.541957227E-01
 2.819568217E-01 6.067549065E-02 -4.491903969E-01
 2.696130872E-01 5.983344465E-02 -4.436703886E-01
 2.577758133E-01 5.896336585E-02 -4.369631166E-01
 2.452558577E-01 5.797193572E-02 -4.336693419E-01
 2.329119891E-01 5.692423135E-02 -4.276184336E-01
 2.206897885E-01 5.580154061E-02 -4.187403269E-01
 2.089450210E-01 5.464402214E-02 -4.145946854E-01
 1.973612309E-01 5.343784019E-02 -4.088831048E-01
 1.851714104E-01 5.208117142E-02 -4.000046872E-01
 1.733130664E-01 5.067345500E-02 -3.925733025E-01
 1.620210409E-01 4.925255105E-02 -3.834822273E-01
 1.501030326E-01 4.764689505E-02 -3.731316444E-01
 1.393843144E-01 4.612229392E-02 -3.650644039E-01
 1.278613061E-01 4.439087957E-02 -3.540929169E-01
 1.163990349E-01 4.254316539E-02 -3.448192520E-01
 1.058514938E-01 4.073794931E-02 -3.375230843E-01
 9.602314234E-02 3.894262388E-02 -3.216555855E-01
 8.490313590E-02 3.677406907E-02 -3.067380819E-01
 7.329954952E-02 3.433245048E-02 -2.896450157E-01
 6.326006353E-02 3.204393387E-02 -2.764636875E-01
 5.341390520E-02 2.959593013E-02 -2.545241681E-01
 4.461480305E-02 2.721373178E-02 -2.314644382E-01
 3.705693781E-02 2.496616356E-02 -2.018601840E-01
 3.033964150E-02 2.277767658E-02 -1.671816160E-01
 2.470756695E-02 2.076255158E-02 -1.458284080E-01
 2.064365335E-02 1.916482113E-02 -9.439767509E-02
 1.679491065E-02 1.752569899E-02 -7.207131808E-02
 1.385897212E-02 1.615466364E-02 -2.506441772E-02
 1.115895063E-02 1.477927901E-02 -4.767794382E-02
 9.162331931E-03 1.366803888E-02 -1.152243078E-02
 7.385141216E-03 1.259719301E-02 -8.913531527E-04
 5.775642581E-03 1.152969059E-02 1.056503599E-01
 3.648316721E-03 9.929833002E-03 2.637856629E-01
 1.840338926E-03 8.306412026E-03 1.601938347E-01
 3.272923059E-04 6.598498672E-03 6.833465531E-01
 -1.090060221E-03 4.278782755E-03 1.011606704E+00
 -1.695110230E-03 2.481032629E-03 8.313220752E-01
 -1.870751730E-03 1.054411754E-03 1.536929249E+00
 -1.767044188E-03 -5.139444838E-04 1.080331868E+00
 -1.317374525E-03 -2.176953014E-03 1.005365536E+00
 -3.602822835E-04 -4.135275260E-03 8.488856458E-01
 1.097763889E-03 -6.147364154E-03 6.359512715E-01
 3.089184174E-03 -8.207479492E-03 4.750715392E-01
 4.917739425E-03 -9.759977460E-03 4.384843518E-01
 7.051643450E-03 -1.132333651E-02 2.805334202E-01
 8.713307790E-03 -1.241259277E-02 2.336495922E-01
 1.078343671E-02 -1.364878565E-02 1.579045510E-01
 1.316026598E-02 -1.494533196E-02 1.251162111E-01
 1.643371023E-02 -1.656251587E-02 6.237575745E-02
 1.942650788E-02 -1.790421084E-02 1.676569829E-02
 2.333912998E-02 -1.951176487E-02 -3.189070300E-02
 2.862849832E-02 -2.146829851E-02 -5.056952974E-02
 3.437457606E-02 -2.338975109E-02 -9.785035905E-02
 4.138150439E-02 -2.549902722E-02 -1.312048096E-01
 4.888800159E-02 -2.754609659E-02 -1.489124797E-01
 5.777725205E-02 -2.975194529E-02 -1.785913442E-01
 6.653738022E-02 -3.173793107E-02 -1.966880938E-01
 7.675547153E-02 -3.387004510E-02 -2.089331257E-01
 8.664022386E-02 -3.577072546E-02 -2.232569365E-01
 9.687059373E-02 -3.760743886E-02 -2.366574613E-01
 1.078825295E-01 -3.945314139E-02 -2.473242472E-01
 1.190573573E-01 -4.119547457E-02 -2.573874005E-01
 1.307486892E-01 -4.290872440E-02 -2.659962528E-01
 1.414916068E-01 -4.438516498E-02 -2.773788703E-01
 1.527628899E-01 -4.584930837E-02 -2.871791267E-01
 1.648955047E-01 -4.732433707E-02 -2.973874503E-01
 1.766327322E-01 -4.866773635E-02 -3.089028671E-01
 1.884905845E-01 -4.993406311E-02 -3.206845669E-01
 1.991887391E-01 -5.100647733E-02 -3.308203511E-01
 2.105932385E-01 -5.207700655E-02 -3.406472417E-01
 2.227402925E-01 -5.312702060E-02 -3.512730589E-01
 2.351589948E-01 -5.411689356E-02 -3.609953120E-01
 2.476389408E-01 -5.503257364E-02 -3.745711720E-01
 2.601116896E-01 -5.583316833E-02 -3.851194100E-01
 2.712180018E-01 -5.647017062E-02 -3.921156873E-01
 2.838951051E-01 -5.711977184E-02 -4.024527343E-01
 2.961944640E-01 -5.763109773E-02 -4.126140856E-01
 3.089524806E-01 -5.806844309E-02 -4.193440594E-01
 3.207049370E-01 -5.835628137E-02 -4.276463415E-01
 3.332970738E-01 -5.857191980E-02 -4.320810769E-01
 3.440859318E-01 -5.865544453E-02 -4.408382365E-01
 3.553366363E-01 -5.862655491E-02 -4.369972975E-01
 3.663550615E-01 -5.853310227E-02 -4.362512432E-01
 3.771364093E-01 -5.833006278E-02 -4.377054221E-01
 3.887309134E-01 -5.800983682E-02 -4.332750143E-01
 4.016033411E-01 -5.750621855E-02 -4.222459685E-01
 4.140484631E-01 -5.692040920E-02 -4.119392950E-01
 4.268916249E-01 -5.615300313E-02 -4.000683294E-01
 4.392963648E-01 -5.528065190E-02 -3.801297979E-01
 4.514455199E-01 -5.433315039E-02 -3.621902290E-01
 4.633665979E-01 -5.328874290E-02 -3.440018662E-01
 4.758174121E-01 -5.209549516E-02 -3.198808721E-01
 4.872775972E-01 -5.090055242E-02 -2.960876078E-01
 4.997548759E-01 -4.952459782E-02 -2.684584346E-01
 5.134470463E-01 -4.791987687E-02 -2.407367480E-01
 5.268219709E-01 -4.628178477E-02 -2.150316281E-01
 5.400525928E-01 -4.458021745E-02 -1.874739057E-01
 5.529648662E-01 -4.289146513E-02 -1.616368950E-01
 5.663071871E-01 -4.107288271E-02 -1.372214376E-01
 5.791633725E-01 -3.928375244E-02 -1.090168607E-01
 5.914143920E-01 -3.756989911E-02 -8.663113854E-02
 6.041740775E-01 -3.577402979E-02 -6.566204933E-02
 6.181835532E-01 -3.379052505E-02 -4.352663157E-02
 6.326110363E-01 -3.173761070E-02 -2.112063180E-02
 6.471819282E-01 -2.967304736E-02 1.418904803E-03
 6.601412892E-01 -2.781837247E-02 2.049845185E-02
 6.734479070E-01 -2.591437846E-02 4.235684595E-02
 6.862079501E-01 -2.412839420E-02 6.082773235E-02
 6.985158324E-01 -2.242473513E-02 7.420143092E-02
 7.131172419E-01 -2.041566744E-02 9.149815317E-02
 7.262753248E-01 -1.863616705E-02 1.062661635E-01
 7.379005551E-01 -1.704002172E-02 1.280757724E-01
 7.513403893E-01 -1.529906504E-02 1.430502080E-01
 7.634965777E-01 -1.369978953E-02 1.580068181E-01
 7.770749927E-01 -1.202468574E-02 1.750818842E-01
 7.891168594E-01 -1.055785082E-02 1.860268127E-01
 8.015708923E-01 -9.045945480E-03 2.040810129E-01
 8.126109242E-01 -7.771519944E-03 2.233143272E-01
 8.242736459E-01 -6.508820690E-03 2.339028441E-01
 8.371433616E-01 -5.193827674E-03 2.452728549E-01
 8.496340513E-01 -3.985672258E-03 2.576515576E-01
 8.616806269E-01 -2.894626930E-03 2.740432086E-01
 8.730549216E-01 -1.968157245E-03 2.859274092E-01
 8.849515319E-01 -1.122455345E-03 2.946521209E-01
 8.980794549E-01 -3.157186438E-04 3.020028149E-01
 9.082895517E-01 2.082235733E-04 3.099450832E-01
 9.188846946E-01 6.411274662E-04 3.116827015E-01
 9.288468361E-01 9.457342676E-04 3.142093662E-01
 9.378368258E-01 1.144936541E-03 3.182356950E-01
 9.499257207E-01 1.292434754E-03 3.079652522E-01
 9.629153013E-01 1.305332989E-03 3.166202928E-01
 9.767709970E-01 1.160477637E-03 3.131440055E-01
 9.891629815E-01 8.864747942E-04 3.249677114E-01
 -5.000000000E-01 -1.000000000E+00 2.779555583E-02
 3.500000000E+00 -1.000000000E+00 1.507876790E-02
 3.500000000E+00 1.000000000E+00 7.421640502E-04
 -5.000000000E-01 1.000000000E+00 -1.896036825E-03
 -5.000000000E-01 5.000000000E-01 2.987251196E-02
 -5.000000000E-01 2.752797990E-12 9.070781252E-02
 -5.000000000E-01 -5.000000000E-01 5.674287245E-02
 -9.421907698E-13 -1.000000000E+00 1.363757914E-02
 5.000000000E-01 -1.000000000E+00 1.871074536E-03
 1.000000000E+00 -1.000000000E+00 8.901827729E-03
 1.500000000E+00 -1.000000000E+00 2.858564457E-02
 2.000000000E+00 -1.000000000E+00 2.646705313E-02
 2.500000000E+00 -1.000000000E+00 1.939746941E-02
 3.000000000E+00 -1.000000000E+00 1.575347953E-02
 3.500000000E+00 -5.000000000E-01 1.805338477E-02
 3.500000000E+00 -2.752797990E-12 1.780492796E-02
 3.500000000E+00 5.000000000E-01 7.863288001E-03
 3.000000000E+00 1.000000000E+00 -1.742839325E-03
 2.500000000E+00 1.000000000E+00 -7.958473257E-03
 2.000000000E+00 1.000000000E+00 -2.226345181E-02
 1.500000000E+00 1.000000000E+00 -5.324192153E-02
 1.000000000E+00 1.000000000E+00 -9.613507982E-02
 5.000000000E-01 1.000000000E+00 -9.102031386E-02
 1.733724275E-12 1.000000000E+00 -2.974250623E-02
 6.807975197E-01 -3.999531790E-02 4.584244274E-02
 7.848547756E-01 -2.131061491E-02 1.757557535E-01
 9.040373238E-01 -1.140443896E-02 2.890291272E-01
 7.077938552E-01 5.876861999E-02 -3.206260278E-01
 2.756886546E-01 -6.828249189E-02 -3.760918246E-01
 2.748934073E-01 7.413187553E-02 -4.293171812E-01
 9.127453424E-01 2.659626423E-02 -4.521569513E-02
 8.173852888E-01 4.322686224E-02 -1.978425115E-01
 5.749509624E-01 -5.309073504E-02 -1.175388704E-01
 5.882151893E-01 6.878450560E-02 -4.413464687E-01
 4.096063310E-01 -6.922852296E-02 -3.928056865E-01
 4.164950524E-01 8.102396676E-02 -4.738432833E-01
 1.788906638E+00 -5.306026316E-01 2.565848621E-02
 1.729230599E+00 6.352824250E-01 -1.762885564E-02
 3.031173813E+00 2.156848391E-01 1.002532280E-02
 7.308113187E-01 -5.558705823E-01 7.323652752E-03
 4.819441644E-01 -6.208492201E-02 -2.925294269E-01
 7.500000000E-01 5.669872981E-01 -1.392086668E-01
 4.919700621E-01 7.936252404E-02 -4.761712650E-01
 3.013189325E-01 6.097783838E-01 -1.228483943E-01
 1.208374193E-01 5.440008445E-02 -3.259110651E-01
 1.871270973E-01 6.464128540E-02 -3.808115521E-01
 2.734852200E+00 -5.326873625E-01 1.552329939E-02
 1.166671408E+00 6.150970831E-01 -5.768657572E-02
 9.923828261E-01 3.597088254E-01 -6.499059663E-02
 1.195347413E+00 -6.873617772E-01 3.762524684E-02
 1.504742017E+00 -2.682781228E-01 3.455296431E-02
 2.500000000E-01 -5.669872981E-01 -3.566389016E-02
 8.025017274E-02 -4.541966773E-02 -1.874334000E-01
 1.347056215E-01 -5.332623601E-02 -2.556906391E-01
 1.925642260E-01 -6.063323059E-02 -3.096776885E-01
 2.241032647E+00 -5.771538143E-01 1.808446539E-02
 2.026078565E+00 -1.938890893E-01 1.482835044E-02
 2.420213995E+00 -1.843003256E-01 1.177269704E-02
 2.184634511E+00 1.582587516E-01 5.679371609E-03
 1.843880307E+00 8.016042562E-02 8.583303927E-03
 -2.710842558E-01 -2.547208169E-01 1.029931154E-01
 -1.560987143E-01 -5.699224676E-01 2.943772496E-02
 -2.742104780E-01 2.319545495E-01 7.960389758E-02
 -9.312384558E-02 6.087111526E-01 -2.642140407E-02
 2.312966132E-03 3.440173197E-01 -3.779031101E-02
 4.479741224E-02 3.810507663E-02 -1.819251885E-01
 2.206188180E+00 5.833758509E-01 -5.004880739E-03
 2.740528568E+00 6.008815682E-01 2.662689139E-03
 -2.509322800E-01 -9.353348461E-04 1.443776931E-01
 -1.421879853E-01 -1.291050046E-01 1.663280402E-01
 3.235408565E-02 -3.713794063E-01 7.554825159E-03
 2.773178709E-01 -3.177043156E-01 -1.093384237E-01
 3.494701971E-01 -6.772046347E-02 -4.169544810E-01
 3.151033419E-01 -6.625585538E-02 -4.085326630E-01
 -1.481386349E-01 1.214779711E-01 1.374961149E-01
 -1.263874797E-01 -1.697402924E-03 2.359378736E-01
 -5.743106527E-02 -6.665428661E-02 2.802490704E-01
 4.408305416E-02 -3.305736449E-02 -9.356205215E-02
 2.495767231E-02 -2.605016705E-02 -1.007135266E-02
 5.827550312E-02 -4.055203984E-02 -1.345439164E-01
 -5.039158028E-02 -1.504006692E-01 1.199159558E-01
 6.063759844E-03 -9.534909796E-02 1.284368440E-01
 2.745933380E-02 -2.000823790E-01 1.695423435E-02
 -1.484987058E-02 -5.135607688E-02 3.313757747E-01
 1.118794790E-02 -1.707773296E-02 2.037785521E-01
 -5.992083547E-02 1.237364633E-03 3.901334519E-01
 6.776345136E-02 -1.160600116E-01 -6.136988517E-02
 1.144183718E-01 -1.577903101E-01 -1.020460457E-01
 1.156062797E-01 -1.006649027E-01 -1.596718715E-01
 1.091993082E-01 -5.176027351E-02 -2.243080018E-01
 1.713777790E-01 -1.226630317E-01 -2.035432799E-01
 2.388457218E-01 -6.776140586E-02 -3.451162432E-01
 1.787331481E-01 -1.733532306E-01 -1.635206720E-01
 2.267438992E-01 -1.429881806E-01 -2.434549712E-01
 1.263598528E-01 -2.446695859E-01 -7.692622156E-02
 2.161270458E-01 -1.027995248E-01 -2.774886734E-01
 2.165106401E-01 -6.487108196E-02 -3.281004391E-01
 2.589365008E-01 -1.058412696E-01 -3.051383944E-01
 2.805532079E-01 -1.468540454E-01 -2.696317162E-01
 2.973569547E-01 -1.067121689E-01 -3.290657802E-01
 3.361968963E-01 -1.312117697E-01 -3.045619265E-01
 3.208444180E-01 -1.863497397E-01 -2.441319801E-01
 3.809325608E-01 -1.704841502E-01 -2.429929137E-01
 3.867485792E-01 -1.162825205E-01 -3.232497387E-01
 4.461841191E-01 -6.523370348E-02 -3.521724953E-01
 4.277630950E-01 -1.499922869E-01 -2.493164908E-01
 4.396322844E-01 -2.206535188E-01 -1.772138747E-01
 3.854229687E-01 -6.747173655E-02 -4.114570878E-01
 2.467146378E-01 -2.180005833E-01 -1.678466685E-01
 4.238193623E-01 -1.060923434E-01 -3.149566595E-01
 4.658620661E-01 -1.237411188E-01 -2.449895897E-01
 5.348933537E-01 -5.675276053E-02 -1.929256727E-01
 3.109362886E+00 -2.612711838E-01 1.561625674E-02
 1.659622230E-02 -6.033674822E-02 1.433091476E-01
 4.748076744E-02 -7.606623332E-02 -9.685489552E-03
 3.288478019E-01 -9.622296286E-02 -3.628950784E-01
 3.605940915E-01 -9.669077663E-02 -3.593639669E-01
 3.318998212E-01 -7.918784761E-02 -3.922100220E-01
 1.524844929E-01 -8.720699975E-02 -2.284201216E-01
 1.688916208E-01 -5.934243206E-02 -2.854666289E-01
 -2.744840952E-02 -2.250624058E-02 5.005660370E-01
 9.667181098E-04 -1.077506409E-02 4.613125998E-01
 2.903161533E-01 -6.954122878E-02 -3.862067948E-01
 2.810708343E-01 -8.571228597E-02 -3.541732179E-01
 3.027695308E-01 -8.413636467E-02 -3.705106622E-01
 3.042209638E-01 -6.881862744E-02 -3.976666177E-01
 3.861427305E-03 -4.046420019E-02 2.565620106E-01
 8.319474450E-02 -7.837614507E-02 -1.309901340E-01
 6.731538770E-02 -5.620285066E-02 -1.306266313E-01
 4.105521363E-02 -4.906502952E-02 -2.736290619E-02
 4.224312203E-01 -6.872199834E-02 -3.800824061E-01
 9.348269403E-02 -5.896470437E-02 -1.861545389E-01
 3.613589159E-01 -7.376166809E-02 -4.068496856E-01
 3.389955285E-01 -6.955352150E-02 -4.133590806E-01
 3.550075788E-01 -2.573825288E-01 -1.766187642E-01
 4.551577553E-01 -3.215969242E-01 -1.035729137E-01
 5.447925693E-01 -2.407202619E-01 -9.408784703E-02
 6.271493304E-01 -4.507703398E-02 -2.904660715E-02
 5.903264051E-01 -3.762860941E-01 -3.764286528E-02
 6.785228989E-01 -2.623710159E-01 3.260201013E-03
 6.403313107E-01 -1.654854957E-01 -3.141072800E-02
 7.390612137E-01 -2.821962203E-02 1.223233734E-01
 7.698975412E-01 -1.791549479E-01 7.613047436E-02
 8.444161107E-01 -1.521171760E-02 2.441411264E-01
 8.217887166E-01 -1.814510236E-02 2.204147406E-01
 8.630697283E-01 -1.244212009E-02 2.634731368E-01
 7.943675266E-01 -2.740079863E-01 6.019152651E-02
 9.697282403E-01 -9.758348450E-03 2.868553021E-01
 8.824454810E-01 -1.838391034E-01 1.283646965E-01
 9.264684522E-01 -3.168208372E-01 7.840427931E-02
 9.943829936E-01 -2.174709015E-01 1.202391927E-01
 8.170297544E-01 -1.231686528E-01 1.378798401E-01
 9.104324371E-01 -1.131673568E-01 1.826040392E-01
 7.318550613E-01 -1.158773064E-01 7.495419832E-02
 8.715649375E-01 -7.463071307E-02 2.085720414E-01
 7.849887718E-01 -7.772726975E-02 1.442049791E-01
 7.577159393E-01 -2.670067159E-02 1.437416743E-01
 1.067388291E+00 -3.007500172E-01 8.189692170E-02
 1.177546740E+00 -2.133142898E-01 7.967318157E-02
 1.111612656E+00 -1.001054837E-01 1.076311785E-01
 1.217713679E+00 -1.020879137E-01 7.333212892E-02
 1.153887199E+00 1.871378834E-02 7.436646740E-02
 1.308911335E+00 4.850324485E-03 4.149778773E-02
 1.193037550E+00 1.428009932E-01 3.070798503E-02
 1.083401576E+00 1.148779562E-01 5.143964393E-02
 9.696416363E-01 2.214469315E-02 9.752013392E-02
 1.368959320E+00 2.051492257E-01 1.035448497E-02
 5.541566371E-01 -1.566476096E-01 -1.149396651E-01
 6.022803061E-01 -1.120330150E-01 -6.977577380E-02
 6.715570960E-01 -1.078405241E-01 1.757160700E-02
 5.547104889E-01 -1.061137102E-01 -1.350542732E-01
 1.524985962E+00 -6.802232675E-03 2.318459801E-02
 1.080777168E+00 -1.561731588E-02 1.179485198E-01
 1.041113457E+00 -6.563659440E-02 1.728414161E-01
 1.059264541E+00 4.738319845E-02 9.503127962E-02
 9.915323255E-01 1.064361772E-01 2.818568989E-02
 8.637227183E-01 3.502826975E-02 -1.388861194E-01
 6.353139425E-01 -8.481786050E-02 -2.546697635E-02
 6.551497837E-01 -4.329620746E-02 1.008333850E-02
 9.688669316E-01 -4.905131068E-01 5.198665667E-02
 4.875270497E-01 -4.875039692E-01 -5.576601358E-02
 1.058821169E+00 2.093169835E-01 -8.414625500E-03
 9.412710985E-01 2.086541234E-01 -6.182514172E-02
 9.045065939E-01 1.109576262E-01 -7.376096281E-02
 8.443410038E-01 1.854026869E-01 -1.380644625E-01
 7.542884248E-01 5.197696608E-02 -2.663344256E-01
 7.825323655E-01 5.150832055E-02 -2.347303127E-01
 8.330599160E-01 1.115680385E-01 -1.574075241E-01
 8.557357698E-01 2.982467325E-01 -1.269897198E-01
 7.583355032E-01 2.447720755E-01 -1.921023100E-01
 6.464995802E-01 6.554883278E-02 -3.864746537E-01
 9.478403737E-01 7.738838918E-02 -4.700329702E-03
 9.388693566E-01 2.302074356E-02 1.490481882E-02
 7.718150123E-01 1.579003414E-01 -2.074743203E-01
 6.850415351E-01 1.817867308E-01 -2.733780071E-01
 6.627759127E-01 2.634482705E-01 -2.502021355E-01
 5.775975753E-01 2.005026883E-01 -3.227633149E-01
 5.372424133E-01 7.228490196E-02 -4.713929985E-01
 5.665744638E-01 7.508633557E-02 -4.519347668E-01
 5.531018954E-01 3.140429655E-01 -2.626135504E-01
 4.657585333E-01 2.340238041E-01 -3.213388639E-01
 3.396658736E-01 7.632516526E-02 -4.575368526E-01
 3.646471743E-01 7.623395084E-02 -4.654020747E-01
 3.878788772E-01 7.878399241E-02 -4.696923900E-01
 3.146950622E-01 7.568200141E-02 -4.468957873E-01
 6.214314168E-01 1.389881315E-01 -3.483874271E-01
 5.463199408E-01 1.431936690E-01 -3.883031078E-01
 6.758028656E-01 1.212993518E-01 -3.166149106E-01
 6.825209210E-01 5.968294877E-02 -3.504583218E-01
 4.366842042E-01 3.545930325E-01 -2.280280433E-01
 3.421896879E-01 2.617839481E-01 -2.872173307E-01
 3.895705069E-01 1.751148810E-01 -3.629045255E-01
 4.499375922E-01 7.673908660E-02 -4.817788081E-01
 2.933225075E-01 1.975030299E-01 -3.096403070E-01
 2.290995530E-01 2.551217312E-01 -2.350674009E-01
 1.824323906E-01 1.783706612E-01 -2.533912164E-01
 4.547904844E-01 1.587449935E-01 -3.888973090E-01
 2.301912509E-01 1.379042390E-01 -3.268678466E-01
 2.246786044E-01 6.477655239E-02 -4.110249878E-01
 3.318619452E-01 1.434361730E-01 -3.782768677E-01
 7.748790691E-01 1.006325581E-01 -2.245255897E-01
 2.926224562E-01 3.798543916E-01 -1.984170004E-01
 4.143031543E-01 1.303131034E-01 -4.192948245E-01
 3.724379574E-01 1.177381233E-01 -4.221428582E-01
 5.836598526E-01 1.194615489E-01 -3.889151575E-01
 6.405216658E-01 9.786023485E-02 -3.659168426E-01
 6.138877456E-01 6.592893765E-02 -4.210505714E-01
 8.660690855E-01 8.030435938E-02 -1.224837907E-01
 5.552852053E-01 4.851207689E-01 -1.830028701E-01
 1.196879542E+00 3.290692450E-01 -1.434029276E-02
 1.418313525E+00 4.715967638E-01 -1.987408225E-02
 6.077567131E-01 9.837929255E-02 -3.919609299E-01
 7.255321103E-01 1.236820187E-01 -2.649423640E-01
 7.029456709E-01 9.100324997E-02 -3.073886470E-01
 7.358345973E-01 8.755542634E-02 -2.712230569E-01
 7.284154652E-01 5.608729224E-02 -2.969490338E-01
 8.123982695E-01 8.033881967E-02 -1.921689592E-01
 8.406567430E-01 6.899428069E-02 -1.571173098E-01
 8.413097900E-01 4.530794060E-02 -1.660882845E-01
 8.010833186E-01 5.892500740E-02 -2.097874174E-01
 6.685115245E-01 8.908052763E-02 -3.435920073E-01
 4.557096943E-01 1.190272831E-01 -4.299754662E-01
 4.977977925E-01 1.283152715E-01 -4.141723198E-01
 6.700894576E-01 6.706189580E-02 -3.599281506E-01
 7.424276025E-01 5.612499438E-02 -2.790090564E-01
 6.020742350E-01 7.210827837E-02 -4.252255686E-01
 7.146971346E-01 3.699745351E-01 -1.864113070E-01
 6.138432010E-01 -4.852152823E-02 -5.226011247E-02
 5.987337249E-01 -5.001677357E-02 -7.489676742E-02
 6.074454371E-01 -7.086322013E-02 -6.128118015E-02
 6.447292684E-01 -6.006894376E-02 -7.645619611E-03
 6.692328003E-01 -5.710127577E-02 2.560084351E-02
 6.946061999E-01 -5.445196430E-02 5.861302239E-02
 7.067215724E-01 -3.621134905E-02 7.881507403E-02
 7.185304791E-01 -5.500943834E-02 8.713870515E-02
 7.083350626E-01 -8.162989931E-02 6.086163516E-02
 6.415556037E-01 -4.241476841E-02 -1.056065013E-02
 5.883555530E-01 -6.442485544E-02 -9.392003092E-02
 5.652982021E-01 -7.057761862E-02 -1.298049629E-01
 1.035413353E+00 -2.454706162E-02 1.819447350E-01
 9.979247559E-01 -4.293248517E-02 2.180412469E-01
 9.738149749E-01 -8.776866659E-02 1.980459473E-01
 9.616252036E-01 -5.106904245E-02 2.481775483E-01
 9.354355337E-01 -1.087723275E-02 2.966765587E-01
 7.211214050E-01 -3.006363256E-02 9.870047219E-02
 4.656881559E-01 8.063387082E-02 -4.762190256E-01
 1.033374568E+00 7.059600083E-03 1.343279500E-01
 1.007093479E+00 3.936801891E-02 1.182930793E-01
 7.823665568E-01 6.906309740E-02 -2.275535895E-01
 1.328629435E+00 -1.774592418E-01 5.258471034E-02
 1.251595617E+00 -3.777967015E-01 5.610961783E-02
 8.528557098E-01 3.767443777E-02 -1.545085210E-01
 8.616284349E-01 5.167032643E-02 -1.357514749E-01
 8.895011852E-01 2.993109082E-02 -9.502656151E-02
 8.892542141E-01 6.059991899E-02 -8.798314845E-02
 9.204957128E-01 6.092102900E-02 -4.031755783E-02
 5.538887032E-01 6.969158916E-01 -1.505929920E-01
 3.376712570E-01 1.111008154E-01 -4.151825819E-01
 3.025146867E-01 1.116457440E-01 -4.001646695E-01
 2.614025967E-01 1.076416570E-01 -3.819918649E-01
 2.515681906E-01 7.101308307E-02 -4.207372087E-01
 6.246928329E-01 6.662091175E-02 -4.106915921E-01
 3.730807224E-01 -6.795220143E-02 -4.172034545E-01
 3.771503829E-01 -8.389047793E-02 -3.817346043E-01
 3.956970193E-01 -8.118396440E-02 -3.728511361E-01
 6.578289813E-01 6.321742280E-02 -3.757142086E-01
 7.678461868E-01 5.421192074E-02 -2.520759660E-01
 5.496664101E-01 -5.661006419E-02 -1.636904815E-01
 5.412665750E-01 -7.694082268E-02 -1.652745014E-01
 5.081058158E-01 -6.053587704E-02 -2.420889171E-01
 5.194788373E-01 -9.650799417E-02 -1.960552796E-01
 5.210515541E-01 -7.139740959E-02 -2.071291490E-01
 9.955793720E-02 -4.675906776E-02 -2.209814283E-01
 6.996165017E-02 -4.087822415E-02 -1.714938649E-01
 7.938709581E-01 4.580966945E-02 -2.226626479E-01
 8.037177558E-01 4.347317756E-02 -2.125189381E-01
 8.783203368E-01 3.825728562E-02 -1.150488468E-01
 2.556485963E+00 2.095417835E-01 5.334846495E-03
 5.865236010E-01 -4.887720312E-02 -9.487316844E-02
 2.250543040E-01 1.023262832E-01 -3.658855748E-01
 1.935231790E-01 1.166865940E-01 -3.171525081E-01
 1.556142862E-01 6.040292198E-02 -3.593102842E-01
 1.366315871E-01 1.392455101E-01 -2.253714398E-01
 7.560830747E-02 5.139672279E-02 -2.450057340E-01
 1.532049718E-01 1.011568568E-01 -3.008528950E-01
 1.067089008E-01 1.003942195E-01 -2.206545871E-01
 7.260853144E-02 1.513983895E-01 -1.093218295E-01
 6.028567944E-02 9.992333459E-02 -1.261014847E-01
 1.818265448E-02 1.353264987E-01 -1.815413715E-02
 -1.267993646E-02 8.064905734E-02 1.615402945E-01
 2.530246683E-02 2.980497856E-02 -8.554107431E-02
 1.214817662E-02 1.848178092E-02 -7.217145374E-04
 1.115136709E-01 2.295054336E-01 -1.414282980E-01
 -7.859219922E-02 6.036010033E-02 2.475059688E-01
 2.752542975E-02 6.738552592E-02 -2.904992912E-02
 -3.209440724E-02 3.764469314E-02 3.680829716E-01
 -2.961102535E-02 6.517882253E-03 6.351253832E-01
 -5.613658978E-04 4.875529305E-02 2.068037568E-01
 -1.423688360E-02 2.865970507E-02 4.883501235E-01
 -1.941801421E-03 1.955451650E-02 2.443717225E-01
 6.882925684E-03 1.513938550E-02 1.757130416E-01
 2.336186711E-04 1.174698080E-02 4.770803683E-01
 4.565671451E-03 3.257607912E-02 2.003532557E-01
 2.094404694E-02 4.276377283E-02 -1.117601640E-02
 1.526187946E-02 3.027875911E-02 5.639753842E-02
 2.036047365E-01 9.113258006E-02 -3.627155600E-01
 1.800107407E-01 8.537630825E-02 -3.489013307E-01
 1.706157655E-01 6.794373959E-02 -3.613176183E-01
 1.321298002E-01 8.123422700E-02 -2.944219167E-01
 8.317763501E-02 7.616699033E-02 -2.129293662E-01
 1.042382215E-01 5.139803559E-02 -3.074115116E-01
 -7.936366552E-03 -2.522506208E-02 4.826177615E-01
 2.031763920E-01 7.096749597E-02 -3.860758664E-01
 9.008639707E-01 3.036657825E-02 -6.995864646E-02
 5.067263761E-01 1.714567867E-01 -3.686483042E-01
 5.318582026E-01 1.097241890E-01 -4.274837237E-01
 5.164479226E-01 7.628425022E-02 -4.740653418E-01
 8.290513692E-01 4.113056308E-02 -1.825682868E-01
 -6.986431701E-03 6.243987424E-03 8.488623141E-01
 6.194321616E-01 8.023966998E-02 -4.024089817E-01
 6.370242578E-01 7.572033407E-02 -3.890670184E-01
 7.021556793E-01 -1.557289251E-01 4.042837323E-02
 5.093871667E-01 -1.256904441E-01 -1.853761803E-01
 4.882420005E-01 -9.371876745E-02 -2.442641791E-01
 4.569892523E-01 -9.166353321E-02 -2.949233288E-01
 4.722317258E-01 -7.494418461E-02 -2.962069537E-01
 3.993100967E-01 9.607550500E-02 -4.498181988E-01
 4.296181213E-01 1.010521903E-01 -4.491248816E-01
 1.744276184E+00 -1.553016924E-01 1.990991307E-02
 4.792622345E-01 9.625289654E-02 -4.553734336E-01
 4.343538075E-01 8.331969862E-02 -4.730437554E-01
 5.588877823E-01 9.852621872E-02 -4.260791000E-01
 5.331089341E-01 8.520148907E-02 -4.585225011E-01
 5.077398229E-01 9.269269074E-02 -4.565842465E-01
 1.819428298E-01 -8.971816543E-02 -2.595519106E-01
 1.505260450E-01 -6.906151712E-02 -2.503263812E-01
 1.333563511E-01 -6.974791937E-02 -2.240245887E-01
 1.096973072E-01 -6.857125689E-02 -1.904113041E-01
 2.626621438E-01 -8.039986280E-02 -3.464798996E-01
 1.029709372E+00 -1.336254176E-01 1.421882349E-01
 9.581570517E-01 -1.471742892E-01 1.598179073E-01
 6.947869467E-01 6.088971254E-02 -3.337090201E-01
 6.870831017E-01 7.342635833E-02 -3.360156742E-01
 8.546216842E-01 4.338020851E-01 -1.232510463E-01
 2.629170986E-01 8.309424561E-02 -4.110493385E-01
 2.827062388E-01 9.074809697E-02 -4.136636158E-01
 3.528886301E-01 7.418485842E-02 -4.642450925E-01
 3.540892072E-01 9.061673534E-02 -4.436114216E-01
 3.256319249E-01 9.005294053E-02 -4.346579267E-01
 3.756926332E-01 8.901099529E-02 -4.530188893E-01
 3.033202273E-01 8.765853049E-02 -4.263852121E-01
 5.780265867E-01 7.040975649E-02 -4.485209847E-01
 5.848655735E-01 8.552483055E-02 -4.256743376E-01
 2.414201414E-01 -8.700634712E-02 -3.218440390E-01
 4.172832254E-01 -8.124774426E-02 -3.619448730E-01
 4.362796253E-01 -7.942042580E-02 -3.400903271E-01
 2.901021324E-01 7.664689264E-02 -4.348510694E-01
 5.746276629E-02 6.598663217E-02 -1.628741651E-01
 5.796909149E-02 4.708499756E-02 -2.070963749E-01
 1.406239555E-01 4.044980687E-01 -1.077859355E-01
 4.974818042E-01 -7.437189380E-02 -2.509713309E-01
 5.571725381E-01 -7.002962727E-01 -2.322471854E-02
 6.933698149E-01 -3.544235212E-02 6.321302837E-02
 4.951937537E-01 -6.092022292E-02 -2.705288509E-01
 1.076128010E+00 -1.930532220E-01 1.071441370E-01
 1.641515434E+00 2.906979078E-01 -8.887225401E-04
 -1.371561615E-02 -9.817321679E-03 7.070176408E-01
 -1.141823796E-03 -6.178058957E-03 8.430643730E-01
 -3.787221134E-03 -4.842333791E-03 1.065439933E+00
 1.545462111E-01 7.807858779E-02 -3.298356974E-01
 1.357141831E-01 6.523909834E-02 -3.261974083E-01
 5.208639482E-01 -5.657754176E-02 -2.194218969E-01
 3.267402697E-01 7.366536353E-02 -4.545404735E-01
 5.280640149E-01 7.289285929E-02 -4.742177225E-01
 5.495918488E-01 7.585792018E-02 -4.622085640E-01
 5.618375256E-01 -5.284855314E-02 -1.421516245E-01
 3.025225418E-01 7.275294344E-02 -4.440113458E-01
 4.785612753E-01 7.708668820E-02 -4.789427811E-01
 6.677538600E-01 -3.882511041E-02 2.953603345E-02
 7.024638418E-01 7.045836135E-02 -3.191288228E-01
 7.187622489E-01 6.979529923E-02 -3.010144482E-01