TITLE     = "Visualization of the solution"
VARIABLES = "x"
"y"
"Pressure_Coefficient"
ZONE T="Zone"
 STRANDID=0, SOLUTIONTIME=0
 Nodes=708, Elements=1201, ZONETYPE=FEQuadrilateral
 DATAPACKING=POINT
 DT=(DOUBLE DOUBLE DOUBLE )
 9.998877645E-01 5.135522224E-04 2.592775321E-01
 9.883763790E-01 2.827363322E-03 2.553384535E-01
 9.760368466E-01 5.282930564E-03 1.493366804E-01
 9.595817327E-01 8.476071991E-03 9.444135231E-02
 9.444100261E-01 1.138832234E-02 3.320786000E-02
 9.299565554E-01 1.428926177E-02 7.700668607E-04
 9.181805849E-01 1.655407622E-02 -2.678261923E-02
 9.061799645E-01 1.886769198E-02 -6.559784304E-02
 8.948119283E-01 2.107749507E-02 -8.970670875E-02
 8.825930953E-01 2.327484824E-02 -1.128262716E-01
 8.706132174E-01 2.548629418E-02 -1.440667948E-01
 8.581193686E-01 2.766090818E-02 -1.558104795E-01
 8.453577757E-01 2.979718894E-02 -1.742156016E-01
 8.345733881E-01 3.162663430E-02 -1.949583519E-01
 8.229179382E-01 3.352464363E-02 -2.091395758E-01
 8.103099465E-01 3.552320227E-02 -2.214268702E-01
 7.974370718E-01 3.751580045E-02 -2.343965204E-01
 7.849687934E-01 3.943042457E-02 -2.580273396E-01
 7.728739381E-01 4.126881063E-02 -2.729266150E-01
 7.608371973E-01 4.298703745E-02 -2.833736812E-01
 7.477326989E-01 4.486377537E-02 -3.044764354E-01
 7.340084910E-01 4.676772282E-02 -3.177071859E-01
 7.233539820E-01 4.818651453E-02 -3.324650888E-01
 7.123453617E-01 4.964857548E-02 -3.450221566E-01
 7.007055879E-01 5.111571401E-02 -3.593291073E-01
 6.873109341E-01 5.280056596E-02 -3.804672471E-01
 6.743939519E-01 5.432288349E-02 -3.932693110E-01
 6.643646955E-01 5.546637997E-02 -4.007341980E-01
 6.528999209E-01 5.671770871E-02 -4.186282303E-01
 6.415060163E-01 5.796579644E-02 -4.363461612E-01
 6.295872331E-01 5.914377049E-02 -4.410585957E-01
 6.182550192E-01 6.023309007E-02 -4.610417145E-01
 6.077334881E-01 6.121069565E-02 -4.693963842E-01
 5.950658321E-01 6.226276234E-02 -4.762647894E-01
 5.836299062E-01 6.318110973E-02 -4.906458225E-01
 5.702849627E-01 6.416866183E-02 -4.990839185E-01
 5.579040051E-01 6.497906893E-02 -5.051922994E-01
 5.457824469E-01 6.571764499E-02 -5.118979197E-01
 5.348942876E-01 6.630195677E-02 -5.157935922E-01
 5.233978033E-01 6.687370688E-02 -5.242371659E-01
 5.110240579E-01 6.741148233E-02 -5.281164340E-01
 4.996914864E-01 6.781060249E-02 -5.228648485E-01
 4.864585698E-01 6.819805503E-02 -5.282959084E-01
 4.730820358E-01 6.854410470E-02 -5.305668615E-01
 4.589050114E-01 6.876252592E-02 -5.259511950E-01
 4.454237521E-01 6.889715046E-02 -5.228835800E-01
 4.325783253E-01 6.895257533E-02 -5.219611016E-01
 4.198538959E-01 6.894689053E-02 -5.238321997E-01
 4.075700045E-01 6.886930019E-02 -5.197399432E-01
 3.951689899E-01 6.869057566E-02 -5.156926217E-01
 3.829416335E-01 6.846820563E-02 -5.137485558E-01
 3.715137541E-01 6.820228696E-02 -5.082915398E-01
 3.583881557E-01 6.781910360E-02 -5.048747824E-01
 3.457676470E-01 6.738925725E-02 -5.000255421E-01
 3.327978551E-01 6.686186790E-02 -4.980688140E-01
 3.218246400E-01 6.636989117E-02 -4.927243783E-01
 3.090226948E-01 6.571032107E-02 -4.857613112E-01
 2.958637774E-01 6.496719271E-02 -4.822072314E-01
 2.819792330E-01 6.409189850E-02 -4.768362452E-01
 2.695741057E-01 6.322130561E-02 -4.704828500E-01
 2.578209937E-01 6.233259663E-02 -4.631634366E-01
 2.454419434E-01 6.131672859E-02 -4.563308404E-01
 2.331379205E-01 6.023830175E-02 -4.516869675E-01
 2.208248824E-01 5.907747522E-02 -4.438192532E-01
 2.091580331E-01 5.788540840E-02 -4.370741558E-01
 1.975272894E-01 5.663427338E-02 -4.278752968E-01
 1.851704866E-01 5.519383028E-02 -4.198469266E-01
 1.734692305E-01 5.375672132E-02 -4.126408518E-01
 1.621640921E-01 5.226016045E-02 -4.018415375E-01
 1.502611339E-01 5.059432983E-02 -3.948632153E-01
 1.396741420E-01 4.900929332E-02 -3.837809364E-01
 1.281314939E-01 4.718210548E-02 -3.726661405E-01
 1.168825701E-01 4.527752474E-02 -3.626610038E-01
 1.063408479E-01 4.338052496E-02 -3.526031543E-01
 9.645947069E-02 4.147391394E-02 -3.357971686E-01
 8.547008783E-02 3.921430930E-02 -3.160750092E-01
 7.373832166E-02 3.661044687E-02 -2.942059387E-01
 6.378350407E-02 3.420396522E-02 -2.747667875E-01
 5.380969122E-02 3.158784658E-02 -2.536521809E-01
 4.505150393E-02 2.907418087E-02 -2.132709264E-01
 3.762258962E-02 2.674325556E-02 -1.913175131E-01
 3.096804209E-02 2.447103336E-02 -1.458956804E-01
 2.528478019E-02 2.233462781E-02 -1.284126697E-01
 2.116301283E-02 2.065322921E-02 -8.257667436E-02
 1.720151864E-02 1.889692247E-02 -6.613450952E-02
 1.414175890E-02 1.741219498E-02 4.722628225E-02
 1.134074293E-02 1.593230851E-02 5.108966610E-02
 9.253076278E-03 1.473861095E-02 8.423625859E-02
 7.456067484E-03 1.361484360E-02 1.336513502E-01
 5.817057099E-03 1.249916013E-02 1.788522160E-01
 3.670458915E-03 1.084955037E-02 2.726606316E-01
 1.778940903E-03 9.123205207E-03 4.300506368E-01
 2.144440077E-04 7.334043738E-03 6.503730771E-01
 -1.298180316E-03 4.817938898E-03 9.292875759E-01
 -1.893633045E-03 2.941848710E-03 8.432985080E-01
 -2.042622771E-03 1.472371980E-03 1.461656222E+00
 -1.894645742E-03 -1.069965001E-04 7.827707664E-01
 -1.436151098E-03 -1.674436382E-03 1.047162231E+00
 -4.641345877E-04 -3.559770063E-03 6.036782268E-01
 9.588311077E-04 -5.451915786E-03 5.481922689E-01
 2.920937026E-03 -7.414818741E-03 4.007086840E-01
 4.719312768E-03 -8.884569630E-03 2.743711994E-01
 6.737930700E-03 -1.031227782E-02 2.467015333E-01
 8.347379044E-03 -1.132910512E-02 1.443513552E-01
 1.041375939E-02 -1.251746621E-02 1.122497368E-01
 1.278251130E-02 -1.375295687E-02 6.358024196E-02
 1.606565900E-02 -1.529687084E-02 2.717899127E-02
 1.898326166E-02 -1.653920114E-02 -8.236513132E-03
 2.278292365E-02 -1.802167483E-02 -5.754877846E-02
 2.809376642E-02 -1.989011280E-02 -8.434970568E-02
 3.388760984E-02 -2.171737328E-02 -1.164200575E-01
 4.095937684E-02 -2.372485213E-02 -1.383345338E-01
 4.853538796E-02 -2.566282824E-02 -1.543418440E-01
 5.755629018E-02 -2.776368894E-02 -1.676956573E-01
 6.634156406E-02 -2.963460796E-02 -1.877318851E-01
 7.654350251E-02 -3.162663803E-02 -2.026824627E-01
 8.653501421E-02 -3.343415260E-02 -2.082078537E-01
 9.682121128E-02 -3.517400473E-02 -2.144286283E-01
 1.078577861E-01 -3.691388294E-02 -2.261850866E-01
 1.191635802E-01 -3.858256713E-02 -2.340312748E-01
 1.308527291E-01 -4.020496830E-02 -2.429721171E-01
 1.415126026E-01 -4.159487039E-02 -2.530407723E-01
 1.527069062E-01 -4.297963157E-02 -2.613032099E-01
 1.649183035E-01 -4.440216720E-02 -2.711228316E-01
 1.767134517E-01 -4.569451138E-02 -2.817761948E-01
 1.885790676E-01 -4.691240564E-02 -2.911920080E-01
 1.993504465E-01 -4.795220122E-02 -3.007148656E-01
 2.107707858E-01 -4.899016768E-02 -3.093064582E-01
 2.231242657E-01 -5.003510788E-02 -3.198461638E-01
 2.357685417E-01 -5.101413652E-02 -3.302302761E-01
 2.481931597E-01 -5.189890414E-02 -3.405435536E-01
 2.606456876E-01 -5.270123109E-02 -3.518666402E-01
 2.717731893E-01 -5.334043875E-02 -3.623783375E-01
 2.844089568E-01 -5.397536606E-02 -3.695621737E-01
 2.968808711E-01 -5.452192575E-02 -3.797249328E-01
 3.097026646E-01 -5.496227741E-02 -3.881932245E-01
 3.214547336E-01 -5.526812002E-02 -3.929114393E-01
 3.340785801E-01 -5.551055074E-02 -3.992288539E-01
 3.450650573E-01 -5.562367290E-02 -4.070506951E-01
 3.564606905E-01 -5.563542619E-02 -4.085692499E-01
 3.672918379E-01 -5.556115136E-02 -4.091606303E-01
 3.779809773E-01 -5.539296940E-02 -4.077067125E-01
 3.896083534E-01 -5.511980504E-02 -4.048232507E-01
 4.027316272E-01 -5.465917289E-02 -4.002385640E-01
 4.152131677E-01 -5.407678336E-02 -3.861417789E-01
 4.280579686E-01 -5.338091776E-02 -3.738651005E-01
 4.403980970E-01 -5.255796388E-02 -3.612675409E-01
 4.524090588E-01 -5.166037381E-02 -3.417986196E-01
 4.642000496E-01 -5.066890642E-02 -3.231207065E-01
 4.764350355E-01 -4.952752963E-02 -3.004454379E-01
 4.878593683E-01 -4.838933423E-02 -2.766922738E-01
 5.006518364E-01 -4.703802615E-02 -2.540277617E-01
 5.142779946E-01 -4.546793178E-02 -2.261217358E-01
 5.277249217E-01 -4.387185723E-02 -1.947798245E-01
 5.411816835E-01 -4.221509770E-02 -1.743077695E-01
 5.536972284E-01 -4.057230055E-02 -1.465022733E-01
 5.670852065E-01 -3.883928061E-02 -1.194250786E-01
 5.801061988E-01 -3.710428998E-02 -1.035338367E-01
 5.917929411E-01 -3.547355905E-02 -7.527967558E-02
 6.043838263E-01 -3.375827521E-02 -5.076851806E-02
 6.188293099E-01 -3.176460415E-02 -3.323165595E-02
 6.332593560E-01 -2.974058315E-02 -7.625981947E-03
 6.484276652E-01 -2.766087651E-02 1.404344576E-02
 6.614637375E-01 -2.585767955E-02 3.161469297E-02
 6.748057604E-01 -2.400291152E-02 5.190567712E-02
 6.872432232E-01 -2.230258845E-02 7.202884331E-02
 6.997668147E-01 -2.062458545E-02 8.488314168E-02
 7.142196894E-01 -1.867860742E-02 1.036769613E-01
 7.275407910E-01 -1.695048623E-02 1.213780501E-01
 7.395178676E-01 -1.540068910E-02 1.322289962E-01
 7.524803281E-01 -1.372376364E-02 1.526316672E-01
 7.648763657E-01 -1.221296564E-02 1.667450891E-01
 7.775261402E-01 -1.062760595E-02 1.831364374E-01
 7.896879315E-01 -9.236781858E-03 1.995762728E-01
 8.024287224E-01 -7.782525849E-03 2.091026926E-01
 8.133902550E-01 -6.587254349E-03 2.250456903E-01
 8.247879744E-01 -5.374164321E-03 2.398373273E-01
 8.377854824E-01 -4.106579348E-03 2.534191252E-01
 8.501681685E-01 -2.967295237E-03 2.652080507E-01
 8.624441624E-01 -1.943821087E-03 2.802259283E-01
 8.743101358E-01 -1.063222648E-03 2.881883115E-01
 8.859424591E-01 -2.780424256E-04 2.980434719E-01
 8.990542889E-01 4.457357863E-04 3.067290498E-01
 9.093574882E-01 8.996349643E-04 3.133464038E-01
 9.196777940E-01 1.258123782E-03 3.151786810E-01
 9.291428924E-01 1.491151401E-03 3.159867455E-01
 9.377050400E-01 1.627238351E-03 3.191235270E-01
 9.492698908E-01 1.700696419E-03 3.139569451E-01
 9.618074298E-01 1.644043834E-03 3.195267111E-01
 9.760503173E-01 1.405107556E-03 3.159605773E-01
 9.883363247E-01 1.035508467E-03 3.253662740E-01
 -5.000000000E-01 -1.000000000E+00 2.824992469E-02
 3.500000000E+00 -1.000000000E+00 1.622467833E-02
 3.500000000E+00 1.000000000E+00 -1.631699816E-04
 -5.000000000E-01 1.000000000E+00 -5.474099919E-03
 -5.000000000E-01 5.000000000E-01 2.986387002E-02
 -5.000000000E-01 2.752797990E-12 9.131560578E-02
 -5.000000000E-01 -5.000000000E-01 6.093008976E-02
 -9.421907698E-13 -1.000000000E+00 1.796899228E-02
 5.000000000E-01 -1.000000000E+00 -3.624911202E-03
 1.000000000E+00 -1.000000000E+00 1.700083814E-02
 1.500000000E+00 -1.000000000E+00 3.383792420E-02
 2.000000000E+00 -1.000000000E+00 2.913530768E-02
 2.500000000E+00 -1.000000000E+00 2.078211606E-02
 3.000000000E+00 -1.000000000E+00 1.686622153E-02
 3.500000000E+00 -5.000000000E-01 1.867526162E-02
 3.500000000E+00 -2.752797990E-12 1.756458013E-02
 3.500000000E+00 5.000000000E-01 7.093552418E-03
 3.000000000E+00 1.000000000E+00 -2.688334841E-03
 2.500000000E+00 1.000000000E+00 -8.744477229E-03
 2.000000000E+00 1.000000000E+00 -2.351038986E-02
 1.500000000E+00 1.000000000E+00 -6.035496890E-02
 1.000000000E+00 1.000000000E+00 -1.032422943E-01
 5.000000000E-01 1.000000000E+00 -9.964388457E-02
 1.733724275E-12 1.000000000E+00 -3.264805299E-02
 6.824970148E-01 -3.392390873E-02 5.873831564E-02
 7.866662349E-01 -2.290440293E-02 1.847922289E-01
 9.063157602E-01 -9.956709733E-03 2.953197072E-01
 2.773898091E-01 -6.370724419E-02 -3.507205330E-01
 7.086325562E-01 5.924341786E-02 -3.422576052E-01
 2.735346999E-01 7.717339574E-02 -4.553683287E-01
 3.655415132E-01 8.199816967E-02 -4.900641258E-01
 9.135889981E-01 3.236735132E-02 -4.392389293E-02
 8.167848576E-01 4.403354744E-02 -2.097361175E-01
 5.618231065E-01 -5.076746297E-02 -1.290592807E-01
 6.037929698E-01 7.506927385E-02 -4.553791179E-01
 3.930327476E-01 -6.772200094E-02 -3.760328922E-01
 5.046804207E-01 8.027888316E-02 -5.090326267E-01
 1.789339713E+00 -5.346577053E-01 2.753169988E-02
 1.788349828E+00 6.419304880E-01 -2.000017682E-02
 3.031164347E+00 2.156892699E-01 9.726004284E-03
 7.349217630E-01 -6.096390791E-01 9.757341532E-03
 4.723523755E-01 -5.899933824E-02 -2.963464553E-01
 7.673998800E-01 5.728779728E-01 -1.399911586E-01
 3.072947295E-01 6.421996960E-01 -1.281757879E-01
 1.197476447E-01 5.922581665E-02 -3.349061809E-01
 1.768988480E-01 6.643918470E-02 -3.937391147E-01
 2.734875474E+00 -5.326640421E-01 1.611912654E-02
 1.210303323E+00 7.106241306E-01 -6.638761937E-02
 9.807819203E-01 3.226089992E-01 -7.014997872E-02
 1.281048829E+00 -6.078001054E-01 4.504288459E-02
 1.515514292E+00 -2.668817086E-01 3.369080443E-02
 2.530979193E-01 -6.186176520E-01 -1.271782215E-02
 7.997390482E-02 -4.118329827E-02 -1.791149209E-01
 1.346484659E-01 -5.303502115E-02 -2.299267280E-01
 1.925944265E-01 -6.063959602E-02 -2.774356924E-01
 2.241125225E+00 -5.777978114E-01 1.941989937E-02
 2.026701253E+00 -1.993902018E-01 1.621605900E-02
 2.420315596E+00 -1.842338129E-01 1.194209971E-02
 2.184712900E+00 1.584444060E-01 5.787179912E-03
 1.829145611E+00 8.923844594E-02 7.551086768E-03
 -2.710112029E-01 -2.546208886E-01 1.053898627E-01
 -1.831458514E-01 -5.687329852E-01 3.757411749E-02
 -2.604928098E-01 2.084526736E-01 8.431468997E-02
 -8.352819896E-02 6.132365135E-01 -3.365694282E-02
 3.315191271E-02 3.523010919E-01 -6.835318993E-02
 4.430857641E-02 3.855659960E-02 -1.609173499E-01
 2.240517655E+00 5.538800397E-01 -5.146814532E-03
 2.746245860E+00 5.959674821E-01 1.890711476E-03
 -2.432448209E-01 -4.591035162E-03 1.455965241E-01
 -1.408116001E-01 -1.294366747E-01 1.633647096E-01
 3.252453586E-02 -3.022400923E-02 -5.270526490E-02
 1.803775767E-02 -3.711003499E-01 1.481229939E-02
 2.946995426E-01 -2.985349714E-01 -1.132784080E-01
 3.363276646E-01 -6.919099511E-02 -3.776536882E-01
 -1.294997959E-01 1.257423446E-01 1.521665067E-01
 -1.265110878E-01 -1.601341490E-03 2.439263953E-01
 -5.716598359E-02 -6.631897091E-02 2.749858131E-01
 -4.992349987E-02 -1.500862255E-01 1.211569875E-01
 2.479404790E-03 -9.346935592E-02 1.362210803E-01
 2.485479689E-02 -2.000018985E-01 2.612013247E-02
 1.721602739E-02 -1.916313591E-02 4.375973130E-02
 6.612972850E-02 -1.068496526E-01 -5.099570191E-02
 1.144482283E-01 -1.575826956E-01 -8.898304948E-02
 -1.532142493E-02 -5.237869226E-02 2.721633303E-01
 -5.703628402E-02 3.666279090E-03 4.051526616E-01
 1.242472066E-01 -9.716246263E-02 -1.568221742E-01
 1.105712344E-01 -4.706238312E-02 -2.118830146E-01
 1.784379537E-01 -1.166819908E-01 -1.989990600E-01
 2.423407876E-01 -6.707414936E-02 -3.170086612E-01
 1.878912212E-01 -1.883047371E-01 -1.452966558E-01
 2.366906984E-01 -1.460157544E-01 -2.200263252E-01
 1.201988651E-01 -2.648379488E-01 -5.499674601E-02
 1.588872947E-01 -7.835991279E-02 -2.221515438E-01
 1.699129498E-01 -5.941030238E-02 -2.564216528E-01
 2.228295475E-01 -1.054529067E-01 -2.565861222E-01
 2.156212172E-01 -6.265816071E-02 -2.979120845E-01
 2.694621614E-01 -1.106444100E-01 -2.788595027E-01
 2.939600193E-01 -1.528859893E-01 -2.390921133E-01
 3.176612505E-01 -1.108625072E-01 -3.035006085E-01
 3.465656045E-01 -1.500265034E-01 -2.540547629E-01
 3.041936838E-01 -6.820221347E-02 -3.626847282E-01
 3.617014603E-01 -1.073929658E-01 -3.128866982E-01
 3.960708541E-01 -1.409300024E-01 -2.616503920E-01
 4.353590141E-01 -6.625498452E-02 -3.406701185E-01
 3.904894730E-01 -1.863641158E-01 -2.076275706E-01
 4.516889742E-01 -1.811454376E-01 -1.838960001E-01
 4.080767340E-01 -2.735403611E-01 -1.337977505E-01
 5.161130165E-01 -2.325221894E-01 -1.004741699E-01
 6.268238548E-01 -4.481537085E-02 -2.047831495E-02
 5.968805666E-01 -4.901597510E-02 -6.773487912E-02
 5.078153049E-01 -3.661915450E-01 -6.532212235E-02
 5.434108959E-01 -1.550486683E-01 -1.167345183E-01
 6.135772051E-01 -1.906113206E-01 -3.789526092E-02
 5.087737187E-01 -5.761150620E-02 -2.259966491E-01
 3.741759067E-01 -6.727878090E-02 -3.830091303E-01
 6.200747181E-01 -1.248521294E-01 -3.401899180E-02
 6.964890889E-01 -1.920930450E-01 3.430743653E-02
 7.335347477E-01 -2.571055069E-02 1.232465191E-01
 6.857212141E-01 -2.768400055E-01 1.328410942E-02
 7.718648719E-01 -2.178886953E-01 7.467728437E-02
 9.684434520E-01 -7.757082369E-03 2.978977054E-01
 9.425390389E-01 -6.782328950E-03 3.031821127E-01
 8.449588565E-01 -1.421046658E-02 2.502790247E-01
 7.839380147E-01 -1.266682175E-01 1.183316087E-01
 8.525494776E-01 -1.630803491E-01 1.349206358E-01
 8.740253843E-01 -2.694644685E-01 9.348254265E-02
 9.673668301E-01 -2.040134039E-01 1.323601809E-01
 8.522781839E-01 -9.101997124E-02 1.848409614E-01
 9.962396437E-01 -3.225781942E-01 8.602290010E-02
 1.091919664E+00 -2.370870031E-01 9.593221105E-02
 1.073388810E+00 -1.143714183E-01 1.290559468E-01
 1.176195398E+00 -1.464500644E-01 8.544360149E-02
 1.152901930E+00 -2.145770071E-02 8.390955266E-02
 1.315484314E+00 -1.073872550E-01 5.345490739E-02
 1.278031505E+00 7.829369569E-02 3.554057512E-02
 6.994669003E-01 -1.026176663E-01 5.542595527E-02
 9.746528954E-01 -1.066661267E-01 1.793130931E-01
 8.029310777E-01 -7.392376178E-02 1.645799265E-01
 4.863586955E-01 -1.270500767E-01 -1.954090613E-01
 6.560975863E-01 -8.944656444E-02 1.103447159E-02
 6.552977945E-01 -3.984515526E-02 1.953167904E-02
 1.280007393E+00 -3.166284201E-01 5.677814093E-02
 4.362836583E-01 -1.110856455E-01 -2.629710533E-01
 1.120940633E+00 1.141879682E-01 4.640823267E-02
 9.717973806E-01 1.997840014E-02 8.554220620E-02
 5.747968644E-01 -1.045951155E-01 -9.153573489E-02
 1.166614821E+00 2.524656464E-01 -1.002787103E-03
 1.380310853E+00 2.761198544E-01 3.112176263E-04
 1.064806390E+00 -3.030816791E-02 1.294378531E-01
 1.060185355E+00 3.946592635E-02 1.060064238E-01
 1.023636346E+00 1.190281877E-01 3.940572722E-02
 8.832814673E-01 2.062954578E-01 -1.130469053E-01
 7.551346924E-01 5.674095359E-02 -2.857650128E-01
 7.788051325E-01 5.290549009E-02 -2.579507506E-01
 8.657976000E-01 3.973402984E-02 -1.411777026E-01
 3.109375918E+00 -2.612507318E-01 1.592757720E-02
 1.528078534E+00 3.193412963E-02 2.063388570E-02
 7.787267699E-01 -3.480794802E-01 4.409710718E-02
 6.364308001E-01 -4.048582182E-01 -8.578933568E-03
 5.118648603E-01 -5.320500320E-01 -3.119194677E-02
 4.006027412E-01 -1.017373355E-01 -3.107215478E-01
 3.794850412E-02 -7.301846811E-02 4.135026903E-02
 6.063482486E-02 -3.721842869E-02 -1.410568600E-01
 1.577634645E-02 -5.078767997E-02 1.200581859E-01
 9.088027520E-01 -1.230440033E-01 1.814860675E-01
 9.008355450E-01 -6.845057689E-02 2.260269617E-01
 9.499010953E-01 -6.255543644E-02 2.310946837E-01
 1.007609146E+00 -5.948882173E-02 2.142261874E-01
 8.625876777E-01 -5.017380938E-02 2.254272914E-01
 8.786980095E-01 -1.390269027E-02 2.769325333E-01
 -2.564143985E-02 -2.090263421E-02 5.277090248E-01
 4.452318292E-03 -1.140082110E-02 3.527959802E-01
 2.578680086E-01 -2.090193179E-01 -1.747123388E-01
 8.323427961E-01 -1.556903328E-02 2.363458192E-01
 8.093897308E-01 -1.912222892E-02 2.109374786E-01
 8.416288307E-01 -3.083619297E-02 2.328378022E-01
 8.229081435E-01 -2.796676336E-02 2.158076986E-01
 8.025862966E-01 -3.564356679E-02 1.919221244E-01
 7.788694290E-01 -4.165583400E-02 1.646452589E-01
 7.623407203E-01 -2.704042365E-02 1.552280822E-01
 7.548573391E-01 -4.504062801E-02 1.367122787E-01
 8.308200350E-01 -5.159401092E-02 2.042878125E-01
 8.628430175E-01 -2.363297426E-02 2.543823948E-01
 4.103842786E-01 -6.755261365E-02 -3.658064882E-01
 6.404155891E-01 -4.030247837E-02 7.731516246E-04
 6.390569739E-01 -5.971258636E-02 -6.992279894E-03
 6.125570286E-01 -5.939775682E-02 -4.163168404E-02
 5.884048792E-01 -7.292141698E-02 -7.973205802E-02
 1.115353435E+00 -4.287034870E-01 6.226124984E-02
 1.004996909E+00 -6.241286853E-01 4.261134730E-02
 4.681864870E-01 -9.565434041E-02 -2.580983302E-01
 5.023803383E-01 -9.358992092E-02 -2.106721342E-01
 4.821590160E-01 -5.783553023E-02 -2.784812407E-01
 4.605527416E-01 -6.312937611E-02 -3.099239208E-01
 7.456177841E-01 -2.823933111E-02 1.363918989E-01
 -4.077691675E-03 -3.220342016E-02 3.902077566E-01
 7.981517832E-01 -1.893790127E-02 1.986654628E-01
 7.216101830E-01 -2.935603087E-02 1.072724827E-01
 7.309757016E-01 -4.251993160E-02 1.115534135E-01
 7.100724057E-01 -4.312394098E-02 8.803812321E-02
 7.406399484E-01 -6.741876298E-02 1.128033617E-01
 7.082559168E-01 -2.957079401E-02 9.223573462E-02
 5.236375209E-01 -5.457678498E-02 -2.014570352E-01
 5.345979825E-01 -5.302938701E-02 -1.793116034E-01
 5.298068840E-01 -7.154051481E-02 -1.773274192E-01
 5.339744629E-01 -1.052285476E-01 -1.512570129E-01
 5.595414438E-01 -7.324698681E-02 -1.242522198E-01
 1.007994663E+00 6.417109010E-02 7.611827628E-02
 9.602716924E-01 1.014710280E-01 -4.009496471E-03
 9.663537681E-01 1.802518258E-01 -3.361745002E-02
 8.407955156E-01 1.368111122E-01 -1.573261270E-01
 7.909885972E-01 1.988614244E-01 -1.914477960E-01
 6.616464381E-01 6.407555807E-02 -3.979342612E-01
 6.358064939E-01 6.888533656E-02 -4.268658738E-01
 6.813758205E-01 6.503764495E-02 -3.763965858E-01
 7.817581054E-01 1.233997637E-01 -2.250971362E-01
 8.260484264E-01 3.011591824E-01 -1.502935381E-01
 7.092023115E-01 2.531828727E-01 -2.380534377E-01
 8.207894229E-01 9.389661318E-02 -1.868867188E-01
 8.692041573E-01 8.275408911E-02 -1.249501637E-01
 7.306551060E-01 1.684936264E-01 -2.557361786E-01
 6.132267715E-01 2.014749374E-01 -3.288482314E-01
 4.370838481E-01 7.924003171E-02 -5.083812978E-01
 4.649332579E-01 8.166477590E-02 -5.100660627E-01
 5.528944570E-01 7.692778144E-02 -4.927098329E-01
 5.286485650E-01 8.186417514E-02 -4.982083748E-01
 6.114805838E-01 3.082572026E-01 -2.629956839E-01
 5.234163641E-01 2.261616770E-01 -3.450150922E-01
 4.988239177E-01 3.191464772E-01 -2.840430790E-01
 4.060540884E-01 2.527777795E-01 -3.284837961E-01
 4.493427520E-01 1.723624186E-01 -3.989563600E-01
 4.020901802E-01 8.224297888E-02 -5.007974656E-01
 3.520115663E-01 1.787669227E-01 -3.770334789E-01
 3.157911201E-01 7.705001179E-02 -4.753167165E-01
 3.390470378E-01 8.013001073E-02 -4.823916306E-01
 3.133637634E-01 2.395263746E-01 -3.211895281E-01
 2.258410487E-01 7.266118972E-02 -4.279056955E-01
 2.545391388E-01 1.848031481E-01 -3.168771374E-01
 5.095793291E-01 1.547806033E-01 -4.191981489E-01
 6.618402985E-01 1.301715704E-01 -3.468286353E-01
 5.932610035E-01 1.385191261E-01 -3.931408315E-01
 7.263574977E-01 1.133405211E-01 -2.889638107E-01
 2.991262864E-01 1.500679347E-01 -3.873166530E-01
 4.004470914E-01 1.472646029E-01 -4.260610126E-01
 3.628230662E-01 3.711778964E-01 -2.441862146E-01
 1.981610592E-01 2.721206677E-01 -2.165240585E-01
 1.446612668E-01 1.812911851E-01 -2.151407870E-01
 1.984232907E-01 1.352362897E-01 -3.209409607E-01
 6.290107052E-01 1.109129871E-01 -3.917374300E-01
 6.867777012E-01 1.030710859E-01 -3.402123634E-01
 6.555700942E-01 9.672176910E-02 -3.793754621E-01
 4.738700876E-01 1.214965324E-01 -4.602586667E-01
 4.321376492E-01 1.197519974E-01 -4.589053851E-01
 2.125256701E-01 4.346736686E-01 -1.250582432E-01
 7.565127157E-01 9.093461227E-02 -2.690307385E-01
 7.879472900E-01 8.412635013E-02 -2.324037910E-01
 5.057545399E-01 1.153034297E-01 -4.603952246E-01
 5.499613978E-01 1.210349602E-01 -4.378936611E-01
 7.297920787E-01 8.244117394E-02 -3.042703574E-01
 7.301586623E-01 6.285624634E-02 -3.142259024E-01
 7.422826296E-01 5.599410626E-02 -3.028069317E-01
 4.808733437E-01 8.178193317E-02 -5.105320692E-01
 4.734308411E-01 9.533564619E-02 -4.921640674E-01
 4.510726865E-01 9.569118903E-02 -4.905628742E-01
 8.387492093E-01 6.260846349E-02 -1.728047036E-01
 8.431322449E-01 4.349167451E-02 -1.728548331E-01
 5.466585590E-01 4.651915412E-01 -2.029082151E-01
 7.052801184E-01 8.550717391E-02 -3.295135424E-01
 6.122655858E-01 -4.389337463E-02 -4.296547399E-02
 1.560075629E-01 -5.770608499E-02 -2.441469913E-01
 1.799503132E-01 -7.833085422E-02 -2.455434878E-01
 2.026418345E-01 -8.043764574E-02 -2.612235656E-01
 8.579075839E-01 -1.086359444E-02 2.641901770E-01
 8.881203918E-01 -3.277137599E-02 2.600313537E-01
 9.179512302E-01 -3.827665699E-02 2.609430877E-01
 9.253464410E-01 -8.394228238E-03 3.043761993E-01
 9.469441450E-01 -3.288954309E-02 2.743425286E-01
 9.721841316E-01 -3.943748962E-02 2.507308176E-01
 9.920698064E-01 -2.639660845E-02 2.856355660E-01
 1.020398244E+00 -2.146545030E-02 2.034721785E-01
 9.162889841E-01 -7.006677694E-03 3.025681813E-01
 2.041957421E-01 -6.013555427E-02 -2.902937552E-01
 7.740557780E-01 -2.288824643E-02 1.719395363E-01
 4.934826020E-01 -6.002416089E-02 -2.548839678E-01
 4.517106703E-01 7.924062292E-02 -5.113228610E-01
 8.284945527E-01 4.611723854E-02 -1.938606309E-01
 8.580994585E-01 5.396812275E-02 -1.489633646E-01
 8.772988314E-01 4.951638826E-02 -1.153487421E-01
 8.895441667E-01 3.543546663E-02 -9.796162069E-02
 8.995909553E-01 5.149181714E-02 -7.725214151E-02
 9.252394221E-01 4.349552645E-02 -1.990727076E-02
 9.390296424E-01 2.739439736E-02 1.261577863E-02
 9.578031117E-01 4.860799305E-02 3.866744986E-02
 1.003380395E+00 2.627387422E-02 1.880196371E-01
 8.771693822E-01 3.468940543E-02 -1.230551353E-01
 9.544312238E-01 2.261940663E-02 6.761538218E-02
 5.780551458E-01 -5.481738593E-02 -1.000597216E-01
 6.954912000E-01 -3.250366140E-02 7.763606854E-02
 6.916081778E-01 -4.957268184E-02 6.640049187E-02
 6.704060216E-01 -5.160350707E-02 3.667742425E-02
 6.831886717E-01 -7.561782906E-02 5.011105089E-02
 6.510816243E-01 7.275012216E-02 -4.050941456E-01
 8.672405818E-01 -1.028126054E-02 2.726970484E-01
 4.787678505E-01 -7.313354893E-02 -2.648064401E-01
 4.490872637E-01 -8.027838887E-02 -3.000231190E-01
 4.224403281E-01 -8.162755503E-02 -3.277739965E-01
 4.474524151E-01 -6.269833412E-02 -3.293620680E-01
 9.228405389E-02 -7.748339626E-02 -1.292670975E-01
 6.667750552E-02 -6.875707418E-02 -9.522770916E-02
 4.637890370E-02 -5.101612392E-02 -5.525310540E-02
 2.162518043E-02 -3.310891158E-02 4.497116958E-02
 2.464365234E-02 -2.391600115E-02 -1.571885107E-02
 2.563199574E+00 2.038653938E-01 5.063082067E-03
 1.403889610E-01 -6.763051025E-02 -2.145395101E-01
 1.185604459E-01 -6.477262531E-02 -1.911741329E-01
 7.190892406E-01 5.825090550E-02 -3.315268041E-01
 9.033497472E-02 -5.486224807E-02 -1.621405351E-01
 7.665244992E-01 5.270077392E-02 -2.730360187E-01
 7.911238172E-01 4.856222126E-02 -2.427431593E-01
 8.055658060E-01 4.745232520E-02 -2.246432013E-01
 8.136074679E-01 6.242519737E-02 -2.076401667E-01
 7.299559925E-01 3.906435898E-01 -1.944700256E-01
 8.205637799E-01 -1.492388885E-02 2.262502132E-01
 9.527268011E-01 -1.253461243E-02 3.002387774E-01
 9.338038133E-01 -1.987882859E-02 2.832308278E-01
 1.033594397E+00 5.568688514E-03 1.454310481E-01
 2.950512274E-01 -8.750230288E-02 -3.260310397E-01
 5.301675385E-01 1.034254833E-01 -4.713060973E-01
 4.942119420E-01 9.608870326E-02 -4.872474160E-01
 6.982908811E-01 6.663325035E-02 -3.529813133E-01
 3.573911543E-01 -4.153948094E-01 -7.164240688E-02
 7.113576805E-01 -6.955022252E-02 8.051952787E-02
 3.402474483E-01 -8.754739701E-02 -3.463338051E-01
 8.932150266E-01 -1.355083649E-02 2.853946829E-01
 9.052699692E-01 -2.267915769E-02 2.770979871E-01
 6.242706337E-01 7.360538420E-01 -1.592080683E-01
 5.578889732E-01 1.683942608E-01 -3.840532046E-01
 5.817460789E-01 1.060623741E-01 -4.370275695E-01
 5.779953036E-01 7.479693233E-02 -4.783600431E-01
 6.054792898E-01 9.677685146E-02 -4.261037343E-01
 5.660239071E-01 8.937961394E-02 -4.678084753E-01
 5.875297412E-01 8.578039170E-02 -4.568572422E-01
 6.215711662E-01 8.261572626E-02 -4.296451123E-01
 1.747354580E+00 -1.840804001E-01 2.130042487E-02
 7.686295869E-01 6.819463190E-02 -2.624590763E-01
 4.036391719E-01 1.095618962E-01 -4.647234728E-01
 3.697006462E-01 1.239294005E-01 -4.402419949E-01
 3.322647700E-01 1.248351862E-01 -4.260655545E-01
 2.990236214E-01 1.125958663E-01 -4.237106745E-01
 2.994006401E-01 8.406439700E-02 -4.609361960E-01
 2.595601612E-01 1.255262687E-01 -3.889741705E-01
 2.270312380E-01 1.079925919E-01 -3.816505434E-01
 2.501379091E-01 7.510617089E-02 -4.430452330E-01
 1.975770628E-01 1.029223400E-01 -3.605629118E-01
 2.007770898E-01 6.989851666E-02 -4.110415288E-01
 1.431427520E-01 1.250341105E-01 -2.610295857E-01
 9.168460121E-02 1.463742912E-01 -1.649745513E-01
 7.368660761E-02 5.029438359E-02 -2.494127174E-01
 1.125710621E-01 1.022534733E-01 -2.489618830E-01
 7.123638116E-02 9.707408566E-02 -1.508003043E-01
 1.904553505E-02 1.458980161E-01 -9.972821493E-03
 -2.090340412E-02 8.707029797E-02 1.712539654E-01
 2.615438572E-02 2.922039744E-02 -7.786778785E-02
 6.521143695E-02 2.228612994E-01 -7.911692586E-02
 1.452313998E-01 8.602225963E-02 -3.225510735E-01
 1.420113335E-01 6.326582214E-02 -3.584984935E-01
 2.505009824E-02 8.305107937E-02 -3.783222947E-03
 1.739376928E-03 5.543904476E-02 1.690548660E-01
 8.879724540E-03 1.746996100E-02 1.344702442E-01
 -7.535892982E-02 6.291916266E-02 2.542320028E-01
 -2.264135622E-02 1.104354049E-02 6.697587498E-01
 1.550529859E-01 6.561299275E-02 -3.727814610E-01
 1.267032796E-01 7.443753959E-02 -3.164743956E-01
 1.030105452E-01 7.301660706E-02 -2.806408611E-01
 9.850387119E-02 5.424652199E-02 -3.068615076E-01
 8.311622062E-02 6.503623353E-02 -2.442488488E-01
 5.650955953E-02 6.769399419E-02 -1.465857659E-01
 3.180441846E-02 5.256117013E-02 -4.684674256E-02
 5.776094334E-02 4.928046618E-02 -2.035334444E-01
 1.884611625E-01 6.605983026E-02 -4.047498115E-01
 2.119664618E-01 8.572317186E-02 -3.984237440E-01
 1.312535787E-01 5.862411544E-02 -3.537098996E-01
 8.744725159E-02 5.005307247E-02 -2.945577876E-01
 1.656847705E-01 7.742942803E-02 -3.637410824E-01
 1.856484300E-01 8.159221572E-02 -3.775477095E-01
 2.137135032E-01 6.904915237E-02 -4.236345187E-01
 -6.536992809E-02 2.280741135E-01 3.909203697E-02
 -1.417807433E-01 3.845497549E-01 1.812913880E-02
 2.358507412E-01 8.570749761E-02 -4.177570914E-01
 2.594620493E-01 9.366197469E-02 -4.227067832E-01
 3.814888824E-01 9.587088525E-02 -4.799535481E-01
 3.522782746E-01 9.698658070E-02 -4.671739929E-01
 4.210629985E-01 9.294276415E-02 -4.920485636E-01
 1.410964704E-02 3.830968697E-02 7.456092759E-02
 1.782489557E-02 2.283673580E-02 -1.843882654E-02
 -5.908103159E-03 2.774559149E-02 4.056306598E-01
 3.544935234E-03 1.323435498E-02 2.983700350E-01
 5.725718974E-03 2.443064779E-02 2.267729263E-01
 -6.187558672E-03 8.143126910E-03 8.666631280E-01
 -3.001811673E-02 4.131398608E-02 3.631533219E-01
 -5.527668289E-04 9.583518528E-03 6.552997195E-01
 3.305347029E-04 1.697139997E-02 3.005101672E-01