TITLE     = "Visualization of the solution"
VARIABLES = "x"
"y"
"Pressure_Coefficient"
ZONE T="Zone"
 STRANDID=0, SOLUTIONTIME=0
 Nodes=683, Elements=1151, ZONETYPE=FEQuadrilateral
 DATAPACKING=POINT
 DT=(DOUBLE DOUBLE DOUBLE )
 9.997377992E-01 5.157747655E-04 2.512536060E-01
 9.849011898E-01 3.337676171E-03 1.889364206E-01
 9.723618627E-01 5.812732503E-03 1.010846442E-01
 9.565712214E-01 8.757378906E-03 7.874360171E-02
 9.426719546E-01 1.140264701E-02 2.060578305E-02
 9.306898117E-01 1.372176409E-02 -1.126894976E-02
 9.194584489E-01 1.582149789E-02 -4.790211737E-02
 9.075698853E-01 1.802165806E-02 -6.945578960E-02
 8.957715631E-01 2.008117177E-02 -9.657496310E-02
 8.839528561E-01 2.220029198E-02 -1.217938996E-01
 8.718183041E-01 2.421352826E-02 -1.368773569E-01
 8.598999977E-01 2.619367838E-02 -1.604509517E-01
 8.478285670E-01 2.813711949E-02 -1.788947960E-01
 8.362566233E-01 2.992917411E-02 -1.919169379E-01
 8.245182037E-01 3.169273958E-02 -2.035722316E-01
 8.120638132E-01 3.352641314E-02 -2.118273874E-01
 7.990126014E-01 3.539085761E-02 -2.280484238E-01
 7.872609496E-01 3.708528355E-02 -2.435468089E-01
 7.746916413E-01 3.880460933E-02 -2.557921870E-01
 7.627383471E-01 4.042445868E-02 -2.690302556E-01
 7.496190071E-01 4.213852063E-02 -2.806423729E-01
 7.360358238E-01 4.388829321E-02 -2.945660752E-01
 7.250218987E-01 4.526716843E-02 -3.100033726E-01
 7.137641311E-01 4.666045681E-02 -3.208463552E-01
 7.019163370E-01 4.805197567E-02 -3.327745461E-01
 6.888037920E-01 4.958713427E-02 -3.532194644E-01
 6.760715842E-01 5.100813136E-02 -3.628395127E-01
 6.651980281E-01 5.215083063E-02 -3.721820994E-01
 6.538346410E-01 5.334571376E-02 -3.912098008E-01
 6.430216432E-01 5.443418398E-02 -4.001225233E-01
 6.309720278E-01 5.555894971E-02 -4.091289501E-01
 6.196482182E-01 5.659371987E-02 -4.245647304E-01
 6.092455387E-01 5.750208348E-02 -4.337543440E-01
 5.971757770E-01 5.847821385E-02 -4.454264126E-01
 5.854375958E-01 5.938057229E-02 -4.577842264E-01
 5.717371702E-01 6.034367904E-02 -4.632067058E-01
 5.586481690E-01 6.115241349E-02 -4.707038419E-01
 5.458093286E-01 6.190673634E-02 -4.828340591E-01
 5.343859792E-01 6.249652803E-02 -4.844837621E-01
 5.220906138E-01 6.304293126E-02 -4.862829000E-01
 5.092628002E-01 6.356132776E-02 -4.943236492E-01
 4.983205795E-01 6.394276768E-02 -4.996731667E-01
 4.850621521E-01 6.432316452E-02 -4.996422180E-01
 4.719148874E-01 6.459017098E-02 -4.979567640E-01
 4.577226937E-01 6.481371820E-02 -4.995955486E-01
 4.437648356E-01 6.493836641E-02 -4.975407829E-01
 4.305365682E-01 6.496737152E-02 -4.985600296E-01
 4.174790382E-01 6.493870169E-02 -4.953521553E-01
 4.049432874E-01 6.480389088E-02 -4.902231708E-01
 3.921012580E-01 6.462873518E-02 -4.916158416E-01
 3.800550997E-01 6.438700110E-02 -4.868726664E-01
 3.685909510E-01 6.409163773E-02 -4.835887739E-01
 3.552435935E-01 6.369460374E-02 -4.789614451E-01
 3.428139389E-01 6.323344260E-02 -4.725536148E-01
 3.304013610E-01 6.272480637E-02 -4.706280285E-01
 3.202421963E-01 6.225720793E-02 -4.681313619E-01
 3.080480695E-01 6.164081767E-02 -4.643232211E-01
 2.953405380E-01 6.091168523E-02 -4.562351583E-01
 2.817385495E-01 6.005711108E-02 -4.501674622E-01
 2.692028880E-01 5.919283256E-02 -4.450272304E-01
 2.573515177E-01 5.831434950E-02 -4.384374456E-01
 2.448474616E-01 5.730751157E-02 -4.305349488E-01
 2.321531028E-01 5.621566996E-02 -4.257864829E-01
 2.198482305E-01 5.508252233E-02 -4.192502522E-01
 2.080263793E-01 5.391029641E-02 -4.133533449E-01
 1.963835508E-01 5.269156024E-02 -4.066700350E-01
 1.840669811E-01 5.130549520E-02 -3.994468426E-01
 1.723645031E-01 4.991142824E-02 -3.901995588E-01
 1.606829017E-01 4.843204468E-02 -3.843070603E-01
 1.490229368E-01 4.687859118E-02 -3.777140332E-01
 1.381305754E-01 4.533259198E-02 -3.658859528E-01
 1.269709468E-01 4.364117980E-02 -3.561135861E-01
 1.158284992E-01 4.186278582E-02 -3.502284597E-01
 1.052594930E-01 4.006643593E-02 -3.428886674E-01
 9.548481554E-02 3.830451518E-02 -3.319200562E-01
 8.479057252E-02 3.624392673E-02 -3.155138159E-01
 7.341733575E-02 3.388423100E-02 -3.066776893E-01
 6.362489611E-02 3.169224784E-02 -2.942494587E-01
 5.405220389E-02 2.936555818E-02 -2.795205398E-01
 4.501558095E-02 2.696598135E-02 -2.645933949E-01
 3.725953773E-02 2.471584454E-02 -2.402386102E-01
 3.042214550E-02 2.253073826E-02 -2.236879350E-01
 2.465509064E-02 2.049676329E-02 -1.786986581E-01
 2.042122930E-02 1.885267347E-02 -1.621884047E-01
 1.637673192E-02 1.713495702E-02 -1.395321216E-01
 1.340789534E-02 1.574521139E-02 -1.243532651E-01
 1.082728803E-02 1.442643069E-02 -7.162970117E-02
 8.885633200E-03 1.333763450E-02 -4.712865026E-02
 7.132230792E-03 1.225800253E-02 -7.921139911E-02
 5.531087518E-03 1.118384302E-02 1.713147645E-01
 3.466230817E-03 9.591087699E-03 2.391745289E-01
 1.758798026E-03 8.017997257E-03 3.415699643E-01
 3.264466068E-04 6.367098074E-03 3.631709746E-01
 -1.048433362E-03 4.108360037E-03 6.056424702E-01
 -1.679702429E-03 2.340327483E-03 5.523241987E-01
 -1.920366543E-03 9.067220963E-04 1.187255759E+00
 -1.898371032E-03 -8.487288142E-04 7.681561167E-01
 -1.460171421E-03 -2.908911789E-03 1.056518609E+00
 -4.602160479E-04 -5.241349805E-03 6.145126679E-01
 1.144236187E-03 -7.718610112E-03 8.168485280E-01
 3.364153206E-03 -1.027583238E-02 5.126781321E-01
 5.381650291E-03 -1.218475308E-02 4.476162803E-01
 7.724905852E-03 -1.410790067E-02 4.196359180E-01
 9.474811144E-03 -1.539353281E-02 2.956976165E-01
 1.162602007E-02 -1.685132273E-02 2.592539154E-01
 1.414661389E-02 -1.841952652E-02 1.724465427E-01
 1.746463403E-02 -2.029324882E-02 1.250160221E-01
 2.072680928E-02 -2.197378874E-02 7.025682515E-02
 2.483793348E-02 -2.391526662E-02 2.288072136E-02
 3.027862124E-02 -2.624699846E-02 -1.402204691E-02
 3.603604436E-02 -2.846700326E-02 -1.012800779E-01
 4.306599870E-02 -3.092952445E-02 -1.239066104E-01
 5.058453232E-02 -3.331653401E-02 -1.815403488E-01
 5.931105837E-02 -3.582580015E-02 -2.037787288E-01
 6.805250794E-02 -3.812588006E-02 -2.301754971E-01
 7.851051539E-02 -4.063640535E-02 -2.479930191E-01
 8.813987672E-02 -4.275356978E-02 -2.708841402E-01
 9.872306883E-02 -4.492252693E-02 -2.835676599E-01
 1.097873896E-01 -4.701412097E-02 -2.985574766E-01
 1.214077994E-01 -4.905799031E-02 -3.147080862E-01
 1.329633445E-01 -5.093190819E-02 -3.276332842E-01
 1.434496939E-01 -5.254117772E-02 -3.405139949E-01
 1.547074467E-01 -5.414469540E-02 -3.549912476E-01
 1.664061695E-01 -5.569994077E-02 -3.645895668E-01
 1.780674160E-01 -5.714861676E-02 -3.767387619E-01
 1.897126585E-01 -5.849077553E-02 -3.871705296E-01
 2.001724690E-01 -5.961997062E-02 -3.973244709E-01
 2.113576978E-01 -6.073579192E-02 -4.060685800E-01
 2.234620154E-01 -6.184826791E-02 -4.162819716E-01
 2.355329394E-01 -6.285157800E-02 -4.271743321E-01
 2.474167496E-01 -6.375105679E-02 -4.361245256E-01
 2.596167028E-01 -6.457097083E-02 -4.494825564E-01
 2.706565261E-01 -6.523804367E-02 -4.619059127E-01
 2.829503417E-01 -6.585565954E-02 -4.692525825E-01
 2.949352562E-01 -6.634963304E-02 -4.750139263E-01
 3.077546358E-01 -6.678038090E-02 -4.825253998E-01
 3.191804290E-01 -6.703019887E-02 -4.888054100E-01
 3.317205012E-01 -6.722436845E-02 -4.913269449E-01
 3.420704901E-01 -6.727038324E-02 -4.983905894E-01
 3.535102606E-01 -6.721664220E-02 -4.943794039E-01
 3.644655943E-01 -6.706569344E-02 -4.943190323E-01
 3.751689494E-01 -6.681978703E-02 -4.903943466E-01
 3.868319988E-01 -6.643855572E-02 -4.844384716E-01
 3.994393647E-01 -6.588027626E-02 -4.726742109E-01
 4.116332531E-01 -6.522467732E-02 -4.583171730E-01
 4.244160950E-01 -6.442532688E-02 -4.477155402E-01
 4.365399778E-01 -6.348790228E-02 -4.284663030E-01
 4.493797123E-01 -6.240487471E-02 -4.003828761E-01
 4.617676437E-01 -6.125448272E-02 -3.851217319E-01
 4.741104543E-01 -5.997039750E-02 -3.596947110E-01
 4.860439003E-01 -5.864556506E-02 -3.299084561E-01
 4.984552562E-01 -5.719716102E-02 -3.050754657E-01
 5.119706392E-01 -5.551700294E-02 -2.794466123E-01
 5.252589583E-01 -5.377517268E-02 -2.510684527E-01
 5.379354954E-01 -5.205318332E-02 -2.214785662E-01
 5.514306426E-01 -5.015707016E-02 -1.937532940E-01
 5.644809008E-01 -4.828936607E-02 -1.676560261E-01
 5.778421164E-01 -4.634094238E-02 -1.436317653E-01
 5.905611515E-01 -4.444450140E-02 -1.185571999E-01
 6.034688950E-01 -4.250529781E-02 -9.490356479E-02
 6.168385744E-01 -4.046829417E-02 -7.335841060E-02
 6.308081746E-01 -3.830690309E-02 -4.654676224E-02
 6.448558569E-01 -3.617552295E-02 -2.580749816E-02
 6.580060720E-01 -3.414343670E-02 -7.321905167E-03
 6.717966199E-01 -3.203365579E-02 1.529087403E-02
 6.845138669E-01 -3.009084240E-02 3.300168236E-02
 6.968417764E-01 -2.820138820E-02 5.248271280E-02
 7.120128274E-01 -2.591464855E-02 7.189744589E-02
 7.253305912E-01 -2.393108979E-02 8.786987616E-02
 7.365888357E-01 -2.223356441E-02 1.062823550E-01
 7.498934865E-01 -2.031816728E-02 1.219647242E-01
 7.629508972E-01 -1.844451763E-02 1.336647978E-01
 7.759737968E-01 -1.655217446E-02 1.546967812E-01
 7.882763147E-01 -1.481112000E-02 1.768028011E-01
 8.011019230E-01 -1.306706853E-02 1.915690298E-01
 8.123413324E-01 -1.157702599E-02 2.068480974E-01
 8.237880468E-01 -1.012000628E-02 2.197813254E-01
 8.360266685E-01 -8.592884988E-03 2.351640202E-01
 8.484494686E-01 -7.121565286E-03 2.525206901E-01
 8.607755303E-01 -5.755192600E-03 2.656148676E-01
 8.715914488E-01 -4.590372089E-03 2.812263411E-01
 8.831663132E-01 -3.480757354E-03 2.963233260E-01
 8.959908485E-01 -2.370442497E-03 3.039046346E-01
 9.061871171E-01 -1.589981024E-03 3.161609278E-01
 9.169239402E-01 -8.934171638E-04 3.247030116E-01
 9.269414544E-01 -3.396191460E-04 3.283045255E-01
 9.365273714E-01 8.970010822E-05 3.349556764E-01
 9.490743279E-01 4.931458388E-04 3.331247141E-01
 9.630350471E-01 7.559889345E-04 3.333385423E-01
 9.774590731E-01 8.284691139E-04 3.455951595E-01
 9.899761081E-01 7.188521558E-04 3.051044545E-01
 -5.000000000E-01 -1.000000000E+00 2.462804805E-02
 3.500000000E+00 -1.000000000E+00 1.568510606E-02
 3.500000000E+00 1.000000000E+00 1.902932708E-03
 -5.000000000E-01 1.000000000E+00 -1.024249563E-03
 -5.000000000E-01 5.000000000E-01 3.451290606E-02
 -5.000000000E-01 2.752797990E-12 9.921458509E-02
 -5.000000000E-01 -5.000000000E-01 5.868723399E-02
 -9.421907698E-13 -1.000000000E+00 1.134797321E-02
 5.000000000E-01 -1.000000000E+00 -1.759316216E-02
 1.000000000E+00 -1.000000000E+00 4.046938192E-03
 1.500000000E+00 -1.000000000E+00 2.628695337E-02
 2.000000000E+00 -1.000000000E+00 2.553272617E-02
 2.500000000E+00 -1.000000000E+00 1.919808448E-02
 3.000000000E+00 -1.000000000E+00 1.606768196E-02
 3.500000000E+00 -5.000000000E-01 1.874379904E-02
 3.500000000E+00 -2.752797990E-12 1.888850236E-02
 3.500000000E+00 5.000000000E-01 9.203416188E-03
 3.000000000E+00 1.000000000E+00 -7.271340135E-04
 2.500000000E+00 1.000000000E+00 -6.958016624E-03
 2.000000000E+00 1.000000000E+00 -2.103182174E-02
 1.500000000E+00 1.000000000E+00 -5.058363043E-02
 1.000000000E+00 1.000000000E+00 -1.013755951E-01
 5.000000000E-01 1.000000000E+00 -9.106477969E-02
 1.733724275E-12 1.000000000E+00 -2.696971981E-02
 6.819148346E-01 -4.345683890E-02 2.623591151E-02
 7.829619745E-01 -2.657557849E-02 1.601679170E-01
 9.045239417E-01 -1.149351749E-02 3.025024252E-01
 5.896086345E-01 -6.022883065E-02 -1.183402342E-01
 7.101426277E-01 5.931882091E-02 -3.172983853E-01
 2.736489290E-01 -7.541958049E-02 -4.427803162E-01
 2.722288380E-01 7.163761756E-02 -4.316087151E-01
 9.146011599E-01 2.889143139E-02 -5.581841656E-02
 8.077761489E-01 4.754345760E-02 -2.135070915E-01
 5.931302046E-01 6.802026776E-02 -4.395873636E-01
 4.030722694E-01 -7.832396538E-02 -4.426020395E-01
 4.239834698E-01 7.603555306E-02 -4.826377917E-01
 1.836980149E+00 -5.810633288E-01 2.555435946E-02
 1.730492959E+00 6.099927496E-01 -1.473291687E-02
 3.031190969E+00 2.156769022E-01 1.108182388E-02
 7.500000000E-01 -5.669872981E-01 3.547902050E-03
 4.822978485E-01 -6.849457667E-02 -3.282459971E-01
 3.614233063E-01 -7.153355901E-01 -3.290696192E-02
 1.225716775E-01 -6.026636866E-02 -2.934400738E-01
 1.937242720E-01 -7.325347001E-02 -3.655907281E-01
 7.494298211E-01 6.375254230E-01 -1.327503268E-01
 5.016026594E-01 7.324846947E-02 -4.833003197E-01
 3.332458001E-01 6.150492832E-01 -1.230533216E-01
 1.187795056E-01 5.429426702E-02 -3.289264883E-01
 1.852871032E-01 6.240481342E-02 -3.827006806E-01
 3.471409032E-01 7.560311904E-02 -4.609066379E-01
 2.734809767E+00 -5.327298017E-01 1.588810543E-02
 1.176452584E+00 6.339068120E-01 -6.278612376E-02
 9.868485231E-01 3.441374104E-01 -6.303947318E-02
 1.271660329E+00 -6.129811789E-01 3.785928649E-02
 1.495901725E+00 -2.370117543E-01 3.640654299E-02
 2.249007699E+00 -5.856220965E-01 1.824632182E-02
 2.036080936E+00 -2.105092708E-01 1.574198954E-02
 2.420028689E+00 -1.844216236E-01 1.193315602E-02
 2.184491012E+00 1.579203367E-01 6.655936747E-03
 1.846344456E+00 6.186254269E-02 1.074863236E-02
 -2.742686984E-01 2.324278469E-01 8.936959391E-02
 -1.009859410E-01 6.207296217E-01 -2.165074159E-02
 1.674292184E-02 3.396186227E-01 -4.150727609E-02
 4.546289383E-02 3.775825697E-02 -2.031814752E-01
 -2.712892699E-01 -2.368589958E-01 1.163180996E-01
 -1.459878779E-01 -6.019812830E-01 2.181536366E-02
 1.095478332E-01 -4.061416815E-01 -2.861326990E-02
 7.176907865E-02 -4.896021684E-02 -2.004442898E-01
 2.206397223E+00 5.819558106E-01 -4.137691253E-03
 2.740571089E+00 6.006415320E-01 3.697031684E-03
 -2.354177705E-01 -4.500196934E-03 1.564712291E-01
 -1.280054152E-01 1.265248641E-01 1.471608375E-01
 -1.098033429E-01 -1.273515481E-01 1.818217291E-01
 -7.802166317E-02 -3.261803632E-01 4.685329386E-02
 5.087066338E-03 -1.812131453E-01 6.454791128E-02
 3.760138794E-02 -3.526403731E-02 -5.729653402E-02
 1.590616568E-01 -2.193633584E-01 -1.594176111E-01
 3.375448987E-01 -8.044221618E-02 -4.647996732E-01
 3.730759226E-01 -7.597056890E-02 -4.707098764E-01
 3.124581714E-01 -8.089413815E-02 -4.535611358E-01
 -2.264153973E-02 -9.893109822E-02 1.851927331E-01
 -1.097945610E-01 -2.342456187E-02 2.939587241E-01
 -7.085456883E-02 5.522899553E-02 2.913871524E-01
 2.139869518E-02 2.546994555E-02 -8.676339458E-02
 3.205780085E-02 -1.159454169E-01 5.325915711E-02
 3.109339118E+00 -2.613083365E-01 1.641007802E-02
 -5.100702415E-02 -3.910840999E-02 3.735205092E-01
 -5.134048085E-02 1.136453337E-02 4.866013753E-01
 -2.692310040E-02 5.095378148E-02 2.724082246E-01
 -3.643349941E-02 1.019367987E-01 1.491002521E-01
 3.366415383E-02 1.130699423E-01 -2.891440223E-02
 9.000163729E-02 4.723452742E-02 -3.025764341E-01
 -6.886280591E-03 1.955340878E-01 1.389943114E-02
 8.145644849E-02 1.617959846E-01 -1.283999643E-01
 1.764135310E-01 2.830154133E-01 -1.747188953E-01
 1.999986488E-01 1.757932698E-01 -2.671206087E-01
 2.811810141E-01 2.335946956E-01 -2.786564677E-01
 2.384824827E-01 6.786384609E-02 -4.152614540E-01
 2.864709634E-01 1.676964988E-01 -3.372814445E-01
 3.733187812E-01 2.087799218E-01 -3.318522322E-01
 3.102048776E-01 7.366365392E-02 -4.483685953E-01
 3.217371592E-01 3.550305216E-01 -2.273351895E-01
 4.687871226E-01 2.806333656E-01 -2.865840129E-01
 4.671570490E-01 1.786772995E-01 -3.742389868E-01
 5.489608511E-01 2.208632818E-01 -3.172648517E-01
 6.617717859E-01 6.410795228E-02 -3.686490330E-01
 6.394871333E-01 7.055711061E-02 -3.885890214E-01
 6.139404523E-01 6.947550872E-02 -4.161888643E-01
 6.828642678E-01 6.252114358E-02 -3.475359188E-01
 5.514073747E-01 7.678604944E-02 -4.566005041E-01
 5.274535148E-01 7.471918452E-02 -4.724779827E-01
 4.620443874E-01 8.013659782E-02 -4.783939476E-01
 3.977842024E-01 1.465771787E-01 -4.006343620E-01
 3.871594721E-01 7.651379297E-02 -4.727743216E-01
 5.403239146E-01 1.460700191E-01 -3.854495330E-01
 6.161141130E-01 1.654521998E-01 -3.287602487E-01
 6.362811146E-01 2.501624498E-01 -2.642539855E-01
 7.006092487E-01 1.781203693E-01 -2.608600355E-01
 7.575975609E-01 5.214155149E-02 -2.655477721E-01
 7.810500223E-01 4.742171375E-02 -2.441549279E-01
 7.257235035E-01 2.558150622E-01 -2.181247349E-01
 8.018967174E-01 1.951914398E-01 -1.762122251E-01
 8.685933840E-01 3.434400557E-02 -1.404521929E-01
 8.423242960E-01 3.826148983E-02 -1.785441255E-01
 7.584957023E-01 1.281833158E-01 -2.363695797E-01
 8.418784219E-01 1.249284797E-01 -1.479355884E-01
 9.089166748E-01 2.099913923E-01 -8.588002521E-02
 9.647556613E-01 1.786373660E-02 6.925593910E-02
 9.163067141E-01 1.278357262E-01 -6.458936503E-02
 1.388180467E-01 1.316490521E-01 -2.471621558E-01
 1.535256923E-01 5.877550245E-02 -3.576473992E-01
 7.072037276E-01 1.196621094E-01 -2.845789908E-01
 8.271814085E-01 3.646846524E-01 -1.320666000E-01
 4.924630741E-01 1.198130837E-01 -4.260027835E-01
 1.028735047E+00 2.054509983E-01 -7.849463820E-03
 1.024315599E+00 1.140369731E-01 3.480931251E-02
 1.173519575E+00 2.955112589E-01 -1.355143871E-02
 1.364649510E+00 4.545498808E-01 -1.741641617E-02
 1.357364346E+00 1.836790172E-01 1.883866748E-02
 8.806166778E-01 8.860966817E-02 -1.095150295E-01
 9.243714153E-01 7.057058548E-02 -4.228865989E-02
 2.412233369E-01 1.294344727E-01 -3.414408451E-01
 7.982575154E-01 1.035872239E-01 -2.030436543E-01
 5.888551052E-01 1.204027885E-01 -3.885343443E-01
 6.339659679E-01 1.158548562E-01 -3.558689631E-01
 4.818159598E-01 4.222625904E-01 -2.157681560E-01
 6.511707202E-01 3.820487700E-01 -1.939600367E-01
 7.376110091E-01 9.174368281E-02 -2.708745664E-01
 7.334455386E-01 5.655253165E-02 -2.927146766E-01
 8.567881078E-02 1.020102850E-01 -1.930746244E-01
 9.517550584E-01 2.129009588E-02 3.869827743E-02
 9.636199528E-01 3.573659317E-02 6.001358483E-02
 9.406678299E-01 3.968144125E-02 6.277802291E-03
 9.592359174E-01 6.094659987E-02 2.523802875E-02
 9.955835329E-01 6.039799551E-02 7.097103836E-02
 2.856074514E-01 1.181572670E-01 -3.841105731E-01
 1.494306942E-01 4.426886925E-01 -9.991268533E-02
 3.394294011E-01 1.284381770E-01 -4.006723647E-01
 9.846110665E-01 2.107220453E-02 1.550627670E-01
 7.698183448E-01 8.517942923E-02 -2.379013939E-01
 -5.810082667E-03 -5.637480948E-02 3.624353767E-01
 8.840287267E-03 -1.831652292E-02 3.819543105E-01
 1.984711299E-02 -2.738330542E-02 1.193622986E-01
 2.810008237E-02 -7.408251163E-02 6.098330370E-02
 5.101624019E-02 -4.296441201E-02 -1.356985808E-01
 6.916542100E-02 -9.016062620E-02 -1.002844122E-01
 1.041028238E-01 -5.835358609E-02 -2.619200074E-01
 8.511293202E-02 -1.502769817E-01 -9.422605870E-02
 1.115370661E-01 -1.032690846E-01 -1.960258629E-01
 1.569066073E-01 -6.841643227E-02 -3.314558983E-01
 5.265075112E-01 1.101349220E-01 -4.285083900E-01
 8.907349814E-01 5.810753866E-02 -9.572912431E-02
 8.908631362E-01 3.683367892E-02 -1.004558807E-01
 3.773988468E-01 1.114995861E-01 -4.307170907E-01
 4.096307497E-01 1.135479778E-01 -4.335006661E-01
 5.563988329E-01 1.010772853E-01 -4.221291538E-01
 1.225846653E-01 9.240588247E-02 -2.702901765E-01
 9.386252365E-01 2.260806310E-02 5.840267454E-03
 1.378367560E-02 6.413464648E-02 5.386068492E-02
 4.869764373E-02 7.474111990E-02 -1.369788734E-01
 6.647407053E-02 4.460126478E-02 -2.557531258E-01
 3.621879249E-01 7.639255690E-02 -4.661954539E-01
 3.554924233E-01 9.517383905E-02 -4.423687849E-01
 3.348736661E-01 8.942398685E-02 -4.397698769E-01
 3.739439065E-01 9.049605308E-02 -4.544972411E-01
 1.189661520E+00 1.466335453E-01 3.690945317E-02
 1.325533826E+00 -5.248269675E-02 4.585001285E-02
 1.161074938E+00 -9.627440694E-03 8.287813537E-02
 1.198338079E+00 -1.380495339E-01 8.255707201E-02
 1.064569492E+00 -1.228330308E-01 1.376985545E-01
 9.581450340E-01 -1.286890643E-02 3.225585572E-01
 9.308643060E-01 -9.092273440E-03 3.153439119E-01
 1.117126240E+00 -2.377213760E-01 9.462592975E-02
 9.862456560E-01 -2.384577306E-01 1.147225032E-01
 8.442084559E-01 -2.288083234E-02 2.330038544E-01
 1.060089987E+00 -4.072836806E-01 6.196043728E-02
 9.526237127E-01 -1.348071295E-01 1.791268691E-01
 8.792366093E-01 -2.024835756E-01 1.166986342E-01
 8.724909085E-01 -1.073656048E-01 1.756849411E-01
 7.918097618E-01 -1.495770508E-01 9.862682872E-02
 7.187097231E-01 -3.528808253E-02 7.647156397E-02
 7.450424635E-01 -3.413460904E-02 1.094213459E-01
 7.804612769E-01 -2.685102372E-01 4.526154594E-02
 6.930430154E-01 -1.980327103E-01 5.494933177E-03
 7.179434295E-01 -1.172047416E-01 4.443524747E-02
 6.389470710E-01 -5.133604545E-02 -3.665194913E-02
 6.304413999E-01 -1.439362315E-01 -5.972019280E-02
 5.342401454E-01 -6.260106201E-02 -2.255127146E-01
 6.118956695E-01 -2.185437074E-01 -5.956621344E-02
 5.533378008E-01 -1.562801022E-01 -1.431866536E-01
 5.392843478E-01 -2.526655320E-01 -1.210292781E-01
 4.833237983E-01 -1.823734435E-01 -2.124208246E-01
 4.426172794E-01 -7.529771164E-02 -3.979264602E-01
 4.432441305E-01 -2.401460715E-01 -1.993375593E-01
 3.560132569E-01 -2.009102860E-01 -2.725143549E-01
 4.887288233E-01 -3.496885032E-01 -1.207798918E-01
 3.583054199E-01 -2.943100217E-01 -1.828597125E-01
 6.537298819E-01 -3.508359413E-01 -2.631985576E-02
 7.724791325E-01 -9.035793404E-02 1.121325963E-01
 5.014625048E-01 -1.290264607E-01 -2.363327209E-01
 9.255074580E-01 -7.534021846E-02 2.289443512E-01
 9.880899995E-01 -6.716488439E-02 2.300605880E-01
 1.090108239E+00 -4.602503352E-02 1.344428071E-01
 9.868507868E-01 -1.151073305E-02 3.399069754E-01
 8.826105090E-01 -5.487418559E-02 2.323353938E-01
 8.687218267E-01 -1.599628763E-02 2.655472813E-01
 4.497043702E-01 -1.252166802E-01 -3.037794170E-01
 5.861179246E-01 -1.119282527E-01 -1.222010372E-01
 6.661183203E-01 -9.526844288E-02 -5.453136021E-03
 8.224323748E-01 -8.348744868E-02 1.607785204E-01
 7.331861256E-01 -7.570305224E-02 7.879700558E-02
 7.018121430E-01 -7.599408745E-02 4.201913467E-02
 1.028713226E+00 -3.558561179E-02 2.116597951E-01
 1.062757014E+00 1.498464414E-02 1.204425498E-01
 1.001403407E+00 -2.711178368E-02 3.193014243E-01
 7.062160409E-01 -3.969497062E-02 5.935591240E-02
 2.659137968E-01 -2.148621342E-01 -2.290963735E-01
 3.071445031E-01 -1.518527297E-01 -3.249000902E-01
 2.192855440E-01 -1.567280051E-01 -2.627160780E-01
 2.406958730E-01 -7.359299889E-02 -4.119898752E-01
 3.644003355E-01 -1.376213558E-01 -3.536734621E-01
 2.695053664E-01 -1.226619287E-01 -3.551528846E-01
 1.571357606E-01 -1.485916931E-01 -2.154255227E-01
 1.901996865E-01 -1.171143770E-01 -2.932456833E-01
 3.292882018E-01 -1.179708895E-01 -3.895915959E-01
 3.016063883E-01 -1.048768237E-01 -4.075633070E-01
 1.298166524E+00 -2.927334122E-01 5.859468984E-02
 9.843618535E-01 -6.696688026E-01 2.573542582E-02
 1.560408810E+00 -9.311015597E-04 2.321989782E-02
 8.959322450E-01 -3.306424504E-01 6.740097237E-02
 9.142974201E-01 -4.449993608E-02 2.587453811E-01
 7.909826762E-01 -6.034764024E-02 1.486840130E-01
 8.118911723E-01 -2.020057655E-02 1.993351374E-01
 9.446421400E-01 -4.445721334E-02 2.803849383E-01
 9.703075291E-01 -2.827595134E-02 2.785567790E-01
 3.362071025E-01 7.275394035E-02 -4.606856470E-01
 3.100870516E-01 9.367151033E-02 -4.249010390E-01
 2.973080918E-01 8.017334510E-02 -4.357481468E-01
 7.457848261E-01 5.252725814E-02 -2.798640047E-01
 5.140646078E-01 7.239497525E-02 -4.793944825E-01
 5.135035702E-01 8.946568715E-02 -4.591968862E-01
 4.900146420E-01 8.801257101E-02 -4.667263831E-01
 4.687966903E-01 9.697726530E-02 -4.588842056E-01
 4.468808295E-01 9.218651337E-02 -4.656104941E-01
 4.437240328E-01 1.205225696E-01 -4.284468597E-01
 3.972794688E-01 9.133590555E-02 -4.581630802E-01
 3.236693759E-01 7.574918429E-02 -4.528482317E-01
 2.977536893E-01 -8.100353247E-02 -4.474673590E-01
 9.711594940E-01 -1.021422656E-02 3.226469852E-01
 6.682219745E-01 -4.310806292E-02 7.730154081E-03
 6.065255182E-01 9.829763814E-02 -3.950079923E-01
 5.812373952E-01 9.234297135E-02 -4.210412101E-01
 4.766042696E-01 -1.020659711E-01 -3.002042968E-01
 5.093744526E-01 -9.128066278E-02 -2.519739865E-01
 5.036974993E-01 -7.042724817E-02 -2.829380050E-01
 7.603072135E-01 -6.022169872E-02 1.130758954E-01
 7.726782380E-01 -4.126205062E-02 1.382196409E-01
 2.861081790E-01 -7.585334756E-02 -4.531483579E-01
 4.498980381E-01 7.596327920E-02 -4.834879355E-01
 8.459935541E-01 -4.965913167E-02 2.095451319E-01
 8.162949601E-01 -4.884757252E-02 1.842480520E-01
 8.263049662E-01 -2.905427850E-02 2.089768137E-01
 2.275394327E-01 -1.122677539E-01 -3.379526872E-01
 2.168991292E-01 -7.382128933E-02 -3.909421030E-01
 7.979391183E-01 -2.458993564E-02 1.804600969E-01
 5.462480812E-01 -6.224373983E-02 -2.015346933E-01
 5.350246032E-01 -7.891202630E-02 -2.146726830E-01
 5.625957173E-01 -7.739539247E-02 -1.633438969E-01
 5.413188339E-01 -1.074704829E-01 -1.893273601E-01
 5.899684014E-01 -8.414887664E-02 -1.123251742E-01
 6.134046611E-01 -5.467042525E-02 -7.795007589E-02
 5.595113677E-01 -5.932937144E-02 -1.769889684E-01
 9.279681426E-01 2.696722487E-02 -2.434321355E-02
 7.708960788E-01 4.859006137E-02 -2.554480898E-01
 4.755665519E-01 7.880795393E-02 -4.790668033E-01
 4.548512319E-01 -7.174210341E-02 -3.779409842E-01
 4.538739128E-01 -8.921064796E-02 -3.530869543E-01
 4.304304611E-01 -8.978623371E-02 -3.835196488E-01
 4.124899382E-01 -1.225034071E-01 -3.559415571E-01
 4.305455209E-01 -7.373863911E-02 -4.203190062E-01
 3.983755984E-01 7.547015001E-02 -4.776647176E-01
 5.664171237E-01 7.717057503E-02 -4.473429430E-01
 3.817664552E-01 -1.066352594E-01 -4.069060279E-01
 3.502517355E-01 -1.007161249E-01 -4.221932980E-01
 3.874644935E-01 -8.603008263E-02 -4.412647878E-01
 7.059733924E-01 8.844426873E-02 -3.062659584E-01
 6.725903987E-01 9.763163443E-02 -3.327205679E-01
 6.666980881E-01 1.352577752E-01 -3.149776148E-01
 2.505201482E-01 9.970167868E-02 -3.859011896E-01
 2.158618757E-01 9.796988018E-02 -3.649818624E-01
 2.139071212E-01 6.656221889E-02 -4.009293572E-01
 2.548196437E-01 7.873732298E-02 -4.106898429E-01
 5.740011897E-01 -6.262212994E-02 -1.460121980E-01
 1.020761599E+00 3.341996460E-02 1.270667132E-01
 6.939019150E-01 -3.939567187E-02 4.374136270E-02
 4.923246863E-01 -6.798927337E-02 -3.088195764E-01
 4.703321583E-01 -7.671161181E-02 -3.422116131E-01
 8.571326980E-01 -1.628048017E-02 2.513512432E-01
 8.635217161E-01 -3.099295360E-02 2.447510485E-01
 8.817723826E-01 -2.635246751E-02 2.646018933E-01
 4.364032293E-01 7.832829210E-02 -4.807256419E-01
 6.030628927E-01 6.742218526E-02 -4.294445433E-01
 5.199728330E-01 -6.792783394E-02 -2.508838684E-01
 4.109027495E-01 7.807714504E-02 -4.771696813E-01
 -1.203591392E-01 2.694713486E-01 4.035817346E-02
 3.512906312E-01 -8.066971812E-02 -4.663460541E-01
 3.255007646E-01 -9.441541431E-02 -4.329214566E-01
 3.743874709E-01 7.437620836E-02 -4.726751109E-01
 5.400419083E-01 8.867100904E-02 -4.499632386E-01
 8.792600426E-01 3.358722888E-02 -1.238297853E-01
 9.063974757E-01 4.429812248E-02 -6.794574589E-02
 8.649017842E-01 6.274968342E-02 -1.350794054E-01
 8.571139585E-01 4.213579146E-02 -1.559728041E-01
 6.009683942E-01 -5.503380338E-02 -1.000416308E-01
 2.556456393E+00 2.091584058E-01 6.213174570E-03
 -2.027189306E-02 -3.138568853E-02 4.112165341E-01
 -5.612044545E-03 -9.538194407E-03 8.843814026E-01
 -1.715608673E-02 -5.658856040E-03 7.840186286E-01
 -5.359819298E-03 -2.275189234E-02 5.922145215E-01
 5.488745209E-03 -4.258492275E-02 3.712232600E-01
 2.211909852E-03 -1.355624370E-02 5.298920122E-01
 -2.334284235E-02 2.327954983E-02 4.853901167E-01
 7.496028916E-03 1.624033635E-02 4.465107201E-02
 6.079216308E-01 -6.907309608E-02 -8.894106016E-02
 6.279562729E-01 -6.671190391E-02 -5.788291241E-02
 6.241913070E-01 -9.254083777E-02 -6.182877916E-02
 6.746381240E-01 -6.138914476E-02 1.033391445E-02
 6.502320658E-01 -6.923589669E-02 -2.602690391E-02
 5.750832131E-01 -5.035044759E-01 -5.278084569E-02
 8.311025103E-01 4.194739077E-02 -1.900315847E-01
 8.402931547E-01 5.697806537E-02 -1.702538935E-01
 8.497112296E-01 8.269220978E-02 -1.544762773E-01
 8.216467960E-01 5.633585994E-02 -1.945209036E-01
 7.987920871E-01 6.915620118E-02 -2.138130444E-01
 8.194214944E-01 4.220917221E-02 -2.020301501E-01
 9.030406440E-01 2.962521252E-02 -7.955248323E-02
 7.189539911E-01 -5.290794531E-02 7.057299134E-02
 4.891051524E-01 -7.949489065E-02 -3.009369409E-01
 1.560477444E-01 9.008540556E-02 -3.137518679E-01
 1.900528890E-01 1.181087994E-01 -3.165071084E-01
 7.511838469E-01 6.793284210E-02 -2.687963848E-01
 2.797774499E-01 8.760076275E-02 -4.170841057E-01
 7.404227814E-01 -5.130295529E-02 9.625445872E-02
 6.451933964E-01 9.092907397E-02 -3.651751972E-01
 6.730793456E-01 7.616632489E-02 -3.495272373E-01
 1.637149467E+00 2.779623050E-01 2.953326811E-03
 2.534456540E-01 -9.909913212E-02 -3.868617464E-01
 2.578580507E-01 -8.128198421E-02 -4.207641386E-01
 2.365781111E-02 -5.182474403E-02 1.037462515E-01
 1.045024049E-02 -2.878167056E-02 2.520812803E-01
 1.524594966E-02 -2.252801050E-02 1.787808965E-01
 2.037441519E-02 -3.752547225E-02 9.936399734E-02
 4.018225641E-02 -5.069257801E-02 -5.518574527E-02
 5.814490416E-02 -5.883231350E-02 -1.136941729E-01
 6.966629722E-01 6.140120444E-02 -3.326065924E-01
 7.234583982E-01 7.025842797E-02 -2.975359543E-01
 6.894487317E-01 7.641894141E-02 -3.306051237E-01
 2.801801163E-01 -9.085133887E-02 -4.158344934E-01
 9.645328382E-01 1.000634508E-01 4.631433991E-03
 9.734687361E-02 7.648268197E-02 -2.531617554E-01
 1.361758277E-01 7.375295349E-02 -3.153087347E-01
 1.701365365E-01 7.154911626E-02 -3.621621853E-01
 1.883676814E-01 8.372071591E-02 -3.579115994E-01
 1.715737166E+00 -2.458120092E-01 2.418806311E-02
 4.056579014E-01 -9.316249487E-02 -4.091793842E-01
 3.202200404E-01 -4.501608169E-01 -9.621655298E-02
 5.431324602E-01 6.113772133E-01 -1.627713923E-01
 8.193094925E-02 -2.711486137E-01 -4.654521076E-02
 9.228012047E-01 4.208176109E-02 -3.234785436E-02
 5.790738002E-01 7.132105153E-02 -4.434347895E-01
 -2.722503438E-03 3.693804663E-02 3.065719008E-01
 -8.298059796E-03 1.481928602E-02 5.940319475E-01
 7.774841225E-01 6.298325084E-02 -2.434086258E-01
 6.962395081E-01 -5.213977648E-02 4.165087662E-02
 3.250981419E-01 -7.631424795E-02 -4.681814066E-01
 8.907773149E-01 -1.429496844E-02 2.862152859E-01
 9.009127324E-01 -2.855805612E-02 2.761477383E-01
 9.221259731E-01 -2.332462772E-02 2.910034042E-01
 7.918959886E-01 4.993012742E-02 -2.291939400E-01
 2.275943819E-01 -8.762911964E-02 -3.791220791E-01
 2.062619580E-01 -8.893319267E-02 -3.505938918E-01